<LesHouchesEvents version="3.0">
  <!--
  <scalesfunctionalform>
    muR  H_T/2 := sum_i mT(i)/2, i=final state
    muF1 H_T/2 := sum_i mT(i)/2, i=final state
    muF2 H_T/2 := sum_i mT(i)/2, i=final state
    QES  H_T/2 := sum_i mT(i)/2, i=final state
  </scalesfunctionalform>
HERWIG6   
  -->
  <header>
      697
  </header>
  <init>
   2212   2212 0.65000000D+04 0.65000000D+04 -1 -1   244800   244800 -4   1
 0.17344134D-02 0.68363252D-05 0.27011060D-05     66
  </init>
  <event>
  9     66 0.27011060E-05 0.29196518E+03 0.75467711E-02 0.95865943E-01
       -2 -1    0    0    0  501 0.00000000E+00 0.00000000E+00 0.21881671E+03 0.21881694E+03 0.32000000E+00 0.0000E+00 0.9000E+01
        2 -1    0    0  502    0 0.00000000E+00 0.00000000E+00 -.99369670E+03 0.99369675E+03 0.32000000E+00 0.0000E+00 0.9000E+01
       25  2    1    2    0    0 -.35659962E+03 0.11852380E+03 -.25769030E+03 0.54532047E+03 0.29959798E+03 0.0000E+00 0.0000E+00
       23  2    1    2    0    0 0.12931644E+03 0.43724726E+01 -.16536618E+03 0.23068264E+03 0.95533493E+02 0.0000E+00 0.0000E+00
       24  1    3    3    0    0 -.29663682E+03 -.21590968E+02 -.17218064E+03 0.35294895E+03 0.80419002E+02 0.0000E+00 0.9000E+01
      -13  1    4    4    0    0 0.14349008E+03 -.16183380E+01 -.13691926E+03 0.19834040E+03 0.10565837E+00 0.0000E+00 0.9000E+01
       13  1    4    4    0    0 -.14173640E+02 0.59908105E+01 -.28446918E+02 0.32342236E+02 0.10565837E+00 0.0000E+00 0.9000E+01
      -24  1    3    3    0    0 -.59962796E+02 0.14011477E+03 -.85509661E+02 0.19237152E+03 0.80419002E+02 0.0000E+00 0.9000E+01
       21  1    1    2  502  501 0.22728318E+03 -.12289627E+03 -.35182351E+03 0.43651058E+03 0.75000000E+00 0.0000E+00 0.9000E+01
#aMCatNLO 2  0  0  2  1 0.25838177D+03 0.00000000D+00  -5  7  0 0.00000000D+00 0.00000000D+00 0.00000000D+00 0.00000000D+00 0.00000000D+00
  <mgrwgt>
 0.1802531778D-03    1    2    0
 0.298514200087103D+03 0.000000000000000D+00 0.000000000000000D+00 0.298514200087103D+03
 0.298514200087103D+03 0.000000000000000D+00 0.000000000000000D+00 -.298514200087103D+03
 0.228264257495122D+03 -.198749211450159D+03 -.745206350048938D+02 0.241408616630865D+02
 0.215735312493965D+03 0.209674114499635D+03 -.374051903522825D+02 -.343415564640251D+02
 0.152508479612161D+02 -.773720035372488D+01 0.251041706344704D+01 -.129004612471803D+02
 0.137777982223903D+03 -.318770269575178D+01 0.109415408293729D+03 0.231011560481189D+02
 0.000000000000000D+00 0.000000000000000D+00 -.000000000000000D+00 -.000000000000000D+00
 0.403316646131503D+03 0.000000000000000D+00 0.000000000000000D+00 0.403316646131503D+03
 0.539122641247420D+03 0.000000000000000D+00 0.000000000000000D+00 -.539122641247420D+03
 0.309046240761742D+03 -.296636835336704D+03 -.215909632527819D+02 0.241408616630865D+02
 0.147551412174551D+03 0.143490270367250D+03 -.161834615142341D+01 -.343415564640251D+02
 0.200800558492176D+02 -.141738105353374D+02 0.599081275171016D+01 -.129004612471803D+02
 0.173863641262977D+03 -.599628041059100D+02 0.140114769071099D+03 0.231011560481189D+02
 0.291897937330435D+03 0.227283179610702D+03 -.122896272418604D+03 -.135805995115917D+03
0.577710541151D-05 0.000000000000D+00 0.000000000000D+00 0.778587936737D-07 0.103859993870D-10  7 -2 2 24 -13 13 -24 21 2 0.33664094D-01 0.15287627D+00 0.20146321D+06 0.20146321D+06 0.20146321D+06 0.10975823D+01  1  2  1  2  7  2        2 0.180253177792D-03 0.100000000000D+01
  </mgrwgt>
  </event>
  <event>
  8     66 0.27011060E-05 0.16597336E+03 0.75467711E-02 0.10155108E+00
       -2 -1    0    0    0  501 0.00000000E+00 0.00000000E+00 0.32059885E+03 0.32059901E+03 0.32000000E+00 0.0000E+00 0.9000E+01
        2 -1    0    0  501    0 0.00000000E+00 0.00000000E+00 -.43991366E+03 0.43991377E+03 0.32000000E+00 0.0000E+00 0.9000E+01
       25  2    1    2    0    0 -.11239264E+03 -.18724913E+03 -.28876863E+03 0.47002224E+03 0.29973196E+03 0.0000E+00 0.0000E+00
       23  2    1    2    0    0 0.11239264E+03 0.18724913E+03 0.16945382E+03 0.29049054E+03 0.89307405E+02 0.0000E+00 0.0000E+00
       24  1    3    3    0    0 -.11626202E+03 -.20859056E+03 -.29321345E+03 0.38661121E+03 0.80419002E+02 0.0000E+00 0.9000E+01
      -11  1    4    4    0    0 0.27819724E+02 0.55958811E+02 0.10362770E+03 0.12101250E+03 0.51099893E-03 0.0000E+00 0.9000E+01
       11  1    4    4    0    0 0.84572918E+02 0.13129032E+03 0.65826121E+02 0.16947804E+03 0.51099893E-03 0.0000E+00 0.9000E+01
      -24  1    3    3    0    0 0.38693799E+01 0.21341434E+02 0.44448251E+01 0.83411039E+02 0.80419002E+02 0.0000E+00 0.9000E+01
#aMCatNLO 1  0  0  1  2 0.12673162D+02 0.00000000D+00  -5  7  0 0.00000000D+00 0.00000000D+00 0.00000000D+00 0.00000000D+00 0.00000000D+00
  <mgrwgt>
 0.6040699175D-03    9    2    0
 0.375547490108864D+03 0.000000000000000D+00 0.000000000000000D+00 0.375547490108864D+03
 0.375547490108864D+03 0.000000000000000D+00 0.000000000000000D+00 -.375547490108864D+03
 0.344880561281713D+03 -.116262021837613D+03 -.208590563601591D+03 -.235475061631205D+03
 0.138991574235182D+03 0.278197236002265D+02 0.559588108570243D+02 0.124150441701385D+03
 0.182059854518314D+03 0.845729183327146D+02 0.131290318316682D+03 0.935738447870033D+02
 0.851629901825187D+02 0.386937990467167D+01 0.213414344278853D+02 0.177507751428168D+02
 0.000000000000000D+00 0.000000000000000D+00 0.000000000000000D+00 0.000000000000000D+00
 0.391978159522404D+03 0.000000000000000D+00 0.000000000000000D+00 0.391978159522404D+03
 0.378052659209139D+03 0.000000000000000D+00 0.000000000000000D+00 -.378052659209139D+03
 0.348628894232358D+03 -.120902557437123D+03 -.212153144907752D+03 -.235475061631205D+03
 0.138064061254940D+03 0.259658389425417D+02 0.545355667759007D+02 0.124150441701385D+03
 0.179604887245608D+03 0.821528819570042D+02 0.129432434422149D+03 0.935738447870033D+02
 0.849040464664121D+02 0.273139666363918D+01 0.204677943632224D+02 0.177507751428168D+02
 0.188289295322254D+02 0.100524398739379D+02 0.771734934648019D+01 0.139255003132654D+02
0.993663765657D-05 0.000000000000D+00 0.000000000000D+00 0.738247319322D-06 0.000000000000D+00  7 -2 2 24 -11 11 -24 21 0 0.49322921D-01 0.67679045D-01 0.76711712D+05 0.76711712D+05 0.76711712D+05 0.11312947D+01  1  2  2  1  7  1       -2 0.342315198520D-03 0.100000000000D+01
-.489810229560D-06 0.000000000000D+00 -.381593049780D-07 0.738247319322D-06 0.000000000000D+00  7 -2 2 24 -11 11 -24 21 2 0.49322921D-01 0.67679045D-01 0.76711712D+05 0.76711712D+05 0.76711712D+05 0.11312947D+01  1  2  3  1  7  1       -2 -.215956417941D-04 0.100000000000D+01
0.610791616706D-06 0.000000000000D+00 0.000000000000D+00 0.738247319322D-06 0.000000000000D+00  7 -2 2 24 -11 11 -24 21 2 0.49322921D-01 0.67679045D-01 0.76711712D+05 0.76711712D+05 0.76711712D+05 0.11312947D+01  1  2 15  1  7  1       -2 0.269296886205D-04 0.100000000000D+01
0.479271560049D-04 0.000000000000D+00 0.000000000000D+00 0.738247319322D-06 0.000000000000D+00  7 -2 2 24 -11 11 -24 21 2 0.51641032D-01 0.67679045D-01 0.80228410D+05 0.80228410D+05 0.80228410D+05 0.11296586D+01  1  2 12  1  7  1       -2 0.192464801592D-02 0.100000000000D+01
-.487893035620D-04 0.000000000000D+00 0.000000000000D+00 0.738247319322D-06 0.000000000000D+00  7 -2 2 24 -11 11 -24 21 2 0.49322921D-01 0.67679045D-01 0.76711712D+05 0.76711712D+05 0.76711712D+05 0.11312947D+01  1  2  4  1  7  1       -2 -.215111130703D-02 0.100000000000D+01
-.220344256856D-03 0.000000000000D+00 -.259087318637D-04 0.738247319322D-06 0.000000000000D+00  7 -2 2 24 -11 11 -24 21 2 0.51731256D-01 0.67679045D-01 0.76711712D+05 0.76711712D+05 0.76711712D+05 0.11312947D+01  1  2  5  1  7  1       -2 -.884885165428D-02 0.100000000000D+01
0.221357233143D-03 0.000000000000D+00 0.258793178269D-04 0.738247319322D-06 0.000000000000D+00  7 -2 2 24 -11 11 -24 21 2 0.49322921D-01 0.67679045D-01 0.76711712D+05 0.76711712D+05 0.76711712D+05 0.11312947D+01  1  2  6  1  7  1       -2 0.975959918147D-02 0.100000000000D+01
0.828867024261D-06 0.000000000000D+00 0.000000000000D+00 0.738247319322D-06 0.000000000000D+00  7 21 2 24 -11 11 -24 2 2 0.51641032D-01 0.67679045D-01 0.80228410D+05 0.80228410D+05 0.80228410D+05 0.11296586D+01  1  2 12  3  7  1       -2 0.358791421587D-03 0.100000000000D+01
-.181534160751D-05 0.000000000000D+00 -.215897617066D-06 0.738247319322D-06 0.000000000000D+00  7 21 2 24 -11 11 -24 2 2 0.51731256D-01 0.67679045D-01 0.76711712D+05 0.76711712D+05 0.76711712D+05 0.11312947D+01  1  2  5  3  7  1       -2 -.786654985518D-03 0.100000000000D+01
  </mgrwgt>
  </event>
  <event>
  8     66 0.27011060E-05 0.27112034E+03 0.75467711E-02 0.10163134E+00
       -2 -1    0    0    0  501 0.00000000E+00 0.00000000E+00 0.47423318E+02 0.47424397E+02 0.32000000E+00 0.0000E+00 0.9000E+01
        2 -1    0    0  501    0 0.00000000E+00 0.00000000E+00 -.18213534E+04 0.18213535E+04 0.32000000E+00 0.0000E+00 0.9000E+01
       25  2    1    2    0    0 0.11542652E+03 -.15170431E+03 -.85497992E+03 0.92594725E+03 0.30008358E+03 0.0000E+00 0.0000E+00
       23  2    1    2    0    0 -.11542652E+03 0.15170431E+03 -.91895018E+03 0.94283060E+03 0.90125611E+02 0.0000E+00 0.0000E+00
       24  1    3    3    0    0 -.55266483E+02 -.10223180E+03 -.21828526E+03 0.26004114E+03 0.80419002E+02 0.0000E+00 0.9000E+01
      -11  1    4    4    0    0 -.34148541E+02 0.10861218E+03 -.40440630E+03 0.42012758E+03 0.51099893E-03 0.0000E+00 0.9000E+01
       11  1    4    4    0    0 -.81277979E+02 0.43092135E+02 -.51454389E+03 0.52270303E+03 0.51099893E-03 0.0000E+00 0.9000E+01
      -24  1    3    3    0    0 0.17069300E+03 -.49472511E+02 -.63669466E+03 0.66590610E+03 0.80419002E+02 0.0000E+00 0.9000E+01
#aMCatNLO 1  0  0  2  1 0.19627691D+02 0.00000000D+00  -5  7  0 0.00000000D+00 0.00000000D+00 0.00000000D+00 0.00000000D+00 0.00000000D+00
  <mgrwgt>
 0.1479834380D-03    4    2    0
 0.293897358615818D+03 0.000000000000000D+00 0.000000000000000D+00 0.293897358615818D+03
 0.293897358615818D+03 0.000000000000000D+00 0.000000000000000D+00 -.293897358615818D+03
 0.167977577115163D+03 -.552664833786534D+02 -.102231800385282D+03 0.907938613786793D+02
 0.115238538700513D+03 -.341485407781111D+02 0.108612176804999D+03 -.178099133696652D+02
 0.108968221946438D+03 -.812779792642444D+02 0.430921346251091D+02 -.584040359422243D+02
 0.195610379469523D+03 0.170693003421009D+03 -.494725110448260D+02 -.145799120667899D+02
 0.000000000000000D+00 0.000000000000000D+00 -.000000000000000D+00 0.000000000000000D+00
 0.314695288212568D+03 0.000000000000000D+00 0.000000000000000D+00 0.314695288212568D+03
 0.298728752490202D+03 0.000000000000000D+00 0.000000000000000D+00 -.298728752490202D+03
 0.169759208115328D+03 -.608979256437368D+02 -.101974948756112D+03 0.907938613786793D+02
 0.116607121815708D+03 -.380143484387016D+02 0.108788497354681D+03 -.178099133696652D+02
 0.111805741234112D+03 -.849591768170559D+02 0.432600350570465D+02 -.584040359422243D+02
 0.189950259537713D+03 0.164264143512320D+03 -.491792889778090D+02 -.145799120667899D+02
 0.253017099999090D+02 0.196073073871747D+02 -.894294677806788D+00 0.159665357223659D+02
0.444363637528D-05 0.000000000000D+00 0.000000000000D+00 0.448055067735D-06 0.000000000000D+00  7 -2 2 24 -11 11 -24 21 0 0.72959803D-02 0.28020830D+00 0.73506241D+05 0.73506241D+05 0.73506241D+05 0.11328596D+01  1  2  2  2  7  2        2 0.487440571795D-03 0.100000000000D+01
-.244915482495D-06 0.000000000000D+00 -.170647337174D-07 0.448055067735D-06 0.000000000000D+00  7 -2 2 24 -11 11 -24 21 2 0.72959803D-02 0.28020830D+00 0.73506241D+05 0.73506241D+05 0.73506241D+05 0.11328596D+01  1  2  3  2  7  2        2 -.344787547848D-04 0.100000000000D+01
0.283861040875D-06 0.000000000000D+00 0.000000000000D+00 0.448055067735D-06 0.000000000000D+00  7 -2 2 24 -11 11 -24 21 2 0.72959803D-02 0.28020830D+00 0.73506241D+05 0.73506241D+05 0.73506241D+05 0.11328596D+01  1  2 15  2  7  2        2 0.399614394386D-04 0.100000000000D+01
-.245023646004D-05 0.000000000000D+00 0.000000000000D+00 0.448055067735D-06 0.000000000000D+00  7 -2 2 24 -11 11 -24 21 2 0.72959803D-02 0.28020830D+00 0.73506241D+05 0.73506241D+05 0.73506241D+05 0.11328596D+01  1  2  4  2  7  2        2 -.344939818463D-03 0.100000000000D+01
  </mgrwgt>
  </event>
  <event>
  8     66 0.27011060E-05 0.14119281E+03 0.75467711E-02 0.95504429E-01
       -2 -1    0    0    0  501 0.00000000E+00 0.00000000E+00 0.16321148E+03 0.16321179E+03 0.32000000E+00 0.0000E+00 0.9000E+01
        2 -1    0    0  501    0 0.00000000E+00 0.00000000E+00 -.11034318E+04 0.11034319E+04 0.32000000E+00 0.0000E+00 0.9000E+01
       25  2    1    2    0    0 -.99961668E+02 0.20636409E+03 -.94805590E+03 0.10204312E+04 0.29981892E+03 0.0000E+00 0.0000E+00
       23  2    1    2    0    0 0.99961668E+02 -.20636409E+03 0.78355648E+01 0.24621244E+03 0.89334744E+02 0.0000E+00 0.0000E+00
       24  1    3    3    0    0 -.10713738E+03 0.23962316E+03 -.82548523E+03 0.86993721E+03 0.80419002E+02 0.0000E+00 0.9000E+01
      -13  1    4    4    0    0 0.11219716E+03 -.20469936E+03 0.47286673E+01 0.23347892E+03 0.10565837E+00 0.0000E+00 0.9000E+01
       13  1    4    4    0    0 -.12235497E+02 -.16647305E+01 0.31068975E+01 0.12733526E+02 0.10565837E+00 0.0000E+00 0.9000E+01
      -24  1    3    3    0    0 0.71757144E+01 -.33259068E+02 -.12257067E+03 0.15049399E+03 0.80419002E+02 0.0000E+00 0.9000E+01
#aMCatNLO 1  0  0  2  1 0.27839738D+03 0.00000000D+00  -5  7  0 0.00000000D+00 0.00000000D+00 0.00000000D+00 0.00000000D+00 0.00000000D+00
  <mgrwgt>
 0.1590049760D-02    7    2    0
 0.424373613421787D+03 0.000000000000000D+00 0.000000000000000D+00 0.424373613421787D+03
 0.424373613421787D+03 0.000000000000000D+00 0.000000000000000D+00 -.424373613421787D+03
 0.383815627256097D+03 -.107137382454482D+03 0.239623161606660D+03 -.268234116909187D+03
 0.353675345170204D+03 0.112197338806701D+03 -.204699646730314D+03 0.265699193778306D+03
 0.224443910280375D+02 -.122356707328696D+02 -.166444651519515D+01 0.187421628456884D+02
 0.888118633892352D+02 0.717571438065099D+01 -.332590683611510D+02 -.162072397148078D+02
 0.000000000000000D+00 -.000000000000000D+00 0.000000000000000D+00 -.000000000000000D+00
 0.461002272320399D+03 0.000000000000000D+00 0.000000000000000D+00 0.461002272320399D+03
 0.179383369252597D+04 0.000000000000000D+00 0.000000000000000D+00 -.179383369252597D+04
 0.318110970113915D+03 -.696353461557369D+02 0.133898283947797D+03 -.268234116909187D+03
 0.447798849507265D+03 0.155017933515491D+03 -.325418481857093D+03 0.265699193778306D+03
 0.227937902228982D+02 -.981871727688381D+01 -.847826607436973D+01 0.187421628456884D+02
 0.104535976439213D+03 0.175057656063750D+02 -.623813110401708D+02 -.162072397148078D+02
 0.136159637856308D+04 -.930696356892457D+02 0.262379775023836D+03 -.133283142020557D+04
0.420472527498D-04 0.000000000000D+00 0.000000000000D+00 0.183457457788D-05 0.000000000000D+00  7 -2 2 24 -13 13 -24 21 0 0.25109486D-01 0.16975877D+00 0.92302608D+05 0.92302608D+05 0.92302608D+05 0.11245879D+01  1  2  2  2  7  2        2 0.159041666829D-02 0.100000000000D+01
-.201873850407D-05 0.000000000000D+00 -.161472521855D-06 0.183457457788D-05 0.000000000000D+00  7 -2 2 24 -13 13 -24 21 2 0.25109486D-01 0.16975877D+00 0.92302608D+05 0.92302608D+05 0.92302608D+05 0.11245879D+01  1  2  3  2  7  2        2 -.965695362661D-04 0.100000000000D+01
0.256455921572D-05 0.000000000000D+00 0.000000000000D+00 0.183457457788D-05 0.000000000000D+00  7 -2 2 24 -13 13 -24 21 2 0.25109486D-01 0.16975877D+00 0.92302608D+05 0.92302608D+05 0.92302608D+05 0.11245879D+01  1  2 15  2  7  2        2 0.122679729786D-03 0.100000000000D+01
0.185067889891D-05 0.000000000000D+00 0.000000000000D+00 0.183457457788D-05 0.000000000000D+00  7 -2 2 24 -13 13 -24 21 2 0.25109486D-01 0.69378071D+00 0.21441932D+06 0.21441932D+06 0.21441932D+06 0.10955109D+01  1  2 12  2  7  2        2 0.467412370579D-06 0.100000000000D+01
-.142766673122D-03 0.000000000000D+00 -.147031077473D-04 0.183457457788D-05 0.000000000000D+00  7 -2 2 24 -13 13 -24 21 2 0.25109486D-01 0.72158795D+00 0.92302608D+05 0.92302608D+05 0.92302608D+05 0.11245879D+01  1  2  5  2  7  2        2 -.269003586443D-04 0.100000000000D+01
0.311768266520D-06 0.000000000000D+00 0.000000000000D+00 0.183457457788D-05 0.000000000000D+00  7 -2 21 24 -13 13 -24 -2 2 0.25109486D-01 0.69378071D+00 0.21441932D+06 0.21441932D+06 0.21441932D+06 0.10955109D+01  1  2 12  4  7  2        2 0.889708574686D-09 0.100000000000D+01
-.248156300101D-04 0.000000000000D+00 -.255776918578D-05 0.183457457788D-05 0.000000000000D+00  7 -2 21 24 -13 13 -24 -2 2 0.25109486D-01 0.72158795D+00 0.92302608D+05 0.92302608D+05 0.92302608D+05 0.11245879D+01  1  2  5  4  7  2        2 -.450447643817D-07 0.100000000000D+01
  </mgrwgt>
  </event>
  <event>
  8     66 0.27011060E-05 0.20326702E+03 0.75467711E-02 0.94618063E-01
       -2 -1    0    0    0  501 0.00000000E+00 0.00000000E+00 0.40309298E+02 0.40310569E+02 0.32000000E+00 0.0000E+00 0.9000E+01
        2 -1    0    0  501    0 0.00000000E+00 0.00000000E+00 -.17501635E+04 0.17501635E+04 0.32000000E+00 0.0000E+00 0.9000E+01
       25  2    1    2    0    0 0.85717812E+02 0.33515769E+02 -.15677251E+04 0.15988013E+04 0.29988758E+03 0.0000E+00 0.0000E+00
       23  2    1    2    0    0 -.85717812E+02 -.33515769E+02 -.14212904E+03 0.19167280E+03 0.89816185E+02 0.0000E+00 0.0000E+00
       24  1    3    3    0    0 0.16932867E+03 0.39193790E+02 -.81704587E+03 0.83918980E+03 0.80419002E+02 0.0000E+00 0.9000E+01
      -13  1    4    4    0    0 -.75678728E+02 -.14044431E+02 -.14983565E+03 0.16844955E+03 0.10565837E+00 0.0000E+00 0.9000E+01
       13  1    4    4    0    0 -.10039084E+02 -.19471338E+02 0.77066143E+01 0.23223249E+02 0.10565837E+00 0.0000E+00 0.9000E+01
      -24  1    3    3    0    0 -.83610856E+02 -.56780205E+01 -.75067925E+03 0.75961145E+03 0.80419002E+02 0.0000E+00 0.9000E+01
#aMCatNLO 1  0  0  1  2 0.40716206D+03 0.00000000D+00  -5  7  0 0.00000000D+00 0.00000000D+00 0.00000000D+00 0.00000000D+00 0.00000000D+00
  <mgrwgt>
 0.9850705929D-03    5    2    0
 0.265610663049793D+03 0.000000000000000D+00 0.000000000000000D+00 0.265610663049793D+03
 0.265610663049793D+03 0.000000000000000D+00 0.000000000000000D+00 -.265610663049793D+03
 0.198633377120084D+03 0.169328668535288D+03 0.391937899271564D+02 -.527223993666018D+02
 0.854773982891443D+02 -.756788185881934D+02 -.140444237586211D+02 0.371733264137687D+02
 0.103079115527216D+03 -.100389945023796D+02 -.194713459050238D+02 0.100724323457154D+03
 0.144031435163142D+03 -.836108554447154D+02 -.567802026351153D+01 -.851752505043206D+02
 0.000000000000000D+00 0.000000000000000D+00 -.000000000000000D+00 0.000000000000000D+00
 0.684116235879547D+03 0.000000000000000D+00 0.000000000000000D+00 0.684116235879547D+03
 0.453253097346938D+03 0.000000000000000D+00 0.000000000000000D+00 -.453253097346938D+03
 0.123128172786084D+03 0.605156207540703D+02 0.474503870273721D+02 -.527223993666018D+02
 0.164721384593589D+03 -.160290830572101D+03 -.762417079231885D+01 0.371733264137687D+02
 0.136417549433926D+03 -.910317733333455D+02 -.133257157947569D+02 0.100724323457154D+03
 0.245043760050945D+03 -.215187974648869D+03 0.430588592262943D+01 -.851752505043206D+02
 0.468058466361940D+03 0.405994957800245D+03 -.308063863629258D+02 0.230863138532609D+03
0.527206787367D-05 0.000000000000D+00 0.000000000000D+00 0.441867136721D-06 0.000000000000D+00  7 -2 2 24 -13 13 -24 21 0 0.62015305D-02 0.26925602D+00 0.41317480D+05 0.41317480D+05 0.41317480D+05 0.11546537D+01  1  2  2  1  7  1       -2 0.808070497816D-03 0.100000000000D+01
-.267408308850D-06 0.000000000000D+00 -.202461288022D-07 0.441867136721D-06 0.000000000000D+00  7 -2 2 24 -13 13 -24 21 2 0.62015305D-02 0.26925602D+00 0.41317480D+05 0.41317480D+05 0.41317480D+05 0.11546537D+01  1  2  3  1  7  1       -2 -.546445242025D-04 0.100000000000D+01
0.317497038287D-06 0.000000000000D+00 0.000000000000D+00 0.441867136721D-06 0.000000000000D+00  7 -2 2 24 -13 13 -24 21 2 0.62015305D-02 0.26925602D+00 0.41317480D+05 0.41317480D+05 0.41317480D+05 0.11546537D+01  1  2 15  1  7  1       -2 0.648800879356D-04 0.100000000000D+01
0.329293278214D-05 0.000000000000D+00 -.216448752569D-05 0.441867136721D-06 0.000000000000D+00  7 -2 2 24 -13 13 -24 21 2 0.30853778D-01 0.26925602D+00 0.41317480D+05 0.41317480D+05 0.41317480D+05 0.11546537D+01  1  2  5  1  7  1       -2 0.530107853223D-04 0.100000000000D+01
0.584310580158D-06 0.000000000000D+00 -.423135306589D-06 0.441867136721D-06 0.000000000000D+00  7 21 2 24 -13 13 -24 2 2 0.30853778D-01 0.26925602D+00 0.41317480D+05 0.41317480D+05 0.41317480D+05 0.11546537D+01  1  2  5  3  7  1       -2 0.113753746055D-03 0.100000000000D+01
  </mgrwgt>
  </event>
  <event>
  9     66 0.27011060E-05 0.25752690E+03 0.75467711E-02 0.99783397E-01
       21 -1    0    0  502  501 0.00000000E+00 0.00000000E+00 0.16883094E+03 0.16883261E+03 0.75000000E+00 0.0000E+00 0.9000E+01
        2 -1    0    0  501    0 0.00000000E+00 0.00000000E+00 -.79955988E+03 0.79955995E+03 0.32000000E+00 0.0000E+00 0.9000E+01
       25  2    1    2    0    0 -.47632203E+02 0.24447348E+03 -.17418382E+03 0.42679314E+03 0.29962689E+03 0.0000E+00 0.0000E+00
       23  2    1    2    0    0 0.55891261E+02 -.11565120E+03 -.29897860E+03 0.33790675E+03 0.91069944E+02 0.0000E+00 0.0000E+00
       24  1    3    3    0    0 -.14608328E+03 0.18348596E+03 -.98692240E+02 0.26686101E+03 0.80419002E+02 0.0000E+00 0.9000E+01
      -13  1    4    4    0    0 0.31978471E+01 -.37652994E+02 -.18538777E+02 0.42091229E+02 0.10565837E+00 0.0000E+00 0.9000E+01
       13  1    4    4    0    0 0.52693414E+02 -.77998206E+02 -.28043983E+03 0.29581552E+03 0.10565837E+00 0.0000E+00 0.9000E+01
      -24  1    3    3    0    0 0.98451080E+02 0.60987512E+02 -.75491575E+02 0.15993213E+03 0.80419002E+02 0.0000E+00 0.9000E+01
        2  1    1    2  502    0 -.82590581E+01 -.12882228E+03 -.15756652E+03 0.20369267E+03 0.32000000E+00 0.0000E+00 0.9000E+01
#aMCatNLO 2  0  0  1  2 0.12908676D+03 0.00000000D+00  -5  7  0 0.00000000D+00 0.00000000D+00 0.00000000D+00 0.00000000D+00 0.00000000D+00
  <mgrwgt>
 0.2042217886D-03    1    2    0
 0.293351263865534D+03 0.000000000000000D+00 0.000000000000000D+00 0.293351263865534D+03
 0.293351263865534D+03 0.000000000000000D+00 0.000000000000000D+00 -.293351263865534D+03
 0.229998253819711D+03 -.149505056549119D+03 0.130114170067505D+03 0.845607569717471D+02
 0.481322930435657D+02 0.259190046717332D+01 -.471032763784345D+02 0.955411115786116D+01
 0.175777869274652D+03 0.503881401590737D+02 -.113956252523757D+03 -.123987366972559D+03
 0.132794111593138D+03 0.965250159228724D+02 0.309453588346865D+02 0.298724988429506D+02
 0.000000000000000D+00 -.000000000000000D+00 -.000000000000000D+00 -.000000000000000D+00
 0.347890862850934D+03 0.000000000000000D+00 0.000000000000000D+00 0.347890862850934D+03
 0.388027280733950D+03 0.000000000000000D+00 0.000000000000000D+00 -.388027280733950D+03
 0.261964047942260D+03 -.146083282250676D+03 0.183485965368359D+03 0.845607569717471D+02
 0.389775663609393D+02 0.319778078967735D+01 -.376529392933119D+02 0.955411115786116D+01
 0.155670159967468D+03 0.526934801082294D+02 -.779982608113331D+02 -.123987366972559D+03
 0.144123814171161D+03 0.984510794398633D+02 0.609875120567848D+02 0.298724988429506D+02
 0.135182555143056D+03 -.825905808709420D+01 -.128822277320499D+03 -.401364178830156D+02
0.242013742410D-06 0.000000000000D+00 0.000000000000D+00 0.148531573167D-05 0.208755067359D-10  7 21 2 24 -13 13 -24 2 2 0.25974111D-01 0.12300928D+00 0.10560530D+06 0.10560530D+06 0.10560530D+06 0.11197835D+01  1  2  1  3  7  1       -2 0.204221788624D-03 0.100000000000D+01
  </mgrwgt>
  </event>
  <event>
  8     66 0.27011060E-05 0.10101822E+03 0.75467711E-02 0.10101228E+00
       -2 -1    0    0    0  501 0.00000000E+00 0.00000000E+00 0.33751300E+02 0.33752817E+02 0.32000000E+00 0.0000E+00 0.9000E+01
        2 -1    0    0  501    0 0.00000000E+00 0.00000000E+00 -.24141887E+04 0.24141887E+04 0.32000000E+00 0.0000E+00 0.9000E+01
       25  2    1    2    0    0 0.40344521E+02 0.13531191E+03 -.20559111E+04 0.20823950E+04 0.29943547E+03 0.0000E+00 0.0000E+00
       23  2    1    2    0    0 -.40344521E+02 -.13531191E+03 -.32452630E+03 0.36554651E+03 0.91487377E+02 0.0000E+00 0.0000E+00
       24  1    3    3    0    0 -.10236361E+03 0.22360177E+02 -.81816215E+03 0.82875497E+03 0.80419002E+02 0.0000E+00 0.9000E+01
      -13  1    4    4    0    0 -.51370554E+02 -.24559284E+02 -.10826011E+03 0.12232071E+03 0.10565837E+00 0.0000E+00 0.9000E+01
       13  1    4    4    0    0 0.11026033E+02 -.11075262E+03 -.21626618E+03 0.24322580E+03 0.10565837E+00 0.0000E+00 0.9000E+01
      -24  1    3    3    0    0 0.14270813E+03 0.11295173E+03 -.12377490E+04 0.12536401E+04 0.80419002E+02 0.0000E+00 0.9000E+01
#aMCatNLO 1  0  0  2  1 0.88354848D+02 0.00000000D+00  -5  7  0 0.00000000D+00 0.00000000D+00 0.00000000D+00 0.00000000D+00 0.00000000D+00
  <mgrwgt>
 0.8674946839D-03    9    2    0
 0.285453832032575D+03 0.000000000000000D+00 0.000000000000000D+00 0.285453832032575D+03
 0.285453832032575D+03 0.000000000000000D+00 0.000000000000000D+00 -.285453832032575D+03
 0.142159490431035D+03 -.102363608378713D+03 0.223601769652225D+02 -.525720356369667D+02
 0.730896952939784D+02 -.513706371386498D+02 -.245591692867540D+02 0.458258486236789D+02
 0.141169032012140D+03 0.110261155053949D+02 -.110752738153520D+03 0.868386513460698D+02
 0.214489446327995D+03 0.142708130011968D+03 0.112951730475051D+03 -.800924643327819D+02
 0.000000000000000D+00 -.000000000000000D+00 -.000000000000000D+00 -.000000000000000D+00
 0.323439284112154D+03 0.000000000000000D+00 0.000000000000000D+00 0.323439284112154D+03
 0.345278916839327D+03 0.000000000000000D+00 0.000000000000000D+00 -.345278916839327D+03
 0.137226902354830D+03 -.895993360392108D+02 0.396503067560601D+02 -.525720356369667D+02
 0.661801162442202D+02 -.450078440712465D+02 -.159403060220476D+02 0.458258486236789D+02
 0.130073409637909D+03 0.234183167172356D+02 -.939666056073024D+02 0.868386513460698D+02
 0.244223769521606D+03 0.163665272392631D+03 0.141339695113297D+03 -.800924643327819D+02
 0.910140031929156D+02 -.524764089994094D+02 -.710830902400068D+02 -.218396327271729D+02
0.586979381511D-05 0.000000000000D+00 0.000000000000D+00 0.371652057228D-06 0.000000000000D+00  7 -2 2 24 -13 13 -24 21 0 0.51926260D-02 0.37141377D+00 0.62324058D+05 0.62324058D+05 0.62324058D+05 0.11389728D+01  1  2  2  2  7  2        2 0.512723740988D-03 0.100000000000D+01
-.318977215918D-06 0.000000000000D+00 -.225415538022D-07 0.371652057228D-06 0.000000000000D+00  7 -2 2 24 -13 13 -24 21 2 0.51926260D-02 0.37141377D+00 0.62324058D+05 0.62324058D+05 0.62324058D+05 0.11389728D+01  1  2  3  2  7  2        2 -.361448955390D-04 0.100000000000D+01
0.348285461157D-06 0.000000000000D+00 0.000000000000D+00 0.371652057228D-06 0.000000000000D+00  7 -2 2 24 -13 13 -24 21 2 0.51926260D-02 0.37141377D+00 0.62324058D+05 0.62324058D+05 0.62324058D+05 0.11389728D+01  1  2 15  2  7  2        2 0.394659586423D-04 0.100000000000D+01
0.331355800662D-05 0.000000000000D+00 0.000000000000D+00 0.371652057228D-06 0.000000000000D+00  7 -2 2 24 -13 13 -24 21 2 0.51926260D-02 0.46969522D+00 0.87148177D+05 0.87148177D+05 0.87148177D+05 0.11266578D+01  1  2 12  2  7  2        2 0.152912325756D-03 0.100000000000D+01
-.347759970816D-05 0.000000000000D+00 0.000000000000D+00 0.371652057228D-06 0.000000000000D+00  7 -2 2 24 -13 13 -24 21 2 0.51926260D-02 0.37141377D+00 0.62324058D+05 0.62324058D+05 0.62324058D+05 0.11389728D+01  1  2  4  2  7  2        2 -.394064127170D-03 0.100000000000D+01
-.830791116762D-05 0.000000000000D+00 -.261280161057D-05 0.371652057228D-06 0.000000000000D+00  7 -2 2 24 -13 13 -24 21 2 0.51926260D-02 0.46916269D+00 0.62324058D+05 0.62324058D+05 0.62324058D+05 0.11389728D+01  1  2  5  2  7  2        2 -.398278458311D-03 0.100000000000D+01
0.874822399124D-05 0.000000000000D+00 0.254307919882D-05 0.371652057228D-06 0.000000000000D+00  7 -2 2 24 -13 13 -24 21 2 0.51926260D-02 0.37141377D+00 0.62324058D+05 0.62324058D+05 0.62324058D+05 0.11389728D+01  1  2  6  2  7  2        2 0.991304790861D-03 0.100000000000D+01
0.107034917725D-06 0.000000000000D+00 0.000000000000D+00 0.371652057228D-06 0.000000000000D+00  7 -2 21 24 -13 13 -24 -2 2 0.51926260D-02 0.46969522D+00 0.87148177D+05 0.87148177D+05 0.87148177D+05 0.11266578D+01  1  2 12  4  7  2        2 0.333350283388D-06 0.100000000000D+01
-.228242931182D-06 0.000000000000D+00 -.840948068793D-07 0.371652057228D-06 0.000000000000D+00  7 -2 21 24 -13 13 -24 -2 2 0.51926260D-02 0.46916269D+00 0.62324058D+05 0.62324058D+05 0.62324058D+05 0.11389728D+01  1  2  5  4  7  2        2 -.758001654812D-06 0.100000000000D+01
  </mgrwgt>
  </event>
  <event>
  8     66 0.27011060E-05 0.20453700E+03 0.75467711E-02 0.82427300E-01
       -2 -1    0    0    0  501 0.00000000E+00 0.00000000E+00 0.44375278E+03 0.44375290E+03 0.32000000E+00 0.0000E+00 0.9000E+01
        2 -1    0    0  501    0 0.00000000E+00 0.00000000E+00 -.16404176E+03 0.16404207E+03 0.32000000E+00 0.0000E+00 0.9000E+01
       25  2    1    2    0    0 -.10101382E+03 0.16512749E+02 0.33505631E+03 0.45937504E+03 0.29712998E+03 0.0000E+00 0.0000E+00
       23  2    1    2    0    0 0.10101382E+03 -.16512749E+02 -.55345290E+02 0.14841993E+03 0.92135293E+02 0.0000E+00 0.0000E+00
       24  1    3    3    0    0 -.15969096E+03 0.43011844E+01 0.10256169E+03 0.20616939E+03 0.80419002E+02 0.0000E+00 0.9000E+01
      -13  1    4    4    0    0 0.71729000E+02 0.27704369E+02 -.79687057E+01 0.77305193E+02 0.10565837E+00 0.0000E+00 0.9000E+01
       13  1    4    4    0    0 0.29284821E+02 -.44217117E+02 -.47376584E+02 0.71114739E+02 0.10565837E+00 0.0000E+00 0.9000E+01
      -24  1    3    3    0    0 0.58677141E+02 0.12211564E+02 0.23249463E+03 0.25320564E+03 0.80419002E+02 0.0000E+00 0.9000E+01
#aMCatNLO 1  0  0  1  2 0.16942592D+04 0.00000000D+00  -5  7  0 0.00000000D+00 0.00000000D+00 0.00000000D+00 0.00000000D+00 0.00000000D+00
  <mgrwgt>
 0.8354819130D-03    3    2    0
 0.269803848087327D+03 0.000000000000000D+00 0.000000000000000D+00 0.269803848087327D+03
 0.269803848087327D+03 0.000000000000000D+00 0.000000000000000D+00 -.269803848087327D+03
 0.179058019322155D+03 -.159690960822036D+03 0.430118463799591D+01 0.865188832841292D+01
 0.912044684368709D+02 0.717290559173158D+02 0.277044620517218D+02 -.490475318694780D+02
 0.104659262087400D+03 0.292847670632407D+02 -.442172110843633D+02 -.902263919407823D+02
 0.164685946328228D+03 0.586771378414798D+02 0.122115643946456D+02 0.130622035481847D+03
 0.000000000000000D+00 -.000000000000000D+00 -.000000000000000D+00 -.000000000000000D+00
 0.171819260270633D+04 0.000000000000000D+00 0.000000000000000D+00 0.171819260270633D+04
 0.175457144123058D+04 0.000000000000000D+00 0.000000000000000D+00 -.175457144123058D+04
 0.897580711489568D+02 0.366130523977828D+02 0.131880477888336D+02 0.865188832841292D+01
 0.529455051311675D+03 0.524968124888964D+03 0.482230113900573D+02 -.490475318694780D+02
 0.430448524189643D+03 0.420049344314785D+03 -.265269394222106D+02 -.902263919407823D+02
 0.728452701818249D+03 0.710895167966127D+03 0.417380742359711D+02 0.130622035481847D+03
 0.169464969546839D+04 -.169252568956766D+04 -.766221939926513D+02 -.363788385242460D+02
0.155606790442D-04 0.000000000000D+00 0.000000000000D+00 0.215001336983D-07 0.000000000000D+00  7 -2 2 24 -13 13 -24 21 0 0.68269692D-01 0.25237226D-01 0.41835386D+05 0.41835386D+05 0.41835386D+05 0.11541687D+01  1  2  2  1  7  1       -2 0.825376205934D-03 0.100000000000D+01
-.783864792072D-06 0.000000000000D+00 -.597571047508D-07 0.215001336983D-07 0.000000000000D+00  7 -2 2 24 -13 13 -24 21 2 0.68269692D-01 0.25237226D-01 0.41835386D+05 0.41835386D+05 0.41835386D+05 0.11541687D+01  1  2  3  1  7  1       -2 -.553863984977D-04 0.100000000000D+01
0.926887415020D-06 0.000000000000D+00 0.000000000000D+00 0.215001336983D-07 0.000000000000D+00  7 -2 2 24 -13 13 -24 21 2 0.68269692D-01 0.25237226D-01 0.41835386D+05 0.41835386D+05 0.41835386D+05 0.11541687D+01  1  2 15  1  7  1       -2 0.654921055902D-04 0.100000000000D+01
  </mgrwgt>
  </event>
  <event>
  9     66 -.27011060E-05 0.64546232E+03 0.75467711E-02 0.91766184E-01
       -2 -1    0    0    0  501 0.00000000E+00 0.00000000E+00 0.91206775E+02 0.91207336E+02 0.32000000E+00 0.0000E+00 0.9000E+01
        2 -1    0    0  502    0 0.00000000E+00 0.00000000E+00 -.47191339E+04 0.47191339E+04 0.32000000E+00 0.0000E+00 0.9000E+01
       25  2    1    2    0    0 -.56782150E+03 0.23257896E+03 -.25403745E+04 0.26305458E+04 0.29959017E+03 0.0000E+00 0.0000E+00
       23  2    1    2    0    0 0.56344854E+03 -.22816684E+03 -.20080540E+04 0.21000510E+04 0.91645396E+02 0.0000E+00 0.0000E+00
       24  1    3    3    0    0 -.23824325E+03 0.23373557E+03 -.12399145E+04 0.12865642E+04 0.80419002E+02 0.0000E+00 0.9000E+01
      -11  1    4    4    0    0 0.22459467E+03 -.78474405E+02 -.64217289E+03 0.68482626E+03 0.51099893E-03 0.0000E+00 0.9000E+01
       11  1    4    4    0    0 0.33885387E+03 -.14969243E+03 -.13658811E+04 0.14152247E+04 0.51099893E-03 0.0000E+00 0.9000E+01
      -24  1    3    3    0    0 -.32957825E+03 -.11566043E+01 -.13004600E+04 0.13439816E+04 0.80419002E+02 0.0000E+00 0.9000E+01
       21  1    1    2  502  501 0.43729560E+01 -.44121257E+01 -.79498640E+02 0.79744504E+02 0.75000000E+00 0.0000E+00 0.9000E+01
#aMCatNLO 2  0  0  2  1 0.62120526D+01 0.00000000D+00  -5  7  0 0.00000000D+00 0.00000000D+00 0.00000000D+00 0.00000000D+00 0.00000000D+00
  <mgrwgt>
 -.4986664706D-03    3    2    0
 0.650058705729709D+03 0.000000000000000D+00 0.000000000000000D+00 0.650058705729709D+03
 0.650058705729709D+03 0.000000000000000D+00 0.000000000000000D+00 -.650058705729709D+03
 0.341877360660474D+03 -.237090671628895D+03 0.232572668152818D+03 -.105300157948749D+02
 0.246199174250601D+03 0.225421033664558D+03 -.793081724027598D+02 0.592419173678043D+02
 0.372571821094048D+03 0.340104237565634D+03 -.150953995789246D+03 -.187552824157648D+02
 0.339469055454295D+03 -.328434599601297D+03 -.231049996081298D+01 -.299566191571646D+02
 0.000000000000000D+00 0.000000000000000D+00 -.000000000000000D+00 -.000000000000000D+00
 0.650931804543870D+03 0.000000000000000D+00 0.000000000000000D+00 0.650931804543870D+03
 0.661210447979187D+03 0.000000000000000D+00 0.000000000000000D+00 -.661210447979187D+03
 0.343467986712499D+03 -.238243247500514D+03 0.233735567960324D+03 -.105300157948749D+02
 0.245174635933112D+03 0.224594668387936D+03 -.784744051473665D+02 0.592419173678043D+02
 0.370919847507286D+03 0.338853874429348D+03 -.149692432809921D+03 -.187552824157648D+02
 0.340569782034219D+03 -.329578251278307D+03 -.115660428435897D+01 -.299566191571646D+02
 0.120100003359428D+02 0.437295596153697D+01 -.441212571867757D+01 -.102786434353171D+02
-.299368270113D-03 0.000000000000D+00 0.000000000000D+00 0.629853942374D-05 0.000000000000D+00  7 -2 2 24 -11 11 -24 21 2 0.14012783D-01 0.72648242D+00 0.42063223D+06 0.42063223D+06 0.42063223D+06 0.10738565D+01  1  2 13  2  7  2        2 -.107560999352D-03 0.100000000000D+01
-.616595359903D-02 0.000000000000D+00 0.000000000000D+00 0.629853942374D-05 0.000000000000D+00  7 -2 2 24 -11 11 -24 21 2 0.14012783D-01 0.71376303D+00 0.41662161D+06 0.41662161D+06 0.41662161D+06 0.10741553D+01  1  2  8  2  7  2        2 -.272967959968D-02 0.100000000000D+01
0.647162395696D-02 0.000000000000D+00 0.000000000000D+00 0.629853942374D-05 0.100399853932D-05  7 -2 2 24 -11 11 -24 21 2 0.14031604D-01 0.72600762D+00 0.42063223D+06 0.42063223D+06 0.42063223D+06 0.10738565D+01  1  2  1  2  7  2        2 0.233857412839D-02 0.100000000000D+01
  </mgrwgt>
  </event>
  <event>
  8     66 0.27011060E-05 0.25220256E+03 0.75467711E-02 0.92464090E-01
       -2 -1    0    0    0  501 0.00000000E+00 0.00000000E+00 0.60615966E+03 0.60615974E+03 0.32000000E+00 0.0000E+00 0.9000E+01
        2 -1    0    0  501    0 0.00000000E+00 0.00000000E+00 -.13643825E+03 0.13643863E+03 0.32000000E+00 0.0000E+00 0.9000E+01
       25  2    1    2    0    0 0.55918729E+02 0.14549783E+03 0.44710884E+03 0.56008029E+03 0.29914394E+03 0.0000E+00 0.0000E+00
       23  2    1    2    0    0 -.55918729E+02 -.14549783E+03 0.22612569E+02 0.18251808E+03 0.92222539E+02 0.0000E+00 0.0000E+00
       24  1    3    3    0    0 0.44075754E+02 -.64441993E+02 0.14198579E+03 0.18089395E+03 0.80419002E+02 0.0000E+00 0.9000E+01
      -13  1    4    4    0    0 -.11809337E+02 0.30825246E+01 0.24659685E+02 0.27514971E+02 0.10565837E+00 0.0000E+00 0.9000E+01
       13  1    4    4    0    0 -.44109392E+02 -.14858036E+03 -.20471160E+01 0.15500311E+03 0.10565837E+00 0.0000E+00 0.9000E+01
      -24  1    3    3    0    0 0.11842975E+02 0.20993983E+03 0.30512305E+03 0.37918634E+03 0.80419002E+02 0.0000E+00 0.9000E+01
#aMCatNLO 1  0  0  1  1 0.50203756D+03 0.00000000D+00  -5  7  0 0.00000000D+00 0.00000000D+00 0.00000000D+00 0.00000000D+00 0.00000000D+00
  <mgrwgt>
 0.9077868135D-03    5    2    0
 0.287582222377355D+03 0.000000000000000D+00 0.000000000000000D+00 0.287582222377355D+03
 0.287582222377355D+03 0.000000000000000D+00 0.000000000000000D+00 -.287582222377355D+03
 0.117597308471047D+03 0.440757541241861D+02 -.644419921977832D+02 0.355874773653475D+02
 0.153855977223898D+02 -.118092934690292D+02 0.308272229179219D+01 0.936771201037029D+01
 0.201797540350167D+03 -.441094360315870D+02 -.148580558338879D+03 -.129230115019912D+03
 0.240383998211107D+03 0.118429753764302D+02 0.209939828244870D+03 0.842749256441943D+02
 0.000000000000000D+00 0.000000000000000D+00 0.000000000000000D+00 0.000000000000000D+00
 0.128668397973822D+04 0.000000000000000D+00 0.000000000000000D+00 0.128668397973822D+04
 0.451352919901428D+03 0.000000000000000D+00 0.000000000000000D+00 -.451352919901428D+03
 0.177254747134014D+03 -.233020703064659D+02 -.152126836558762D+03 0.355874773653475D+02
 0.245691794536824D+02 -.209395196640302D+02 -.879926513736831D+01 0.936771201037029D+01
 0.394152936077397D+03 -.180292466832240D+03 -.325807828012033D+03 -.129230115019912D+03
 0.167473103224917D+03 -.813580847856183D+02 0.886488764570351D+02 0.842749256441943D+02
 0.974586933749635D+03 0.305892141588354D+03 0.398085053251128D+03 0.835331059836789D+03
0.273972916395D-04 0.000000000000D+00 0.000000000000D+00 0.367382804111D-06 0.000000000000D+00  7 -2 2 24 -13 13 -24 21 0 0.93255368D-01 0.20990536D-01 0.63606133D+05 0.63606133D+05 0.63606133D+05 0.11382130D+01  1  2  2  1  7  1       -2 0.900291342464D-03 0.100000000000D+01
-.149017924396D-05 0.000000000000D+00 -.105212813768D-06 0.367382804111D-06 0.000000000000D+00  7 -2 2 24 -13 13 -24 21 2 0.93255368D-01 0.20990536D-01 0.63606133D+05 0.63606133D+05 0.63606133D+05 0.11382130D+01  1  2  3  1  7  1       -2 -.634396887594D-04 0.100000000000D+01
0.167097933863D-05 0.000000000000D+00 0.000000000000D+00 0.367382804111D-06 0.000000000000D+00  7 -2 2 24 -13 13 -24 21 2 0.93255368D-01 0.20990536D-01 0.63606133D+05 0.63606133D+05 0.63606133D+05 0.11382130D+01  1  2 15  1  7  1       -2 0.711366834531D-04 0.100000000000D+01
0.549338606940D-07 0.000000000000D+00 -.104911163814D-04 0.367382804111D-06 0.000000000000D+00  7 -2 2 24 -13 13 -24 21 2 0.47925880D+00 0.20990536D-01 0.63606133D+05 0.63606133D+05 0.63606133D+05 0.11382130D+01  1  2  5  1  7  1       -2 0.339743690081D-08 0.100000000000D+01
-.342206469034D-06 0.000000000000D+00 -.209610293616D-05 0.367382804111D-06 0.000000000000D+00  7 21 2 24 -13 13 -24 2 2 0.47925880D+00 0.20990536D-01 0.63606133D+05 0.63606133D+05 0.63606133D+05 0.11382130D+01  1  2  5  3  7  1       -2 -.204921067916D-06 0.100000000000D+01
  </mgrwgt>
  </event>
  <event>
  7     66 0.27011060E-05 0.22319853E+03 0.75467711E-02 0.91173080E-01
       -2 -1    0    0    0  501 0.00000000E+00 0.00000000E+00 0.99601773E+02 0.99602287E+02 0.32000000E+00 0.0000E+00 0.9000E+01
        2 -1    0    0  501    0 0.00000000E+00 0.00000000E+00 -.12325304E+04 0.12325305E+04 0.32000000E+00 0.0000E+00 0.9000E+01
       25  2    1    2    0    0 0.58467141E+02 0.13692816E+03 -.10611939E+04 0.11120780E+04 0.29735023E+03 0.0000E+00 0.0000E+00
       24  1    3    3    0    0 0.97060786E+02 0.12194727E+03 -.31593498E+03 0.36135032E+03 0.80419002E+02 0.0000E+00 0.9000E+01
      -11  1    1    2    0    0 -.81130484E+02 -.13540511E+03 -.14544549E+02 0.15851890E+03 0.51099893E-03 0.0000E+00 0.9000E+01
       11  1    1    2    0    0 0.22663343E+02 -.15230522E+01 -.57190200E+02 0.61535890E+02 0.51099893E-03 0.0000E+00 0.9000E+01
      -24  1    3    3    0    0 -.38593645E+02 0.14980895E+02 -.74525893E+03 0.75072764E+03 0.80419002E+02 0.0000E+00 0.9000E+01
#aMCatNLO 1  0  0  1  1 0.60154464D+03 0.00000000D+00  -5  7  0 0.00000000D+00 0.00000000D+00 0.00000000D+00 0.00000000D+00 0.00000000D+00
  <mgrwgt>
 0.1308283906D-02    5    2    0
 0.350374921712887D+03 0.000000000000000D+00 0.000000000000000D+00 0.350374921712887D+03
 0.350374921712887D+03 0.000000000000000D+00 0.000000000000000D+00 -.350374921712887D+03
 0.176146763022839D+03 0.970607862301758D+02 0.121947266769556D+03 -.163870092716330D+02
 0.277831369750396D+03 -.811304831508053D+02 -.135405110001574D+03 0.228634142040422D+03
 0.245188173594526D+02 0.226633418943155D+02 -.152305281666596D+01 -.923177388182788D+01
 0.222252893293087D+03 -.385936449736860D+02 0.149808960486846D+02 -.203015358886961D+03
 0.000000000000000D+00 0.000000000000000D+00 -.000000000000000D+00 0.000000000000000D+00
 0.804009643672910D+03 0.000000000000000D+00 0.000000000000000D+00 0.804009643672910D+03
 0.726089857204270D+03 0.000000000000000D+00 0.000000000000000D+00 -.726089857204270D+03
 0.210134380850503D+03 -.280025091232150D+02 0.191406811454006D+03 -.163870092716330D+02
 0.370606390500822D+03 -.291070223712358D+03 -.188056013338080D+02 0.228634142040422D+03
 0.146711369738990D+02 0.997510973125428D+01 0.552392948462795D+01 -.923177388182788D+01
 0.328117355916193D+03 -.216782816571325D+03 0.113946293465233D+03 -.203015358886961D+03
 0.606570236635762D+03 0.525880439675644D+03 -.292071433070059D+03 0.779197864686405D+02
0.149032630293D-04 0.000000000000D+00 0.000000000000D+00 0.147801130703D-09 0.000000000000D+00  7 -2 2 24 -11 11 -24 21 0 0.15323392D-01 0.18962011D+00 0.49817586D+05 0.49817586D+05 0.49817586D+05 0.11474350D+01  1  2  2  1  7  1       -2 0.108120680941D-02 0.100000000000D+01
-.623252397883D-06 0.000000000000D+00 -.572324541517D-07 0.147801130703D-09 0.000000000000D+00  7 -2 2 24 -11 11 -24 21 2 0.15323392D-01 0.18962011D+00 0.49817586D+05 0.49817586D+05 0.49817586D+05 0.11474350D+01  1  2  3  1  7  1       -2 -.595316028870D-04 0.100000000000D+01
0.873794429070D-06 0.000000000000D+00 0.000000000000D+00 0.147801130703D-09 0.000000000000D+00  7 -2 2 24 -11 11 -24 21 2 0.15323392D-01 0.18962011D+00 0.49817586D+05 0.49817586D+05 0.49817586D+05 0.11474350D+01  1  2 15  1  7  1       -2 0.834627883229D-04 0.100000000000D+01
0.141869859407D-04 0.000000000000D+00 -.613520450665D-05 0.147801130703D-09 0.000000000000D+00  7 -2 2 24 -11 11 -24 21 2 0.77595719D-01 0.18962011D+00 0.49817586D+05 0.49817586D+05 0.49817586D+05 0.11474350D+01  1  2  5  1  7  1       -2 0.704531717605D-04 0.100000000000D+01
0.261765045311D-05 0.000000000000D+00 -.121380620748D-05 0.147801130703D-09 0.000000000000D+00  7 21 2 24 -11 11 -24 2 2 0.77595719D-01 0.18962011D+00 0.49817586D+05 0.49817586D+05 0.49817586D+05 0.11474350D+01  1  2  5  3  7  1       -2 0.132692739378D-03 0.100000000000D+01
  </mgrwgt>
  </event>
  <event>
  8     66 0.27011060E-05 0.13618578E+03 0.75467711E-02 0.98169147E-01
       -2 -1    0    0    0  501 0.00000000E+00 0.00000000E+00 0.35660941E+02 0.35662376E+02 0.32000000E+00 0.0000E+00 0.9000E+01
        2 -1    0    0  501    0 0.00000000E+00 0.00000000E+00 -.15351354E+04 0.15351354E+04 0.32000000E+00 0.0000E+00 0.9000E+01
       25  2    1    2    0    0 -.10494910E+02 0.67897274E+02 -.70886664E+03 0.77299345E+03 0.30051086E+03 0.0000E+00 0.0000E+00
       23  2    1    2    0    0 0.10494910E+02 -.67897274E+02 -.79060777E+03 0.79780432E+03 0.81920031E+02 0.0000E+00 0.0000E+00
       24  1    3    3    0    0 0.22021930E+02 0.29877227E+02 -.39534678E+02 0.96993922E+02 0.80419002E+02 0.0000E+00 0.9000E+01
      -13  1    4    4    0    0 0.32866089E+02 -.27252577E+02 -.60431383E+03 0.60582019E+03 0.10565837E+00 0.0000E+00 0.9000E+01
       13  1    4    4    0    0 -.22371179E+02 -.40644697E+02 -.18629394E+03 0.19198413E+03 0.10565837E+00 0.0000E+00 0.9000E+01
      -24  1    3    3    0    0 -.32516840E+02 0.38020048E+02 -.66933196E+03 0.67599952E+03 0.80419002E+02 0.0000E+00 0.9000E+01
#aMCatNLO 1  0  0  2  2 0.31087225D+03 0.00000000D+00  -5  7  0 0.00000000D+00 0.00000000D+00 0.00000000D+00 0.00000000D+00 0.00000000D+00
  <mgrwgt>
 0.1493865507D-02    3    2    0
 0.233977615249610D+03 0.000000000000000D+00 0.000000000000000D+00 0.233977615249610D+03
 0.233977615249610D+03 0.000000000000000D+00 0.000000000000000D+00 -.233977615249610D+03
 0.198900644338191D+03 0.220219282084253D+02 0.298772315545395D+02 0.178091650776774D+03
 0.971629501872606D+02 0.328661791243434D+02 -.272525619440260D+02 -.872797286106326D+02
 0.474942856599496D+02 -.223712681338051D+02 -.406447194946805D+02 -.101607238734764D+02
 0.124397350313819D+03 -.325168391989637D+02 0.380200498841670D+02 -.806511982926645D+02
 0.000000000000000D+00 -.000000000000000D+00 -.000000000000000D+00 0.000000000000000D+00
 0.119279632679547D+04 0.000000000000000D+00 0.000000000000000D+00 0.119279632679547D+04
 0.307396688271237D+03 0.000000000000000D+00 0.000000000000000D+00 -.307396688271237D+03
 0.263206789159415D+03 0.119634132998482D+03 0.129543954125785D+03 0.178091650776774D+03
 0.118991777355746D+03 0.785251276757008D+02 0.193674049745619D+02 -.872797286106326D+02
 0.273300294485723D+02 -.656592539268549D+01 -.245067097702748D+02 -.101607238734764D+02
 0.152275333056933D+03 0.259254810740349D+02 0.976924498017450D+02 -.806511982926645D+02
 0.938389086046037D+03 -.217518816355532D+03 -.222097099131817D+03 0.885399638524230D+03
0.603859740419D-05 0.000000000000D+00 0.000000000000D+00 0.509290227495D-08 0.000000000000D+00  7 -2 2 24 -13 13 -24 21 0 0.54864116D-02 0.23617478D+00 0.18546566D+05 0.18546566D+05 0.18546566D+05 0.11872248D+01  1  2  2  2  7  2        2 0.143587003126D-02 0.100000000000D+01
-.216004722007D-06 0.000000000000D+00 -.231898040313D-07 0.509290227495D-08 0.000000000000D+00  7 -2 2 24 -13 13 -24 21 2 0.54864116D-02 0.23617478D+00 0.18546566D+05 0.18546566D+05 0.18546566D+05 0.11872248D+01  1  2  3  2  7  2        2 -.723949375904D-04 0.100000000000D+01
0.389045779728D-06 0.000000000000D+00 0.000000000000D+00 0.509290227495D-08 0.000000000000D+00  7 -2 2 24 -13 13 -24 21 2 0.54864116D-02 0.23617478D+00 0.18546566D+05 0.18546566D+05 0.18546566D+05 0.11872248D+01  1  2 15  2  7  2        2 0.130390413143D-03 0.100000000000D+01
  </mgrwgt>
  </event>
  <event>
  8     66 0.27011060E-05 0.17685302E+03 0.75467711E-02 0.99805706E-01
       -2 -1    0    0    0  501 0.00000000E+00 0.00000000E+00 0.17112492E+03 0.17112522E+03 0.32000000E+00 0.0000E+00 0.9000E+01
        2 -1    0    0  501    0 0.00000000E+00 0.00000000E+00 -.31993802E+03 0.31993818E+03 0.32000000E+00 0.0000E+00 0.9000E+01
       25  2    1    2    0    0 -.96969320E+02 0.58914840E+02 -.11922059E+03 0.34220666E+03 0.30002974E+03 0.0000E+00 0.0000E+00
       23  2    1    2    0    0 0.96969320E+02 -.58914840E+02 -.29592505E+02 0.14885673E+03 0.91698434E+02 0.0000E+00 0.0000E+00
       24  1    3    3    0    0 -.10327399E+03 0.48874334E+02 0.54843228E+02 0.15009734E+03 0.80419002E+02 0.0000E+00 0.9000E+01
      -13  1    4    4    0    0 -.10874021E+02 -.76158915E+01 0.16209161E+02 0.20952189E+02 0.10565837E+00 0.0000E+00 0.9000E+01
       13  1    4    4    0    0 0.10784334E+03 -.51298949E+02 -.45801666E+02 0.12790454E+03 0.10565837E+00 0.0000E+00 0.9000E+01
      -24  1    3    3    0    0 0.63046687E+01 0.10040506E+02 -.17406382E+03 0.19210932E+03 0.80419002E+02 0.0000E+00 0.9000E+01
#aMCatNLO 1  0  0  1  2 0.22202492D+03 0.00000000D+00  -5  7  0 0.00000000D+00 0.00000000D+00 0.00000000D+00 0.00000000D+00 0.00000000D+00
  <mgrwgt>
 0.6566698887D-03    5    2    0
 0.233986068145804D+03 0.000000000000000D+00 0.000000000000000D+00 0.233986068145804D+03
 0.233986068145804D+03 0.000000000000000D+00 0.000000000000000D+00 -.233986068145804D+03
 0.174943546468878D+03 -.103273997273092D+03 0.488743393418056D+02 0.105279670107183D+03
 0.271403458130852D+02 -.108741649184225D+02 -.761583664026950D+01 0.236717118191636D+02
 0.119651164117912D+03 0.107843501002519D+03 -.512990133961568D+02 -.738861224263914D+01
 0.146237079891734D+03 0.630466118899569D+01 0.100405106946207D+02 -.121562769683708D+03
 0.000000000000000D+00 0.000000000000000D+00 -.000000000000000D+00 0.000000000000000D+00
 0.382749303096039D+03 0.000000000000000D+00 0.000000000000000D+00 0.382749303096039D+03
 0.358559531632365D+03 0.000000000000000D+00 0.000000000000000D+00 -.358559531632365D+03
 0.233866920162133D+03 -.138642186149869D+03 0.133869547222133D+03 0.105279670107183D+03
 0.286861088035039D+02 -.157039839968623D+02 0.399096284914138D+01 0.236717118191636D+02
 0.903071743715933D+02 0.896789803307581D+02 -.764687118662107D+01 -.738861224263914D+01
 0.165109857028777D+03 -.206314820119310D+02 0.747722134921110D+02 -.121562769683708D+03
 0.223338774362397D+03 0.852986718279040D+02 -.204985852376764D+03 0.241897714636734D+02
0.388159451494D-05 0.000000000000D+00 0.000000000000D+00 0.597916858824D-06 0.000000000000D+00  7 -2 2 24 -13 13 -24 21 0 0.26326946D-01 0.49221269D-01 0.31276991D+05 0.31276991D+05 0.31276991D+05 0.11656599D+01  1  2  2  1  7  1       -2 0.587548878032D-03 0.100000000000D+01
-.195096729066D-06 0.000000000000D+00 -.149063449847D-07 0.597916858824D-06 0.000000000000D+00  7 -2 2 24 -13 13 -24 21 2 0.26326946D-01 0.49221269D-01 0.31276991D+05 0.31276991D+05 0.31276991D+05 0.11656599D+01  1  2  3  1  7  1       -2 -.401261572840D-04 0.100000000000D+01
0.249926334655D-06 0.000000000000D+00 0.000000000000D+00 0.597916858824D-06 0.000000000000D+00  7 -2 2 24 -13 13 -24 21 2 0.26326946D-01 0.49221269D-01 0.31276991D+05 0.31276991D+05 0.31276991D+05 0.11656599D+01  1  2 15  1  7  1       -2 0.514031345467D-04 0.100000000000D+01
0.326127812632D-06 0.000000000000D+00 -.116370825842D-05 0.597916858824D-06 0.000000000000D+00  7 -2 2 24 -13 13 -24 21 2 0.63662373D-01 0.49221269D-01 0.31276991D+05 0.31276991D+05 0.31276991D+05 0.11656599D+01  1  2  5  1  7  1       -2 0.130496276581D-04 0.100000000000D+01
0.104493005585D-06 0.000000000000D+00 -.112542524158D-06 0.597916858824D-06 0.000000000000D+00  7 21 2 24 -13 13 -24 2 2 0.63662373D-01 0.49221269D-01 0.31276991D+05 0.31276991D+05 0.31276991D+05 0.11656599D+01  1  2  5  3  7  1       -2 0.447944057596D-04 0.100000000000D+01
  </mgrwgt>
  </event>
  <event>
  8     66 0.27011060E-05 0.19749201E+03 0.75467711E-02 0.97269139E-01
       -2 -1    0    0    0  501 0.00000000E+00 0.00000000E+00 0.14392528E+03 0.14392564E+03 0.32000000E+00 0.0000E+00 0.9000E+01
        2 -1    0    0  501    0 0.00000000E+00 0.00000000E+00 -.51076568E+03 0.51076578E+03 0.32000000E+00 0.0000E+00 0.9000E+01
       25  2    1    2    0    0 0.77719910E+01 -.88852634E+02 -.55637168E+02 0.31931737E+03 0.30151765E+03 0.0000E+00 0.0000E+00
       23  2    1    2    0    0 -.77719910E+01 0.88852634E+02 -.31120324E+03 0.33537405E+03 0.87596247E+02 0.0000E+00 0.0000E+00
       24  1    3    3    0    0 -.11573397E+03 -.62148752E+02 0.12971949E+02 0.15457137E+03 0.80419002E+02 0.0000E+00 0.9000E+01
      -11  1    4    4    0    0 -.86871868E+01 0.15106978E+02 -.20688808E+03 0.20762072E+03 0.51099893E-03 0.0000E+00 0.9000E+01
       11  1    4    4    0    0 0.91519574E+00 0.73745656E+02 -.10431516E+03 0.12775332E+03 0.51099893E-03 0.0000E+00 0.9000E+01
      -24  1    3    3    0    0 0.12350596E+03 -.26703882E+02 -.68609117E+02 0.16474601E+03 0.80419002E+02 0.0000E+00 0.9000E+01
#aMCatNLO 1  0  0  1  1 0.29065939D+03 0.00000000D+00  -5  7  0 0.00000000D+00 0.00000000D+00 0.00000000D+00 0.00000000D+00 0.00000000D+00
  <mgrwgt>
 0.6582724677D-03    5    2    0
 0.271131412670185D+03 0.000000000000000D+00 0.000000000000000D+00 0.271131412670185D+03
 0.271131412670185D+03 0.000000000000000D+00 0.000000000000000D+00 -.271131412670185D+03
 0.195394514182524D+03 -.115733971341567D+03 -.621487516362696D+02 0.120228868271379D+03
 0.110707569897244D+03 -.868718675930240D+01 0.151069781089079D+02 -.109327389208647D+03
 0.836715842765840D+02 0.915195734897460D+00 0.737456558686202D+02 -.395180297159076D+02
 0.152489156984019D+03 0.123505962365972D+03 -.267038823412585D+02 0.286165506531761D+02
 0.000000000000000D+00 -.000000000000000D+00 -.000000000000000D+00 0.000000000000000D+00
 0.657141614908316D+03 0.000000000000000D+00 0.000000000000000D+00 0.657141614908316D+03
 0.368053031229587D+03 0.000000000000000D+00 0.000000000000000D+00 -.368053031229587D+03
 0.188138664071912D+03 -.115356692736838D+03 0.341583611930585D+02 0.120228868271379D+03
 0.133687622747723D+03 -.844677710894794D+01 0.764758419452191D+02 -.109327389208647D+03
 0.134463649349893D+03 0.112977366778795D+01 0.128520511729931D+03 -.395180297159076D+02
 0.158959484881818D+03 0.123812331972853D+03 0.515024403274303D+02 0.286165506531761D+02
 0.409945225086558D+03 -.113863579485496D+01 -.290657155195638D+03 0.289088583678729D+03
0.518470992616D-05 0.000000000000D+00 0.000000000000D+00 0.128101514609D-07 0.000000000000D+00  7 -2 2 24 -11 11 -24 21 0 0.22142386D-01 0.78579371D-01 0.39003095D+05 0.39003095D+05 0.39003095D+05 0.11569063D+01  1  2  2  1  7  1       -2 0.634202317869D-03 0.100000000000D+01
-.252867773577D-06 0.000000000000D+00 -.199106512819D-07 0.128101514609D-07 0.000000000000D+00  7 -2 2 24 -11 11 -24 21 2 0.22142386D-01 0.78579371D-01 0.39003095D+05 0.39003095D+05 0.39003095D+05 0.11569063D+01  1  2  3  1  7  1       -2 -.413993203590D-04 0.100000000000D+01
0.301974079815D-06 0.000000000000D+00 0.000000000000D+00 0.128101514609D-07 0.000000000000D+00  7 -2 2 24 -11 11 -24 21 2 0.22142386D-01 0.78579371D-01 0.39003095D+05 0.39003095D+05 0.39003095D+05 0.11569063D+01  1  2 15  1  7  1       -2 0.494389676214D-04 0.100000000000D+01
0.156099005363D-07 0.000000000000D+00 -.164140788602D-05 0.128101514609D-07 0.000000000000D+00  7 -2 2 24 -11 11 -24 21 2 0.69619864D-01 0.78579371D-01 0.39003095D+05 0.39003095D+05 0.39003095D+05 0.11569063D+01  1  2  5  1  7  1       -2 0.307102812188D-06 0.100000000000D+01
0.762542935998D-07 0.000000000000D+00 -.215841381583D-06 0.128101514609D-07 0.000000000000D+00  7 21 2 24 -11 11 -24 2 2 0.69619864D-01 0.78579371D-01 0.39003095D+05 0.39003095D+05 0.39003095D+05 0.11569063D+01  1  2  5  3  7  1       -2 0.157233997075D-04 0.100000000000D+01
  </mgrwgt>
  </event>
  <event>
  7     66 0.27011060E-05 0.42653223E+03 0.75467711E-02 0.89698296E-01
       -2 -1    0    0    0  501 0.00000000E+00 0.00000000E+00 0.76757510E+03 0.76757517E+03 0.32000000E+00 0.0000E+00 0.9000E+01
        2 -1    0    0  501    0 0.00000000E+00 0.00000000E+00 -.70568279E+03 0.70568286E+03 0.32000000E+00 0.0000E+00 0.9000E+01
       25  2    1    2    0    0 -.46931628E+03 -.14514057E+03 -.38011821E+03 0.68940647E+03 0.29911181E+03 0.0000E+00 0.0000E+00
       24  1    3    3    0    0 -.26553424E+02 -.80452334E+02 -.11073989E+03 0.16096025E+03 0.80419002E+02 0.0000E+00 0.9000E+01
      -11  1    1    2    0    0 0.45742984E+03 -.32337474E+02 0.25070631E+03 0.52262934E+03 0.51099893E-03 0.0000E+00 0.9000E+01
       11  1    1    2    0    0 0.11886440E+02 0.17747804E+03 0.19130422E+03 0.26122222E+03 0.51099893E-03 0.0000E+00 0.9000E+01
      -24  1    3    3    0    0 -.44276286E+03 -.64688232E+02 -.26937833E+03 0.52844623E+03 0.80419002E+02 0.0000E+00 0.9000E+01
#aMCatNLO 1  0  0  2  1 0.34158540D+03 0.00000000D+00  -5  7  0 0.00000000D+00 0.00000000D+00 0.00000000D+00 0.00000000D+00 0.00000000D+00
  <mgrwgt>
 0.3727025642D-02    7    2    0
 0.735978695504477D+03 0.000000000000000D+00 0.000000000000000D+00 0.735978695504477D+03
 0.735978695504477D+03 0.000000000000000D+00 0.000000000000000D+00 -.735978695504477D+03
 0.165758824773068D+03 -.265534261539351D+02 -.804523350577109D+02 -.117605737015791D+03
 0.512549528853192D+03 0.457429832289341D+03 -.323374585323451D+02 0.228952520918734D+03
 0.253409140688973D+03 0.118864586428378D+02 0.177478028064077D+03 0.180489485123491D+03
 0.540239896693721D+03 -.442762864778243D+03 -.646882344740206D+02 -.291836269026433D+03
 0.000000000000000D+00 -.000000000000000D+00 0.000000000000000D+00 -.000000000000000D+00
 0.794745389943541D+03 0.000000000000000D+00 0.000000000000000D+00 0.794745389943541D+03
 0.149949599741416D+04 0.000000000000000D+00 0.000000000000000D+00 -.149949599741416D+04
 0.178037848466502D+03 0.275979354431360D+01 -.106731128040398D+03 -.117605737015791D+03
 0.610219226237463D+03 0.553160738810846D+03 -.118158555648943D+03 0.228952520918734D+03
 0.234704676316337D+03 0.535046262091569D+02 0.140168062763356D+03 0.180489485123491D+03
 0.488110432553650D+03 -.355082379554382D+03 -.143292268542548D+03 -.291836269026433D+03
 0.783169203783746D+03 -.254342779009934D+03 0.228013889468534D+03 -.704750607470615D+03
0.183951627316D-02 0.000000000000D+00 0.000000000000D+00 0.131022021379D-09 0.000000000000D+00  7 -2 2 24 -11 11 -24 21 0 0.11808849D+00 0.10856659D+00 0.36475010D+06 0.36475010D+06 0.36475010D+06 0.10783278D+01  1  2  2  2  7  2        2 0.507240439937D-02 0.100000000000D+01
-.973379696140D-04 0.000000000000D+00 -.706422684469D-05 0.131022021379D-09 0.000000000000D+00  7 -2 2 24 -11 11 -24 21 2 0.11808849D+00 0.10856659D+00 0.36475010D+06 0.36475010D+06 0.36475010D+06 0.10783278D+01  1  2  3  2  7  2        2 -.312100256669D-03 0.100000000000D+01
0.115240017280D-03 0.000000000000D+00 0.000000000000D+00 0.131022021379D-09 0.000000000000D+00  7 -2 2 24 -11 11 -24 21 2 0.11808849D+00 0.10856659D+00 0.36475010D+06 0.36475010D+06 0.36475010D+06 0.10783278D+01  1  2 15  2  7  2        2 0.369500608182D-03 0.100000000000D+01
0.148971782037D-02 0.000000000000D+00 0.000000000000D+00 0.131022021379D-09 0.000000000000D+00  7 -2 2 24 -11 11 -24 21 2 0.11808849D+00 0.22120898D+00 0.62582472D+06 0.62582472D+06 0.62582472D+06 0.10616883D+01  1  2 12  2  7  2        2 0.157225950456D-02 0.100000000000D+01
-.276585790174D-02 0.000000000000D+00 -.579385207688D-03 0.131022021379D-09 0.000000000000D+00  7 -2 2 24 -11 11 -24 21 2 0.11808849D+00 0.22754281D+00 0.36475010D+06 0.36475010D+06 0.36475010D+06 0.10783278D+01  1  2  5  2  7  2        2 -.294887610679D-02 0.100000000000D+01
0.114663365473D-03 0.000000000000D+00 0.000000000000D+00 0.131022021379D-09 0.000000000000D+00  7 -2 21 24 -11 11 -24 -2 2 0.11808849D+00 0.22120898D+00 0.62582472D+06 0.62582472D+06 0.62582472D+06 0.10616883D+01  1  2 12  4  7  2        2 0.441856029614D-04 0.100000000000D+01
-.185494379676D-03 0.000000000000D+00 -.463659741058D-04 0.131022021379D-09 0.000000000000D+00  7 -2 21 24 -11 11 -24 -2 2 0.11808849D+00 0.22754281D+00 0.36475010D+06 0.36475010D+06 0.36475010D+06 0.10783278D+01  1  2  5  4  7  2        2 -.703481099441D-04 0.100000000000D+01
  </mgrwgt>
  </event>
  <event>
  8     66 0.27011060E-05 0.10121966E+03 0.75467711E-02 0.10056190E+00
       -2 -1    0    0    0  501 0.00000000E+00 0.00000000E+00 0.11794060E+03 0.11794104E+03 0.32000000E+00 0.0000E+00 0.9000E+01
        2 -1    0    0  501    0 0.00000000E+00 0.00000000E+00 -.13854902E+04 0.13854902E+04 0.32000000E+00 0.0000E+00 0.9000E+01
       25  2    1    2    0    0 0.81209579E+02 -.14303826E+03 -.12672905E+04 0.13124921E+04 0.29925772E+03 0.0000E+00 0.0000E+00
       23  2    1    2    0    0 -.81209579E+02 0.14303826E+03 -.25904927E+00 0.19093919E+03 0.96967868E+02 0.0000E+00 0.0000E+00
       24  1    3    3    0    0 0.16156514E+03 -.33670559E+02 -.70054620E+03 0.72420246E+03 0.80419002E+02 0.0000E+00 0.9000E+01
      -11  1    4    4    0    0 -.37293098E+02 0.20043563E+01 0.19125768E+02 0.41959357E+02 0.51099893E-03 0.0000E+00 0.9000E+01
       11  1    4    4    0    0 -.43916480E+02 0.14103391E+03 -.19384817E+02 0.14897984E+03 0.51099893E-03 0.0000E+00 0.9000E+01
      -24  1    3    3    0    0 -.80355557E+02 -.10936770E+03 -.56674432E+03 0.58828959E+03 0.80419002E+02 0.0000E+00 0.9000E+01
#aMCatNLO 1  0  0  1  2 0.76431785D+02 0.00000000D+00  -5  7  0 0.00000000D+00 0.00000000D+00 0.00000000D+00 0.00000000D+00 0.00000000D+00
  <mgrwgt>
 0.6820307886D-03    9    2    0
 0.404234953796767D+03 0.000000000000000D+00 0.000000000000000D+00 0.404234953796767D+03
 0.404234953796767D+03 0.000000000000000D+00 0.000000000000000D+00 -.404234953796767D+03
 0.248384707750471D+03 0.161565135583952D+03 -.336705587051837D+02 -.167304355980758D+03
 0.108013749871835D+03 -.372930983847383D+02 0.200435638267256D+01 0.101351751488234D+03
 0.246650766224694D+03 -.439164803317772D+02 0.141033906842901D+03 0.197528176104386D+03
 0.205420683746535D+03 -.803555568674363D+02 -.109367704520390D+03 -.131575571611862D+03
 0.000000000000000D+00 -.000000000000000D+00 -.000000000000000D+00 0.000000000000000D+00
 0.562512333920032D+03 0.000000000000000D+00 0.000000000000000D+00 0.562512333920032D+03
 0.415370848775372D+03 0.000000000000000D+00 0.000000000000000D+00 -.415370848775372D+03
 0.248956088627697D+03 0.165558854804006D+03 -.105563334676938D+02 -.167304355980758D+03
 0.108081816743491D+03 -.355578194290503D+02 0.120475332866071D+02 0.101351751488234D+03
 0.260182166360630D+03 -.398465378718722D+02 0.164589285060148D+03 0.197528176104386D+03
 0.194854684198882D+03 -.771412872118612D+02 -.907646559084790D+02 -.131575571611862D+03
 0.165808426764703D+03 -.130132102912224D+02 -.753158289705823D+02 0.147141485144660D+03
0.154999723010D-04 0.000000000000D+00 0.000000000000D+00 0.526788843338D-07 0.000000000000D+00  7 -2 2 24 -11 11 -24 21 0 0.18144744D-01 0.21315237D+00 0.69273918D+05 0.69273918D+05 0.69273918D+05 0.11350448D+01  1  2  2  1  7  1       -2 0.703106713274D-03 0.100000000000D+01
-.668345816935D-06 0.000000000000D+00 -.595239748724D-07 0.526788843338D-07 0.000000000000D+00  7 -2 2 24 -11 11 -24 21 2 0.18144744D-01 0.21315237D+00 0.69273918D+05 0.69273918D+05 0.69273918D+05 0.11350448D+01  1  2  3  1  7  1       -2 -.390586781555D-04 0.100000000000D+01
0.888968931701D-06 0.000000000000D+00 0.000000000000D+00 0.526788843338D-07 0.000000000000D+00  7 -2 2 24 -11 11 -24 21 2 0.18144744D-01 0.21315237D+00 0.69273918D+05 0.69273918D+05 0.69273918D+05 0.11350448D+01  1  2 15  1  7  1       -2 0.519520740816D-04 0.100000000000D+01
0.443624653572D-04 0.000000000000D+00 0.000000000000D+00 0.526788843338D-07 0.000000000000D+00  7 -2 2 24 -11 11 -24 21 2 0.25425388D-01 0.21315237D+00 0.93452852D+05 0.93452852D+05 0.93452852D+05 0.11241433D+01  1  2 12  1  7  1       -2 0.144029247058D-02 0.100000000000D+01
-.462939181752D-04 0.000000000000D+00 0.000000000000D+00 0.526788843338D-07 0.000000000000D+00  7 -2 2 24 -11 11 -24 21 2 0.18144744D-01 0.21315237D+00 0.69273918D+05 0.69273918D+05 0.69273918D+05 0.11350448D+01  1  2  4  1  7  1       -2 -.270545457867D-02 0.100000000000D+01
-.498288962153D-04 0.000000000000D+00 -.695858953740D-05 0.526788843338D-07 0.000000000000D+00  7 -2 2 24 -11 11 -24 21 2 0.25786217D-01 0.21315237D+00 0.69273918D+05 0.69273918D+05 0.69273918D+05 0.11350448D+01  1  2  5  1  7  1       -2 -.162269829600D-02 0.100000000000D+01
0.495889138797D-04 0.000000000000D+00 0.654987626770D-05 0.526788843338D-07 0.000000000000D+00  7 -2 2 24 -11 11 -24 21 2 0.18144744D-01 0.21315237D+00 0.69273918D+05 0.69273918D+05 0.69273918D+05 0.11350448D+01  1  2  6  1  7  1       -2 0.289801683235D-02 0.100000000000D+01
0.186627823675D-05 0.000000000000D+00 0.000000000000D+00 0.526788843338D-07 0.000000000000D+00  7 21 2 24 -11 11 -24 2 2 0.25425388D-01 0.21315237D+00 0.93452852D+05 0.93452852D+05 0.93452852D+05 0.11241433D+01  1  2 12  3  7  1       -2 0.743736671868D-03 0.100000000000D+01
-.196102835872D-05 0.000000000000D+00 -.301505891949D-06 0.526788843338D-07 0.000000000000D+00  7 21 2 24 -11 11 -24 2 2 0.25786217D-01 0.21315237D+00 0.69273918D+05 0.69273918D+05 0.69273918D+05 0.11350448D+01  1  2  5  3  7  1       -2 -.787862420735D-03 0.100000000000D+01
  </mgrwgt>
  </event>
  <event>
  8     66 0.27011060E-05 0.24865054E+03 0.75467711E-02 0.98402192E-01
       -2 -1    0    0    0  501 0.00000000E+00 0.00000000E+00 0.36727671E+02 0.36729065E+02 0.32000000E+00 0.0000E+00 0.9000E+01
        2 -1    0    0  501    0 0.00000000E+00 0.00000000E+00 -.53394178E+04 0.53394178E+04 0.32000000E+00 0.0000E+00 0.9000E+01
       25  2    1    2    0    0 -.24101708E+03 0.10735534E+03 -.46279716E+04 0.46451572E+04 0.29958248E+03 0.0000E+00 0.0000E+00
       23  2    1    2    0    0 0.24101708E+03 -.10735534E+03 -.67471853E+03 0.73098970E+03 0.97398387E+02 0.0000E+00 0.0000E+00
       24  1    3    3    0    0 -.17687394E+03 0.18631544E+03 -.30330871E+04 0.30450094E+04 0.80419002E+02 0.0000E+00 0.9000E+01
      -11  1    4    4    0    0 -.11562425E+01 -.10878889E+02 -.91641899E+02 0.92292604E+02 0.51099893E-03 0.0000E+00 0.9000E+01
       11  1    4    4    0    0 0.24217332E+03 -.96476452E+02 -.58307663E+03 0.63869710E+03 0.51099893E-03 0.0000E+00 0.9000E+01
      -24  1    3    3    0    0 -.64143131E+02 -.78960096E+02 -.15948845E+04 0.16001477E+04 0.80419002E+02 0.0000E+00 0.9000E+01
#aMCatNLO 1  0  0  2  1 0.56292910D+02 0.00000000D+00  -5  7  0 0.00000000D+00 0.00000000D+00 0.00000000D+00 0.00000000D+00 0.00000000D+00
  <mgrwgt>
 0.1368377800D-03    9    2    0
 0.442841002765389D+03 0.000000000000000D+00 0.000000000000000D+00 0.442841002765389D+03
 0.442841002765389D+03 0.000000000000000D+00 0.000000000000000D+00 -.442841002765389D+03
 0.323927643776023D+03 -.176873944584083D+03 0.186315436009569D+03 -.180177880106706D+03
 0.115504229475205D+02 -.115624247718085D+01 -.108788886982607D+02 -.370474753410105D+01
 0.385979047570583D+03 0.242173318549146D+03 -.964764515727827D+02 0.284647506994727D+03
 0.164224891236650D+03 -.641431314878820D+02 -.789600957385261D+02 -.100764879353920D+03
 0.000000000000000D+00 0.000000000000000D+00 0.000000000000000D+00 -.000000000000000D+00
 0.466667766984991D+03 0.000000000000000D+00 0.000000000000000D+00 0.466667766984991D+03
 0.478279402117939D+03 0.000000000000000D+00 0.000000000000000D+00 -.478279402117939D+03
 0.329034467844691D+03 -.195230674231865D+03 0.176684409144364D+03 -.180177880106706D+03
 0.119600517216049D+02 -.181719266052451D+01 -.112256622845413D+02 -.370474753410105D+01
 0.375976585331251D+03 0.220752453068809D+03 -.107715105454794D+03 0.284647506994727D+03
 0.170498053213401D+03 -.735532006003582D+02 -.838971749549568D+02 -.100764879353920D+03
 0.574780109919827D+02 0.498486144239390D+02 0.261535335499286D+02 -.116116351329480D+02
0.239312571211D-03 0.000000000000D+00 0.000000000000D+00 0.150835031165D-06 0.000000000000D+00  7 -2 2 24 -11 11 -24 21 0 0.56505189D-02 0.82144900D+00 0.11239055D+06 0.11239055D+06 0.11239055D+06 0.11175827D+01  1  2  2  2  7  2        2 0.512400112853D-04 0.100000000000D+01
-.120427635361D-04 0.000000000000D+00 -.919023285896D-06 0.150835031165D-06 0.000000000000D+00  7 -2 2 24 -11 11 -24 21 2 0.56505189D-02 0.82144900D+00 0.11239055D+06 0.11239055D+06 0.11239055D+06 0.11175827D+01  1  2  3  2  7  2        2 -.322054375563D-05 0.100000000000D+01
0.151640493901D-04 0.000000000000D+00 0.000000000000D+00 0.150835031165D-06 0.000000000000D+00  7 -2 2 24 -11 11 -24 21 2 0.56505189D-02 0.82144900D+00 0.11239055D+06 0.11239055D+06 0.11239055D+06 0.11175827D+01  1  2 15  2  7  2        2 0.405525562526D-05 0.100000000000D+01
0.119451720046D-03 0.000000000000D+00 0.000000000000D+00 0.150835031165D-06 0.000000000000D+00  7 -2 2 24 -11 11 -24 21 2 0.56505189D-02 0.90780412D+00 0.13182263D+06 0.13182263D+06 0.13182263D+06 0.11120065D+01  1  2 12  2  7  2        2 0.188293209457D-05 0.100000000000D+01
-.132239112629D-03 0.000000000000D+00 0.000000000000D+00 0.150835031165D-06 0.000000000000D+00  7 -2 2 24 -11 11 -24 21 2 0.56505189D-02 0.82144900D+00 0.11239055D+06 0.11239055D+06 0.11239055D+06 0.11175827D+01  1  2  4  2  7  2        2 -.353641294335D-04 0.100000000000D+01
-.402764966621D-03 0.000000000000D+00 -.800391858824D-04 0.150835031165D-06 0.000000000000D+00  7 -2 2 24 -11 11 -24 21 2 0.56505189D-02 0.88988915D+00 0.11239055D+06 0.11239055D+06 0.11239055D+06 0.11175827D+01  1  2  5  2  7  2        2 -.136193062806D-04 0.100000000000D+01
0.493086497462D-03 0.000000000000D+00 0.115171175528D-03 0.150835031165D-06 0.000000000000D+00  7 -2 2 24 -11 11 -24 21 2 0.56505189D-02 0.82144900D+00 0.11239055D+06 0.11239055D+06 0.11239055D+06 0.11175827D+01  1  2  6  2  7  2        2 0.131863972553D-03 0.100000000000D+01
0.193947952615D-05 0.000000000000D+00 0.000000000000D+00 0.150835031165D-06 0.000000000000D+00  7 -2 21 24 -11 11 -24 -2 2 0.56505189D-02 0.90780412D+00 0.13182263D+06 0.13182263D+06 0.13182263D+06 0.11120065D+01  1  2 12  4  7  2        2 0.735952872816D-10 0.100000000000D+01
-.520775433134D-05 0.000000000000D+00 -.106939648070D-05 0.150835031165D-06 0.000000000000D+00  7 -2 21 24 -11 11 -24 -2 2 0.56505189D-02 0.88988915D+00 0.11239055D+06 0.11239055D+06 0.11239055D+06 0.11175827D+01  1  2  5  4  7  2        2 -.485641584655D-09 0.100000000000D+01
  </mgrwgt>
  </event>
  <event>
  8     66 0.27011060E-05 0.78087372E+02 0.75467711E-02 0.11150221E+00
       -2 -1    0    0    0  501 0.00000000E+00 0.00000000E+00 0.14501055E+03 0.14501091E+03 0.32000000E+00 0.0000E+00 0.9000E+01
        2 -1    0    0  501    0 0.00000000E+00 0.00000000E+00 -.28493059E+03 0.28493077E+03 0.32000000E+00 0.0000E+00 0.9000E+01
       25  2    1    2    0    0 0.23943312E+02 -.38770189E+02 -.10189250E+03 0.32018434E+03 0.30009919E+03 0.0000E+00 0.0000E+00
       23  2    1    2    0    0 -.23943312E+02 0.38770189E+02 -.38027541E+02 0.10975733E+03 0.92326422E+02 0.0000E+00 0.0000E+00
       24  1    3    3    0    0 0.57312162E+02 -.64942233E+02 -.16967450E+03 0.20678208E+03 0.80419002E+02 0.0000E+00 0.9000E+01
      -13  1    4    4    0    0 -.36605452E+02 0.27469184E+02 0.19523149E+02 0.49756202E+02 0.10565837E+00 0.0000E+00 0.9000E+01
       13  1    4    4    0    0 0.12662140E+02 0.11301005E+02 -.57550690E+02 0.60001129E+02 0.10565837E+00 0.0000E+00 0.9000E+01
      -24  1    3    3    0    0 -.33368850E+02 0.26172045E+02 0.67782006E+02 0.11340226E+03 0.80419002E+02 0.0000E+00 0.9000E+01
#aMCatNLO 1  0  0  2  1 0.12454508D+02 0.00000000D+00  -5  7  0 0.00000000D+00 0.00000000D+00 0.00000000D+00 0.00000000D+00 0.00000000D+00
  <mgrwgt>
 0.9761937848D-03    9    2    0
 0.203268435405868D+03 0.000000000000000D+00 0.000000000000000D+00 0.203268435405868D+03
 0.203268435405868D+03 0.000000000000000D+00 0.000000000000000D+00 -.203268435405868D+03
 0.160288956018759D+03 0.573122108608569D+02 -.649423337560865D+02 -.108273437369315D+03
 0.593402483548785D+02 -.366056043704055D+02 0.274693521746653D+02 0.377720729455006D+02
 0.436479145615069D+02 0.126621336122286D+02 0.113010937862616D+02 -.402131333918260D+02
 0.143259751876591D+03 -.333687401026800D+02 0.261718877951596D+02 0.110714497815640D+03
 0.000000000000000D+00 0.000000000000000D+00 0.000000000000000D+00 -.000000000000000D+00
 0.205645842156499D+03 0.000000000000000D+00 0.000000000000000D+00 0.205645842156499D+03
 0.220356784450718D+03 0.000000000000000D+00 0.000000000000000D+00 -.220356784450718D+03
 0.161394371847948D+03 0.551738575413986D+02 -.693803683620796D+02 -.108273437369315D+03
 0.590967380151996D+02 -.373929007610224D+02 0.258353618537317D+02 0.377720729455006D+02
 0.431881134107608D+02 0.120849009968659D+02 0.101030792676242D+02 -.402131333918260D+02
 0.143048378551389D+03 -.352719408223091D+02 0.222218994658203D+02 0.110714497815640D+03
 0.192750247819192D+02 0.540608304506705D+01 0.112200277749034D+02 -.147109422942187D+02
0.333540229827D-05 0.000000000000D+00 0.000000000000D+00 0.297875567712D-06 0.000000000000D+00  7 -2 2 24 -13 13 -24 21 0 0.22309357D-01 0.43835516D-01 0.18475047D+05 0.18475047D+05 0.18475047D+05 0.11873888D+01  1  2  2  2  7  2        2 0.747410814800D-03 0.100000000000D+01
-.148811460504D-06 0.000000000000D+00 -.128088230569D-07 0.297875567712D-06 0.000000000000D+00  7 -2 2 24 -13 13 -24 21 2 0.22309357D-01 0.43835516D-01 0.18475047D+05 0.18475047D+05 0.18475047D+05 0.11873888D+01  1  2  3  2  7  2        2 -.470146753479D-04 0.100000000000D+01
0.210993789312D-06 0.000000000000D+00 0.000000000000D+00 0.297875567712D-06 0.000000000000D+00  7 -2 2 24 -13 13 -24 21 2 0.22309357D-01 0.43835516D-01 0.18475047D+05 0.18475047D+05 0.18475047D+05 0.11873888D+01  1  2 15  2  7  2        2 0.666602187177D-04 0.100000000000D+01
0.222956153741D-04 0.000000000000D+00 0.000000000000D+00 0.297875567712D-06 0.000000000000D+00  7 -2 2 24 -13 13 -24 21 2 0.22309357D-01 0.47763661D-01 0.20153421D+05 0.20153421D+05 0.20153421D+05 0.11837137D+01  1  2 12  2  7  2        2 0.639811025865D-02 0.100000000000D+01
-.227148714838D-04 0.000000000000D+00 0.000000000000D+00 0.297875567712D-06 0.000000000000D+00  7 -2 2 24 -13 13 -24 21 2 0.22309357D-01 0.43835516D-01 0.18475047D+05 0.18475047D+05 0.18475047D+05 0.11873888D+01  1  2  4  2  7  2        2 -.717641171426D-02 0.100000000000D+01
-.393274708274D-04 0.000000000000D+00 -.538419949445D-05 0.297875567712D-06 0.000000000000D+00  7 -2 2 24 -13 13 -24 21 2 0.22309357D-01 0.47928523D-01 0.18475047D+05 0.18475047D+05 0.18475047D+05 0.11873888D+01  1  2  5  2  7  2        2 -.112979778402D-01 0.100000000000D+01
0.396713147675D-04 0.000000000000D+00 0.536281850119D-05 0.297875567712D-06 0.000000000000D+00  7 -2 2 24 -13 13 -24 21 2 0.22309357D-01 0.43835516D-01 0.18475047D+05 0.18475047D+05 0.18475047D+05 0.11873888D+01  1  2  6  2  7  2        2 0.125335372565D-01 0.100000000000D+01
0.322553133849D-06 0.000000000000D+00 0.000000000000D+00 0.297875567712D-06 0.000000000000D+00  7 -2 21 24 -13 13 -24 -2 2 0.22309357D-01 0.47763661D-01 0.20153421D+05 0.20153421D+05 0.20153421D+05 0.11837137D+01  1  2 12  4  7  2        2 0.330738810248D-03 0.100000000000D+01
-.564303203451D-06 0.000000000000D+00 -.792218141716D-07 0.297875567712D-06 0.000000000000D+00  7 -2 21 24 -13 13 -24 -2 2 0.22309357D-01 0.47928523D-01 0.18475047D+05 0.18475047D+05 0.18475047D+05 0.11873888D+01  1  2  5  4  7  2        2 -.578859344326D-03 0.100000000000D+01
  </mgrwgt>
  </event>
  <event>
  8     66 0.27011060E-05 0.55836789E+03 0.75467711E-02 0.87792391E-01
       -2 -1    0    0    0  501 0.00000000E+00 0.00000000E+00 0.38341935E+03 0.38341949E+03 0.32000000E+00 0.0000E+00 0.9000E+01
        2 -1    0    0  501    0 0.00000000E+00 0.00000000E+00 -.24622347E+04 0.24622347E+04 0.32000000E+00 0.0000E+00 0.9000E+01
       25  2    1    2    0    0 -.70887970E+03 -.60908095E+03 -.84530584E+03 0.12954282E+04 0.30017038E+03 0.0000E+00 0.0000E+00
       23  2    1    2    0    0 0.70887970E+03 0.60908095E+03 -.12335095E+04 0.15502259E+04 0.90359765E+02 0.0000E+00 0.0000E+00
       24  1    3    3    0    0 -.31919847E+03 -.38339977E+03 -.31664606E+03 0.59633463E+03 0.80419002E+02 0.0000E+00 0.9000E+01
      -11  1    4    4    0    0 0.76941259E+01 0.15252494E+01 -.27716104E+02 0.28804659E+02 0.51099893E-03 0.0000E+00 0.9000E+01
       11  1    4    4    0    0 0.70118557E+03 0.60755570E+03 -.12057934E+04 0.15214213E+04 0.51099893E-03 0.0000E+00 0.9000E+01
      -24  1    3    3    0    0 -.38968123E+03 -.22568118E+03 -.52865979E+03 0.69909358E+03 0.80419002E+02 0.0000E+00 0.9000E+01
#aMCatNLO 1  0  0  2  1 0.17685842D+02 0.00000000D+00  -5  7  0 0.00000000D+00 0.00000000D+00 0.00000000D+00 0.00000000D+00 0.00000000D+00
  <mgrwgt>
 0.3240511541D-02    9    2    0
 0.971631945728356D+03 0.000000000000000D+00 0.000000000000000D+00 0.971631945728356D+03
 0.971631945728356D+03 0.000000000000000D+00 0.000000000000000D+00 -.971631945728356D+03
 0.534520018032473D+03 -.319198470217921D+03 -.383399771368716D+03 0.174245188306650D+03
 0.125312043011454D+02 0.769412585896387D+01 0.152524941444622D+01 -.977267224085623D+01
 0.938018331863903D+03 0.701185571242975D+03 0.607555698496555D+03 -.138178358717149D+03
 0.458194337259191D+03 -.389681226884018D+03 -.225681176542285D+03 -.262941573486454D+02
 0.000000000000000D+00 -.000000000000000D+00 0.000000000000000D+00 -.000000000000000D+00
 0.973780483837922D+03 0.000000000000000D+00 0.000000000000000D+00 0.973780483837922D+03
 0.100876239889602D+04 0.000000000000000D+00 0.000000000000000D+00 -.100876239889602D+04
 0.534011319797913D+03 -.315123601381865D+03 -.386052592171120D+03 0.174245188306650D+03
 0.125828343700005D+02 0.778989882313012D+01 0.146289930653598D+01 -.977267224085623D+01
 0.940388469891628D+03 0.708348918790133D+03 0.602892216516520D+03 -.138178358717149D+03
 0.456361746053498D+03 -.386193546222931D+03 -.227951726143295D+03 -.262941573486454D+02
 0.391985126209042D+02 -.148216700084663D+02 0.964920249135931D+01 -.349819150580991D+02
0.554573863323D-03 0.000000000000D+00 0.000000000000D+00 0.176616151901D-04 0.000000000000D+00  7 -2 2 24 -11 11 -24 21 0 0.58987605D-01 0.37880534D+00 0.90097125D+06 0.90097125D+06 0.90097125D+06 0.10508921D+01  1  2  2  2  7  2        2 0.670583304016D-03 0.100000000000D+01
-.307892126771D-04 0.000000000000D+00 -.212970965781D-05 0.176616151901D-04 0.000000000000D+00  7 -2 2 24 -11 11 -24 21 2 0.58987605D-01 0.37880534D+00 0.90097125D+06 0.90097125D+06 0.90097125D+06 0.10508921D+01  1  2  3  2  7  2        2 -.411157436869D-04 0.100000000000D+01
0.349045340104D-04 0.000000000000D+00 0.000000000000D+00 0.176616151901D-04 0.000000000000D+00  7 -2 2 24 -11 11 -24 21 2 0.58987605D-01 0.37880534D+00 0.90097125D+06 0.90097125D+06 0.90097125D+06 0.10508921D+01  1  2 15  2  7  2        2 0.466113209497D-04 0.100000000000D+01
0.352814153867D-02 0.000000000000D+00 0.000000000000D+00 0.176616151901D-04 0.000000000000D+00  7 -2 2 24 -11 11 -24 21 2 0.58987605D-01 0.39369114D+00 0.91793706D+06 0.91793706D+06 0.91793706D+06 0.10503484D+01  1  2 12  2  7  2        2 0.412207455292D-02 0.100000000000D+01
-.358218635134D-02 0.000000000000D+00 0.000000000000D+00 0.176616151901D-04 0.000000000000D+00  7 -2 2 24 -11 11 -24 21 2 0.58987605D-01 0.37880534D+00 0.90097125D+06 0.90097125D+06 0.90097125D+06 0.10508921D+01  1  2  4  2  7  2        2 -.478363176756D-02 0.100000000000D+01
-.195332282805D-01 0.000000000000D+00 -.132148847730D-02 0.176616151901D-04 0.000000000000D+00  7 -2 2 24 -11 11 -24 21 2 0.58987605D-01 0.39354881D+00 0.90097125D+06 0.90097125D+06 0.90097125D+06 0.10508921D+01  1  2  5  2  7  2        2 -.229022895012D-01 0.100000000000D+01
0.195703812146D-01 0.000000000000D+00 0.132052575454D-02 0.176616151901D-04 0.000000000000D+00  7 -2 2 24 -11 11 -24 21 2 0.58987605D-01 0.37880534D+00 0.90097125D+06 0.90097125D+06 0.90097125D+06 0.10508921D+01  1  2  6  2  7  2        2 0.261341784316D-01 0.100000000000D+01
0.833441914892D-04 0.000000000000D+00 0.000000000000D+00 0.176616151901D-04 0.000000000000D+00  7 -2 21 24 -11 11 -24 -2 2 0.58987605D-01 0.39369114D+00 0.91793706D+06 0.91793706D+06 0.91793706D+06 0.10503484D+01  1  2 12  4  7  2        2 0.100633340279D-04 0.100000000000D+01
-.131482043864D-03 0.000000000000D+00 -.894177958204D-05 0.176616151901D-04 0.000000000000D+00  7 -2 21 24 -11 11 -24 -2 2 0.58987605D-01 0.39354881D+00 0.90097125D+06 0.90097125D+06 0.90097125D+06 0.10508921D+01  1  2  5  4  7  2        2 -.159623900077D-04 0.100000000000D+01
  </mgrwgt>
  </event>
  <event>
  8     66 -.27011060E-05 0.21709409E+03 0.75467711E-02 0.10482126E+00
       -2 -1    0    0    0  501 0.00000000E+00 0.00000000E+00 0.47851269E+03 0.47851280E+03 0.32000000E+00 0.0000E+00 0.9000E+01
        2 -1    0    0  502    0 0.00000000E+00 0.00000000E+00 -.11376496E+03 0.11376541E+03 0.32000000E+00 0.0000E+00 0.9000E+01
       25  2    1    2    0    0 0.21682436E+02 0.13166883E+02 0.15946989E+03 0.34113430E+03 0.30049703E+03 0.0000E+00 0.0000E+00
       24  1    3    3    0    0 -.11100465E+03 0.40467137E+02 0.61314451E+02 0.15551945E+03 0.80419002E+02 0.0000E+00 0.9000E+01
      -13  1    1    2    0    0 0.43000926E+02 0.24903723E+02 0.72905530E+02 0.88229828E+02 0.10565837E+00 0.0000E+00 0.9000E+01
       13  1    1    2    0    0 -.69881401E+02 -.47132035E+02 0.12086764E+03 0.14735615E+03 0.10565837E+00 0.0000E+00 0.9000E+01
      -24  1    3    3    0    0 0.13268708E+03 -.27300254E+02 0.98155441E+02 0.18561485E+03 0.80419002E+02 0.0000E+00 0.9000E+01
       21  1    1    2  502  501 0.51980386E+01 0.90614290E+01 0.11504673E+02 0.15557927E+02 0.75000000E+00 0.0000E+00 0.9000E+01
#aMCatNLO 2  0  0  2  1 0.10446487D+02 0.00000000D+00  -5  7  0 0.00000000D+00 0.00000000D+00 0.00000000D+00 0.00000000D+00 0.00000000D+00
  <mgrwgt>
 -.1867169041D-03    3    2    0
 0.227879623527216D+03 0.000000000000000D+00 0.000000000000000D+00 0.227879623527216D+03
 0.227879623527216D+03 0.000000000000000D+00 0.000000000000000D+00 -.227879623527216D+03
 0.148814201333649D+03 -.109289803624902D+03 0.434414336375265D+02 -.429771012441270D+02
 0.560932121810262D+02 0.435937187106486D+02 0.259817946169746D+02 0.238952399076431D+02
 0.910629799909146D+02 -.688237923898229D+02 -.453017759392695D+02 0.387750051277432D+02
 0.159788853548843D+03 0.134519877304076D+03 -.241214523152317D+02 -.196931437912593D+02
 0.000000000000000D+00 0.000000000000000D+00 0.000000000000000D+00 0.000000000000000D+00
 0.234559516620858D+03 0.000000000000000D+00 0.000000000000000D+00 0.234559516620858D+03
 0.232060641655306D+03 0.000000000000000D+00 0.000000000000000D+00 -.232060641655306D+03
 0.149236058259464D+03 -.110989246188395D+03 0.404788973372002D+02 -.429771012441270D+02
 0.550941775015815D+02 0.429597431428761D+02 0.248766230310719D+02 0.238952399076431D+02
 0.927725413450921D+02 -.698719978504279D+02 -.471290496547523D+02 0.387750051277432D+02
 0.158776176538860D+03 0.132703462273570D+03 -.272878997021179D+02 -.196931437912593D+02
 0.107412046311662D+02 0.519803862237668D+01 0.906142898859819D+01 0.249887496555130D+01
-.400048645869D-05 0.000000000000D+00 0.000000000000D+00 0.492948086334D-09 0.000000000000D+00  7 -2 2 24 -13 13 -24 21 2 0.71516857D-01 0.17747389D-01 0.49469284D+05 0.49469284D+05 0.49469284D+05 0.11477032D+01  1  2 13  2  7  2        2 -.381773167691D-03 0.100000000000D+01
-.336590483934D-05 0.000000000000D+00 0.000000000000D+00 0.492948086334D-09 0.000000000000D+00  7 -2 2 24 -13 13 -24 21 2 0.71516857D-01 0.17186041D-01 0.47129843D+05 0.47129843D+05 0.47129843D+05 0.11495605D+01  1  2  8  2  7  2        2 -.334804213910D-03 0.100000000000D+01
0.581024176844D-05 0.000000000000D+00 0.000000000000D+00 0.492948086334D-09 0.317627592647D-10  7 -2 2 24 -13 13 -24 21 2 0.73613249D-01 0.17501362D-01 0.49469284D+05 0.49469284D+05 0.49469284D+05 0.11477032D+01  1  2  1  2  7  2        2 0.529860477499D-03 0.100000000000D+01
  </mgrwgt>
  </event>
  <event>
  8     66 0.27011060E-05 0.83901933E+02 0.75467711E-02 0.10560961E+00
       -2 -1    0    0    0  501 0.00000000E+00 0.00000000E+00 0.56208755E+02 0.56209666E+02 0.32000000E+00 0.0000E+00 0.9000E+01
        2 -1    0    0  501    0 0.00000000E+00 0.00000000E+00 -.79536166E+03 0.79536172E+03 0.32000000E+00 0.0000E+00 0.9000E+01
       25  2    1    2    0    0 -.11484047E+02 -.62579443E+02 -.49525896E+03 0.58232492E+03 0.29962109E+03 0.0000E+00 0.0000E+00
       23  2    1    2    0    0 0.11484047E+02 0.62579443E+02 -.24389394E+03 0.26924647E+03 0.94664353E+02 0.0000E+00 0.0000E+00
       24  1    3    3    0    0 -.25331365E+02 0.87716454E+02 -.29422270E+03 0.31838667E+03 0.80419002E+02 0.0000E+00 0.9000E+01
      -13  1    4    4    0    0 -.27078657E+01 0.80556570E+02 -.22671242E+03 0.24061426E+03 0.10565837E+00 0.0000E+00 0.9000E+01
       13  1    4    4    0    0 0.14191913E+02 -.17977127E+02 -.17181523E+02 0.28632208E+02 0.10565837E+00 0.0000E+00 0.9000E+01
      -24  1    3    3    0    0 0.13847319E+02 -.15029590E+03 -.20103626E+03 0.26393825E+03 0.80419002E+02 0.0000E+00 0.9000E+01
#aMCatNLO 1  0  0  1  2 0.23599597D+02 0.00000000D+00  -5  7  0 0.00000000D+00 0.00000000D+00 0.00000000D+00 0.00000000D+00 0.00000000D+00
  <mgrwgt>
 0.2708350144D-02    9    2    0
 0.211439598719612D+03 0.000000000000000D+00 0.000000000000000D+00 0.211439598719612D+03
 0.211439598719612D+03 0.000000000000000D+00 0.000000000000000D+00 -.211439598719612D+03
 0.126875725096034D+03 -.253315429008281D+02 0.877154874372561D+02 -.359797145928361D+02
 0.882651103361901D+02 -.270726568895776D+01 0.805576299126787D+02 -.359703861252713D+02
 0.276248416427761D+02 0.141917417848208D+02 -.179758473548786D+02 0.154465288260998D+02
 0.180113520364224D+03 0.138470668049651D+02 -.150297269995056D+03 0.565035718920076D+02
 0.000000000000000D+00 -.000000000000000D+00 -.000000000000000D+00 0.000000000000000D+00
 0.228905421140070D+03 0.000000000000000D+00 0.000000000000000D+00 0.228905421140070D+03
 0.219893514098072D+03 0.000000000000000D+00 0.000000000000000D+00 -.219893514098072D+03
 0.127363704698280D+03 -.186444437534884D+02 0.900674312670297D+02 -.359797145928361D+02
 0.897515457140350D+02 0.197499398197058D+01 0.822044443982720D+02 -.359703861252713D+02
 0.280821151514030D+02 0.156569666855399D+02 -.174605078050160D+02 0.154465288260998D+02
 0.178339830694864D+03 0.232752389030836D+02 -.146981253482719D+03 0.565035718920076D+02
 0.252617389795607D+02 -.222627558171056D+02 -.783011437756658D+01 0.901190704199788D+01
0.825677821007D-05 0.000000000000D+00 0.000000000000D+00 0.313470644913D-07 0.000000000000D+00  7 -2 2 24 -13 13 -24 21 0 0.86475758D-02 0.12236341D+00 0.39242463D+05 0.39242463D+05 0.39242463D+05 0.11566666D+01  1  2  2  1  7  1       -2 0.265750862574D-02 0.100000000000D+01
-.456340298646D-06 0.000000000000D+00 -.317082023863D-07 0.313470644913D-07 0.000000000000D+00  7 -2 2 24 -13 13 -24 21 2 0.86475758D-02 0.12236341D+00 0.39242463D+05 0.39242463D+05 0.39242463D+05 0.11566666D+01  1  2  3  1  7  1       -2 -.196503026694D-03 0.100000000000D+01
0.496448343006D-06 0.000000000000D+00 0.000000000000D+00 0.313470644913D-07 0.000000000000D+00  7 -2 2 24 -13 13 -24 21 2 0.86475758D-02 0.12236341D+00 0.39242463D+05 0.39242463D+05 0.39242463D+05 0.11566666D+01  1  2 15  1  7  1       -2 0.213773804959D-03 0.100000000000D+01
0.166310043785D-04 0.000000000000D+00 0.000000000000D+00 0.313470644913D-07 0.000000000000D+00  7 -2 2 24 -13 13 -24 21 2 0.95238975D-02 0.12236341D+00 0.44227809D+05 0.44227809D+05 0.44227809D+05 0.11520111D+01  1  2 12  1  7  1       -2 0.614655694543D-02 0.100000000000D+01
-.156854836580D-04 0.000000000000D+00 0.000000000000D+00 0.313470644913D-07 0.000000000000D+00  7 -2 2 24 -13 13 -24 21 2 0.86475758D-02 0.12236341D+00 0.39242463D+05 0.39242463D+05 0.39242463D+05 0.11566666D+01  1  2  4  1  7  1       -2 -.675426874003D-02 0.100000000000D+01
-.465803389025D-04 0.000000000000D+00 -.941326933304D-05 0.313470644913D-07 0.000000000000D+00  7 -2 2 24 -13 13 -24 21 2 0.97347677D-02 0.12236341D+00 0.39242463D+05 0.39242463D+05 0.39242463D+05 0.11566666D+01  1  2  5  1  7  1       -2 -.167614017727D-01 0.100000000000D+01
0.474277649174D-04 0.000000000000D+00 0.934764503692D-05 0.313470644913D-07 0.000000000000D+00  7 -2 2 24 -13 13 -24 21 2 0.86475758D-02 0.12236341D+00 0.39242463D+05 0.39242463D+05 0.39242463D+05 0.11566666D+01  1  2  6  1  7  1       -2 0.204226963590D-01 0.100000000000D+01
0.261978309296D-06 0.000000000000D+00 0.000000000000D+00 0.313470644913D-07 0.000000000000D+00  7 21 2 24 -13 13 -24 2 2 0.95238975D-02 0.12236341D+00 0.44227809D+05 0.44227809D+05 0.44227809D+05 0.11520111D+01  1  2 12  3  7  1       -2 0.144731601443D-02 0.100000000000D+01
-.831538901767D-06 0.000000000000D+00 -.176629680366D-06 0.313470644913D-07 0.000000000000D+00  7 21 2 24 -13 13 -24 2 2 0.97347677D-02 0.12236341D+00 0.39242463D+05 0.39242463D+05 0.39242463D+05 0.11566666D+01  1  2  5  3  7  1       -2 -.446732806616D-02 0.100000000000D+01
  </mgrwgt>
  </event>
  <event>
  9     66 -.27011060E-05 0.28329859E+03 0.75467711E-02 0.10124647E+00
       -2 -1    0    0    0  501 0.00000000E+00 0.00000000E+00 0.11256538E+04 0.11256538E+04 0.32000000E+00 0.0000E+00 0.9000E+01
        2 -1    0    0  502    0 0.00000000E+00 0.00000000E+00 -.12622472E+03 0.12622513E+03 0.32000000E+00 0.0000E+00 0.9000E+01
       25  2    1    2    0    0 -.75497257E+02 -.23140506E+03 0.85839558E+03 0.94097799E+03 0.29891215E+03 0.0000E+00 0.0000E+00
       23  2    1    2    0    0 0.88546842E+02 0.23283181E+03 0.13760190E+03 0.29731180E+03 0.86074523E+02 0.0000E+00 0.0000E+00
       24  1    3    3    0    0 -.24466921E+01 -.14087389E+03 0.73686756E+03 0.75451471E+03 0.80419002E+02 0.0000E+00 0.9000E+01
      -13  1    4    4    0    0 0.37558109E+02 0.16843533E+02 0.28120982E+02 0.49850947E+02 0.10565837E+00 0.0000E+00 0.9000E+01
       13  1    4    4    0    0 0.50988734E+02 0.21598828E+03 0.10948092E+03 0.24746085E+03 0.10565837E+00 0.0000E+00 0.9000E+01
      -24  1    3    3    0    0 -.73050565E+02 -.90531170E+02 0.12152802E+03 0.18646328E+03 0.80419002E+02 0.0000E+00 0.9000E+01
       21  1    1    2  502  501 -.13049585E+02 -.14267540E+01 0.34315751E+01 0.13589169E+02 0.75000000E+00 0.0000E+00 0.9000E+01
#aMCatNLO 2  0  0  2  1 0.13127349D+02 0.00000000D+00  -5  7  0 0.00000000D+00 0.00000000D+00 0.00000000D+00 0.00000000D+00 0.00000000D+00
  <mgrwgt>
 -.3677189067D-03    3    2    0
 0.367824104525157D+03 0.000000000000000D+00 0.000000000000000D+00 0.367824104525157D+03
 0.367824104525157D+03 0.000000000000000D+00 0.000000000000000D+00 -.367824104525157D+03
 0.272715342503882D+03 -.728078299714863D+01 -.141402417631997D+03 0.218766516106587D+03
 0.451399126823901D+02 0.367512861095895D+02 0.167550224833214D+02 -.201549970937306D+02
 0.266992051116533D+03 0.462416297604002D+02 0.215469563552453D+03 -.150729340936099D+03
 0.150800902747509D+03 -.757121328728411D+02 -.908221684037774D+02 -.478821780767579D+02
 0.000000000000000D+00 -.000000000000000D+00 -.000000000000000D+00 -.000000000000000D+00
 0.370677504659257D+03 0.000000000000000D+00 0.000000000000000D+00 0.370677504659257D+03
 0.383297426848141D+03 0.000000000000000D+00 0.000000000000000D+00 -.383297426848141D+03
 0.272355363244610D+03 -.244669220881295D+01 -.140873890631141D+03 0.218766516106587D+03
 0.458315217577948D+02 0.375580881787359D+02 0.168432327997101D+02 -.201549970937306D+02
 0.268272724938052D+03 0.509887543003126D+02 0.215988582248135D+03 -.150729340936099D+03
 0.149305715947954D+03 -.730505650695189D+02 -.905311704663658D+02 -.478821780767579D+02
 0.182096056189872D+02 -.130495852007167D+02 -.142675395033887D+01 -.126199221888837D+02
-.412833856359D-03 0.000000000000D+00 0.000000000000D+00 0.290856510174D-07 0.000000000000D+00  7 -2 2 24 -13 13 -24 21 2 0.17184089D+00 0.19489227D-01 0.84060734D+05 0.84060734D+05 0.84060734D+05 0.11279631D+01  1  2 13  2  7  2        2 -.387594224299D-02 0.100000000000D+01
-.501372724201D-03 0.000000000000D+00 0.000000000000D+00 0.290856510174D-07 0.000000000000D+00  7 -2 2 24 -13 13 -24 21 2 0.17184089D+00 0.18634903D-01 0.80258092D+05 0.80258092D+05 0.80258092D+05 0.11296451D+01  1  2  8  2  7  2        2 -.498482955835D-02 0.100000000000D+01
0.920950199644D-03 0.000000000000D+00 0.000000000000D+00 0.290856510174D-07 0.114608640216D-08  7 -2 2 24 -13 13 -24 21 2 0.17317395D+00 0.19418821D-01 0.84060734D+05 0.84060734D+05 0.84060734D+05 0.11279631D+01  1  2  1  2  7  2        2 0.849305289464D-02 0.100000000000D+01
  </mgrwgt>
  </event>
  <event>
  9     66 0.27011060E-05 0.26356404E+03 0.75467711E-02 0.10196881E+00
       21 -1    0    0  502  501 0.00000000E+00 0.00000000E+00 0.67985595E+02 0.67989732E+02 0.75000000E+00 0.0000E+00 0.9000E+01
        2 -1    0    0  501    0 0.00000000E+00 0.00000000E+00 -.19807421E+04 0.19807422E+04 0.32000000E+00 0.0000E+00 0.9000E+01
       25  2    1    2    0    0 -.73074587E+02 -.18945583E+03 -.51833549E+03 0.63623165E+03 0.30803511E+03 0.0000E+00 0.0000E+00
       23  2    1    2    0    0 0.64313333E+02 0.16685248E+03 -.12106495E+04 0.12271364E+04 0.90639716E+02 0.0000E+00 0.0000E+00
       24  1    3    3    0    0 -.88713884E+02 0.18944230E+02 -.83737244E+02 0.14733696E+03 0.80419002E+02 0.0000E+00 0.9000E+01
      -11  1    4    4    0    0 0.62555845E+01 0.31378208E+02 -.69541641E+02 0.76549096E+02 0.51099893E-03 0.0000E+00 0.9000E+01
       11  1    4    4    0    0 0.58057749E+02 0.13547428E+03 -.11411079E+04 0.11505873E+04 0.51099893E-03 0.0000E+00 0.9000E+01
      -24  1    3    3    0    0 0.15639297E+02 -.20840006E+03 -.43459824E+03 0.48889469E+03 0.80419002E+02 0.0000E+00 0.9000E+01
        2  1    1    2  502    0 0.87612539E+01 0.22603345E+02 -.18377157E+03 0.18536386E+03 0.32000000E+00 0.0000E+00 0.9000E+01
#aMCatNLO 2  0  0  1  1 0.24241922D+02 0.00000000D+00  -5  7  0 0.00000000D+00 0.00000000D+00 0.00000000D+00 0.00000000D+00 0.00000000D+00
  <mgrwgt>
 0.1288301528D-03    1    2    0
 0.347190043790675D+03 0.000000000000000D+00 0.000000000000000D+00 0.347190043790675D+03
 0.347190043790675D+03 0.000000000000000D+00 0.000000000000000D+00 -.347190043790675D+03
 0.186372709259047D+03 -.863606130022351D+02 0.250154837097611D+02 0.142069141261681D+03
 0.333632045086014D+02 0.666934885220259D+01 0.324456869644643D+02 0.398755543840762D+01
 0.251418604206527D+03 0.611956473305124D+02 0.143569807057522D+03 -.197114478895955D+03
 0.223225569607176D+03 0.184956168195201D+02 -.201030977731748D+03 0.510577821958661D+02
 0.000000000000000D+00 0.000000000000000D+00 0.000000000000000D+00 -.000000000000000D+00
 0.351517263943914D+03 0.000000000000000D+00 0.000000000000000D+00 0.351517263943914D+03
 0.383098422233118D+03 0.000000000000000D+00 0.000000000000000D+00 -.383098422233118D+03
 0.186761596421572D+03 -.887138838721740D+02 0.189442300726782D+02 0.142069141261681D+03
 0.322432138933249D+02 0.625558450259484D+01 0.313782075065996D+02 0.398755543840762D+01
 0.246126185598071D+03 0.580577486101003D+02 0.135474275318078D+03 -.197114478895955D+03
 0.229672124995305D+03 0.156392968951796D+02 -.208400058338170D+03 0.510577821958661D+02
 0.398125652687589D+02 0.876125386429923D+01 0.226033454408135D+02 -.315811582892038D+02
0.132637857409D-06 0.000000000000D+00 0.000000000000D+00 0.163651038467D-07 0.467308438122D-12  7 21 2 24 -11 11 -24 2 2 0.10459624D-01 0.30472933D+00 0.75290215D+05 0.75290215D+05 0.75290215D+05 0.11319796D+01  1  2  1  3  7  1       -2 0.128830152847D-03 0.100000000000D+01
  </mgrwgt>
  </event>
  <event>
  8     66 0.27011060E-05 0.22345602E+03 0.75467711E-02 0.81547583E-01
       -2 -1    0    0    0  501 0.00000000E+00 0.00000000E+00 0.39606817E+03 0.39606830E+03 0.32000000E+00 0.0000E+00 0.9000E+01
        2 -1    0    0  501    0 0.00000000E+00 0.00000000E+00 -.74598726E+03 0.74598733E+03 0.32000000E+00 0.0000E+00 0.9000E+01
       25  2    1    2    0    0 -.44340157E+01 -.14667134E+03 0.31284093E+03 0.45741275E+03 0.29970792E+03 0.0000E+00 0.0000E+00
       23  2    1    2    0    0 0.44340157E+01 0.14667134E+03 -.66276002E+03 0.68464287E+03 0.89178893E+02 0.0000E+00 0.0000E+00
       24  1    3    3    0    0 -.79786940E+02 -.23997804E+02 0.25938420E+03 0.28405850E+03 0.80419002E+02 0.0000E+00 0.9000E+01
      -11  1    4    4    0    0 -.25581755E+02 0.12871267E+03 -.43998169E+03 0.45913535E+03 0.51099893E-03 0.0000E+00 0.9000E+01
       11  1    4    4    0    0 0.30015770E+02 0.17958673E+02 -.22277833E+03 0.22550753E+03 0.51099893E-03 0.0000E+00 0.9000E+01
      -24  1    3    3    0    0 0.75352925E+02 -.12267354E+03 0.53456725E+02 0.17335426E+03 0.80419002E+02 0.0000E+00 0.9000E+01
#aMCatNLO 1  0  0  1  2 0.18931976D+04 0.00000000D+00  -5  7  0 0.00000000D+00 0.00000000D+00 0.00000000D+00 0.00000000D+00 0.00000000D+00
  <mgrwgt>
 0.1399608319D-02    3    2    0
 0.543564089400772D+03 0.000000000000000D+00 0.000000000000000D+00 0.543564089400772D+03
 0.543564089400772D+03 0.000000000000000D+00 0.000000000000000D+00 -.543564089400772D+03
 0.381899850836647D+03 -.797869403251466D+02 -.239978043442893D+02 0.363920911263543D+03
 0.340714293629793D+03 -.255817548364976D+02 0.128712670381906D+03 -.314427817131839D+03
 0.165194639454930D+03 0.300157704944389D+02 0.179586725153466D+02 -.161449089522846D+03
 0.199319394880174D+03 0.753529246672053D+02 -.122673538552963D+03 0.111955995391142D+03
 0.000000000000000D+00 -.000000000000000D+00 0.000000000000000D+00 -.000000000000000D+00
 0.150243377724960D+04 0.000000000000000D+00 0.000000000000000D+00 0.150243377724960D+04
 0.327242115688464D+04 0.000000000000000D+00 0.000000000000000D+00 -.327242115688464D+04
 0.638538965232854D+03 0.500035342624781D+03 -.137080343731343D+03 0.363920911263543D+03
 0.597575591928091D+03 0.507562785478544D+03 0.247336750034639D+02 -.314427817131839D+03
 0.377055451900651D+03 0.338127027091509D+03 -.421321593382846D+02 -.161449089522846D+03
 0.569957256864785D+03 0.512462663546895D+03 -.207922899808705D+03 0.111955995391142D+03
 0.259172766820786D+04 -.185818781874173D+04 0.362401727874868D+03 -.176998737963504D+04
0.104176119855D-03 0.000000000000D+00 0.000000000000D+00 0.150070092615D-05 0.000000000000D+00  7 -2 2 24 -11 11 -24 21 0 0.60933579D-01 0.11476729D+00 0.49932592D+05 0.49932592D+05 0.49932592D+05 0.11473469D+01  1  2  2  1  7  1       -2 0.130059057567D-02 0.100000000000D+01
-.227044264223D-06 0.000000000000D+00 -.400063730445D-06 0.150070092615D-05 0.000000000000D+00  7 -2 2 24 -11 11 -24 21 2 0.60933579D-01 0.11476729D+00 0.49932592D+05 0.49932592D+05 0.49932592D+05 0.11473469D+01  1  2  3  1  7  1       -2 -.373140572390D-05 0.100000000000D+01
0.625196152349D-05 0.000000000000D+00 0.000000000000D+00 0.150070092615D-05 0.000000000000D+00  7 -2 2 24 -11 11 -24 21 2 0.60933579D-01 0.11476729D+00 0.49932592D+05 0.49932592D+05 0.49932592D+05 0.11473469D+01  1  2 15  1  7  1       -2 0.102749149353D-03 0.100000000000D+01
  </mgrwgt>
  </event>
  <event>
  8     66 0.27011060E-05 0.26240696E+03 0.75467711E-02 0.95717847E-01
       -2 -1    0    0    0  501 0.00000000E+00 0.00000000E+00 0.16125817E+03 0.16125849E+03 0.32000000E+00 0.0000E+00 0.9000E+01
        2 -1    0    0  501    0 0.00000000E+00 0.00000000E+00 -.58412925E+03 0.58412934E+03 0.32000000E+00 0.0000E+00 0.9000E+01
       25  2    1    2    0    0 -.21437289E+03 0.55883671E+02 -.28117356E+03 0.46781667E+03 0.30118955E+03 0.0000E+00 0.0000E+00
       23  2    1    2    0    0 0.21437289E+03 -.55883671E+02 -.14169752E+03 0.27757116E+03 0.88819154E+02 0.0000E+00 0.0000E+00
       24  1    3    3    0    0 -.55322396E+02 0.73746201E+02 -.26013683E+03 0.28746731E+03 0.80419002E+02 0.0000E+00 0.9000E+01
      -13  1    4    4    0    0 0.16952787E+03 -.31899231E+02 -.14673060E+03 0.22646664E+03 0.10565837E+00 0.0000E+00 0.9000E+01
       13  1    4    4    0    0 0.44845023E+02 -.23984440E+02 0.50330758E+01 0.51104525E+02 0.10565837E+00 0.0000E+00 0.9000E+01
      -24  1    3    3    0    0 -.15905049E+03 -.17862530E+02 -.21036727E+02 0.18034935E+03 0.80419002E+02 0.0000E+00 0.9000E+01
#aMCatNLO 1  0  0  1  2 0.30099228D+03 0.00000000D+00  -5  7  0 0.00000000D+00 0.00000000D+00 0.00000000D+00 0.00000000D+00 0.00000000D+00
  <mgrwgt>
 0.4541960304D-03    5    2    0
 0.306913288292391D+03 0.000000000000000D+00 0.000000000000000D+00 0.306913288292391D+03
 0.306913288292391D+03 0.000000000000000D+00 0.000000000000000D+00 -.306913288292391D+03
 0.169869305491727D+03 -.553223959012594D+02 0.737462013733033D+02 -.117852854393196D+03
 0.173921181345430D+03 0.169528043200436D+03 -.318992423684693D+02 -.221643458179727D+02
 0.655249221147708D+02 0.448448469732530D+02 -.239844290463077D+02 0.413183044353823D+02
 0.204511167632854D+03 -.159050494272429D+03 -.178625299585264D+02 0.986988957757860D+02
 0.000000000000000D+00 -.000000000000000D+00 -.000000000000000D+00 0.000000000000000D+00
 0.164410393385401D+04 0.000000000000000D+00 0.000000000000000D+00 0.164410393385401D+04
 0.359217664903367D+03 0.000000000000000D+00 0.000000000000000D+00 -.359217664903367D+03
 0.220258219653306D+03 -.400508937910297D+02 0.162951213522297D+03 -.117852854393196D+03
 0.192314915539611D+03 0.183864317792553D+03 0.518428505789198D+02 -.221643458179727D+02
 0.650969831932575D+02 0.499580281101446D+02 0.588305760589828D+01 0.413183044353823D+02
 0.205981416078073D+03 -.142981804025453D+03 0.759990756879662D+02 0.986988957757860D+02
 0.131967006429313D+04 -.507896480862148D+02 -.296676197395082D+03 0.128488626895064D+04
0.685098664326D-05 0.000000000000D+00 0.000000000000D+00 0.553576115259D-07 0.000000000000D+00  7 -2 2 24 -13 13 -24 21 0 0.24808981D-01 0.89866070D-01 0.68857413D+05 0.68857413D+05 0.68857413D+05 0.11352677D+01  1  2  2  1  7  1       -2 0.596598787861D-03 0.100000000000D+01
-.369251726132D-06 0.000000000000D+00 -.263095926163D-07 0.553576115259D-07 0.000000000000D+00  7 -2 2 24 -13 13 -24 21 2 0.24808981D-01 0.89866070D-01 0.68857413D+05 0.68857413D+05 0.68857413D+05 0.11352677D+01  1  2  3  1  7  1       -2 -.414427299566D-04 0.100000000000D+01
0.442722121987D-06 0.000000000000D+00 0.000000000000D+00 0.553576115259D-07 0.000000000000D+00  7 -2 2 24 -13 13 -24 21 2 0.24808981D-01 0.89866070D-01 0.68857413D+05 0.68857413D+05 0.68857413D+05 0.11352677D+01  1  2 15  1  7  1       -2 0.496886325746D-04 0.100000000000D+01
-.172795817495D-04 0.000000000000D+00 -.306616053850D-05 0.553576115259D-07 0.000000000000D+00  7 -2 2 24 -13 13 -24 21 2 0.14335146D+00 0.89866070D-01 0.68857413D+05 0.68857413D+05 0.68857413D+05 0.11352677D+01  1  2  5  1  7  1       -2 -.495599379940D-04 0.100000000000D+01
-.388673253107D-05 0.000000000000D+00 -.658934571375D-06 0.553576115259D-07 0.000000000000D+00  7 21 2 24 -13 13 -24 2 2 0.14335146D+00 0.89866070D-01 0.68857413D+05 0.68857413D+05 0.68857413D+05 0.11352677D+01  1  2  5  3  7  1       -2 -.101088722082D-03 0.100000000000D+01
  </mgrwgt>
  </event>
  <event>
  8     66 0.27011060E-05 0.21985618E+03 0.75467711E-02 0.98030151E-01
       -2 -1    0    0    0  501 0.00000000E+00 0.00000000E+00 0.12883147E+03 0.12883187E+03 0.32000000E+00 0.0000E+00 0.9000E+01
        2 -1    0    0  501    0 0.00000000E+00 0.00000000E+00 -.41078744E+03 0.41078757E+03 0.32000000E+00 0.0000E+00 0.9000E+01
       25  2    1    2    0    0 -.63122859E+02 -.80009194E+02 -.16982283E+03 0.36136587E+03 0.30225739E+03 0.0000E+00 0.0000E+00
       23  2    1    2    0    0 0.63122859E+02 0.80009194E+02 -.11213314E+03 0.17825357E+03 0.93885720E+02 0.0000E+00 0.0000E+00
       24  1    3    3    0    0 -.84323576E+02 -.16368601E+03 -.10322443E+03 0.22588952E+03 0.80419002E+02 0.0000E+00 0.9000E+01
      -11  1    4    4    0    0 0.54669427E+02 0.17020867E+02 -.10241481E+02 0.58166520E+02 0.51099893E-03 0.0000E+00 0.9000E+01
       11  1    4    4    0    0 0.84534317E+01 0.62988327E+02 -.10189166E+03 0.12008705E+03 0.51099893E-03 0.0000E+00 0.9000E+01
      -24  1    3    3    0    0 0.21200718E+02 0.83676812E+02 -.66598401E+02 0.13547635E+03 0.80419002E+02 0.0000E+00 0.9000E+01
#aMCatNLO 1  0  0  2  2 0.24235490D+03 0.00000000D+00  -5  7  0 0.00000000D+00 0.00000000D+00 0.00000000D+00 0.00000000D+00 0.00000000D+00
  <mgrwgt>
 0.6841168105D-03    3    2    0
 0.230048892145003D+03 0.000000000000000D+00 0.000000000000000D+00 0.230048892145003D+03
 0.230048892145003D+03 0.000000000000000D+00 0.000000000000000D+00 -.230048892145003D+03
 0.201673715407956D+03 -.843235765593044D+02 -.163686006771655D+03 0.173636734441615D+02
 0.619436553602279D+02 0.546694270705570D+02 0.170208674848832D+02 0.236338793520191D+02
 0.784014773533354D+02 0.845343214249557D+01 0.629883277856283D+02 -.459108015500496D+02
 0.118078936168487D+03 0.212007173462519D+02 0.836768115011440D+02 0.491324875386897D+01
 0.000000000000000D+00 0.000000000000000D+00 -.000000000000000D+00 0.000000000000000D+00
 0.430322185491713D+03 0.000000000000000D+00 0.000000000000000D+00 0.430322185491713D+03
 0.346231662639968D+03 0.000000000000000D+00 0.000000000000000D+00 -.346231662639968D+03
 0.143942300014812D+03 -.884089434330460D+02 -.783232490692303D+02 0.173636734441615D+02
 0.775905482586769D+02 0.530200578637473D+02 0.514840401481971D+02 0.236338793520191D+02
 0.121541245687807D+03 0.609000180099712D+01 0.112371636022796D+03 -.459108015500496D+02
 0.176950780080832D+03 0.177133076900183D+02 0.156545397039344D+03 0.491324875386897D+01
 0.256528974089552D+03 0.115855760782833D+02 -.242077824141106D+03 0.840905228517450D+02
0.361833570268D-05 0.000000000000D+00 0.000000000000D+00 0.630243081474D-08 0.000000000000D+00  7 -2 2 24 -11 11 -24 21 0 0.19820267D-01 0.63198108D-01 0.48336740D+05 0.48336740D+05 0.48336740D+05 0.11485900D+01  1  2  2  2  7  2        2 0.674561923092D-03 0.100000000000D+01
-.200516695926D-06 0.000000000000D+00 -.138953618279D-07 0.630243081474D-08 0.000000000000D+00  7 -2 2 24 -11 11 -24 21 2 0.19820267D-01 0.63198108D-01 0.48336740D+05 0.48336740D+05 0.48336740D+05 0.11485900D+01  1  2  3  2  7  2        2 -.493166492033D-04 0.100000000000D+01
0.239365938084D-06 0.000000000000D+00 0.000000000000D+00 0.630243081474D-08 0.000000000000D+00  7 -2 2 24 -11 11 -24 21 2 0.19820267D-01 0.63198108D-01 0.48336740D+05 0.48336740D+05 0.48336740D+05 0.11485900D+01  1  2 15  2  7  2        2 0.588715365831D-04 0.100000000000D+01
  </mgrwgt>
  </event>
  <event>
  8     66 0.27011060E-05 0.45837615E+03 0.75467711E-02 0.90222989E-01
       -2 -1    0    0    0  501 0.00000000E+00 0.00000000E+00 0.11320745E+03 0.11320790E+03 0.32000000E+00 0.0000E+00 0.9000E+01
        2 -1    0    0  501    0 0.00000000E+00 0.00000000E+00 -.27211587E+04 0.27211588E+04 0.32000000E+00 0.0000E+00 0.9000E+01
       25  2    1    2    0    0 0.21055058E+03 -.35230757E+03 -.21612426E+04 0.22205485E+04 0.30234725E+03 0.0000E+00 0.0000E+00
       23  2    1    2    0    0 -.21055058E+03 0.35230757E+03 -.44670872E+03 0.61381819E+03 0.93658552E+02 0.0000E+00 0.0000E+00
       24  1    3    3    0    0 0.23187387E+03 -.16832779E+03 -.14969832E+04 0.15262783E+04 0.80419002E+02 0.0000E+00 0.9000E+01
      -11  1    4    4    0    0 -.39476730E+02 0.21851008E+02 -.25678837E+02 0.51916100E+02 0.51099893E-03 0.0000E+00 0.9000E+01
       11  1    4    4    0    0 -.17107385E+03 0.33045656E+03 -.42102988E+03 0.56190209E+03 0.51099893E-03 0.0000E+00 0.9000E+01
      -24  1    3    3    0    0 -.21323284E+02 -.18397978E+03 -.66425940E+03 0.69427013E+03 0.80419002E+02 0.0000E+00 0.9000E+01
#aMCatNLO 1  0  0  2  1 0.48994575D+03 0.00000000D+00  -5  7  0 0.00000000D+00 0.00000000D+00 0.00000000D+00 0.00000000D+00 0.00000000D+00
  <mgrwgt>
 0.1324292917D-02    6    2    0
 0.555028022123482D+03 0.000000000000000D+00 0.000000000000000D+00 0.555028022123482D+03
 0.555028022123482D+03 0.000000000000000D+00 0.000000000000000D+00 -.555028022123482D+03
 0.380136879229398D+03 0.231873866511387D+03 -.168327793727308D+03 -.236510242661606D+03
 0.722306816617600D+02 -.394767296166885D+02 0.218510077037599D+02 0.564038354584475D+02
 0.445573124073839D+03 -.171073852888214D+03 0.330456562556078D+03 0.245086935634120D+03
 0.212115359281968D+03 -.213232840064841D+02 -.183979776532530D+03 -.649805284309616D+02
 0.000000000000000D+00 0.000000000000000D+00 0.000000000000000D+00 -.000000000000000D+00
 0.738226815332304D+03 0.000000000000000D+00 0.000000000000000D+00 0.738226815332304D+03
 0.106290689362078D+04 0.000000000000000D+00 0.000000000000000D+00 -.106290689362078D+04
 0.488739639011958D+03 0.229961110248452D+03 -.351539488075830D+03 -.236510242661606D+03
 0.694914173478960D+02 -.397887185205037D+02 -.803257798542715D+01 0.564038354584475D+02
 0.341986278028939D+03 -.172807596575814D+03 0.164391431976409D+03 0.245086935634120D+03
 0.313154522440063D+03 -.224796200736944D+02 -.294738420597772D+03 -.649805284309616D+02
 0.587761852124225D+03 0.511482492155996D+01 0.489919054682619D+03 -.324680078288474D+03
0.108070320845D-03 0.000000000000D+00 0.000000000000D+00 0.721306459395D-07 0.000000000000D+00  7 -2 2 24 -11 11 -24 21 0 0.17416567D-01 0.41863984D+00 0.21010869D+06 0.21010869D+06 0.21010869D+06 0.10961845D+01  1  2  2  2  7  2        2 0.926600620132D-03 0.100000000000D+01
-.573668320313D-05 0.000000000000D+00 -.415018487613D-06 0.721306459395D-07 0.000000000000D+00  7 -2 2 24 -11 11 -24 21 2 0.17416567D-01 0.41863984D+00 0.21010869D+06 0.21010869D+06 0.21010869D+06 0.10961845D+01  1  2  3  2  7  2        2 -.591036543213D-04 0.100000000000D+01
0.678022678799D-05 0.000000000000D+00 0.000000000000D+00 0.721306459395D-07 0.000000000000D+00  7 -2 2 24 -11 11 -24 21 2 0.17416567D-01 0.41863984D+00 0.21010869D+06 0.21010869D+06 0.21010869D+06 0.10961845D+01  1  2 15  2  7  2        2 0.698550305303D-04 0.100000000000D+01
-.268832634739D-04 0.000000000000D+00 -.227228104861D-04 0.721306459395D-07 0.000000000000D+00  7 -2 2 24 -11 11 -24 21 2 0.17416567D-01 0.82279143D+00 0.21010869D+06 0.21010869D+06 0.21010869D+06 0.10961845D+01  1  2  5  2  7  2        2 -.108362510938D-05 0.100000000000D+01
0.376622153005D-04 0.000000000000D+00 0.183678307553D-04 0.721306459395D-07 0.000000000000D+00  7 -2 2 24 -11 11 -24 21 2 0.17416567D-01 0.41863984D+00 0.21010869D+06 0.21010869D+06 0.21010869D+06 0.10961845D+01  1  2  6  2  7  2        2 0.388024660814D-03 0.100000000000D+01
-.624209012122D-06 0.000000000000D+00 -.166290530063D-05 0.721306459395D-07 0.000000000000D+00  7 -2 21 24 -11 11 -24 -2 2 0.17416567D-01 0.82279143D+00 0.21010869D+06 0.21010869D+06 0.21010869D+06 0.10961845D+01  1  2  5  4  7  2        2 -.115309762897D-09 0.100000000000D+01
  </mgrwgt>
  </event>
  <event>
  9     66 0.27011060E-05 0.17346856E+03 0.75467711E-02 0.10719570E+00
       -2 -1    0    0    0  501 0.00000000E+00 0.00000000E+00 0.48178507E+02 0.48179570E+02 0.32000000E+00 0.0000E+00 0.9000E+01
       21 -1    0    0  501  502 0.00000000E+00 0.00000000E+00 -.10465309E+04 0.10465311E+04 0.75000000E+00 0.0000E+00 0.9000E+01
       25  2    1    2    0    0 0.18158449E+02 0.38342267E+02 -.66397463E+03 0.72821377E+03 0.29602894E+03 0.0000E+00 0.0000E+00
       23  2    1    2    0    0 0.17962582E+01 -.56046475E+02 -.31720325E+03 0.33476848E+03 0.91146027E+02 0.0000E+00 0.0000E+00
       24  1    3    3    0    0 0.12711264E+03 0.48572025E+02 -.42359209E+03 0.45212204E+03 0.80419002E+02 0.0000E+00 0.9000E+01
      -13  1    4    4    0    0 0.34191610E+00 -.49435486E+02 -.32244108E+03 0.32620890E+03 0.10565837E+00 0.0000E+00 0.9000E+01
       13  1    4    4    0    0 0.14543421E+01 -.66109892E+01 0.52378331E+01 0.85595764E+01 0.10565837E+00 0.0000E+00 0.9000E+01
      -24  1    3    3    0    0 -.10895419E+03 -.10229758E+02 -.24038254E+03 0.27609173E+03 0.80419002E+02 0.0000E+00 0.9000E+01
       -2  1    1    2    0  502 -.19954707E+02 0.17704208E+02 -.17174467E+02 0.31728442E+02 0.32000000E+00 0.0000E+00 0.9000E+01
#aMCatNLO 2  0  0  2  1 0.26676381D+02 0.00000000D+00  -5  7  0 0.00000000D+00 0.00000000D+00 0.00000000D+00 0.00000000D+00 0.00000000D+00
  <mgrwgt>
 0.7106201396D-04    1    2    0
 0.204027941739886D+03 0.000000000000000D+00 0.000000000000000D+00 0.204027941739886D+03
 0.204027941739886D+03 0.000000000000000D+00 0.000000000000000D+00 -.204027941739886D+03
 0.155130659928830D+03 0.119442491003199D+03 0.553773420081476D+02 -.162833359803011D+02
 0.722946028264238D+02 -.323859099015598D+01 -.462590796910768D+02 -.554627683438490D+02
 0.345339118932980D+02 -.239577885338606D+00 -.510823084297974D+01 0.341531792187164D+02
 0.146096708831220D+03 -.115964322127704D+03 -.401003147409109D+01 0.375929251054338D+02
 0.000000000000000D+00 -.000000000000000D+00 0.000000000000000D+00 0.000000000000000D+00
 0.240839256795921D+03 0.000000000000000D+00 0.000000000000000D+00 0.240839256795921D+03
 0.209354281213231D+03 0.000000000000000D+00 0.000000000000000D+00 -.209354281213231D+03
 0.158900128485762D+03 0.127112655308493D+03 0.485722215695129D+02 -.162833359803011D+02
 0.742975812712244D+02 0.341905506947032D+00 -.494357665159049D+02 -.554627683438490D+02
 0.348175423805137D+02 0.145432305914133D+01 -.661109303464702D+01 0.341531792187164D+02
 0.140911676987734D+03 -.108954176761568D+03 -.102295701449859D+02 0.375929251054338D+02
 0.412666088839191D+02 -.199547071130139D+02 0.177042081260249D+02 0.314849755826899D+02
0.260572097296D-06 0.000000000000D+00 0.000000000000D+00 0.828470632546D-08 0.445389983800D-12  7 -2 21 24 -13 13 -24 -2 2 0.74121588D-02 0.16100438D+00 0.35485261D+05 0.35485261D+05 0.35485261D+05 0.11606295D+01  1  2  1  4  7  2        2 0.710620139574D-04 0.100000000000D+01
  </mgrwgt>
  </event>
  <event>
  9     66 0.27011060E-05 0.22553815E+03 0.75467711E-02 0.97560821E-01
       -2 -1    0    0    0  501 0.00000000E+00 0.00000000E+00 0.13895852E+03 0.13895888E+03 0.32000000E+00 0.0000E+00 0.9000E+01
        2 -1    0    0  502    0 0.00000000E+00 0.00000000E+00 -.27084836E+04 0.27084836E+04 0.32000000E+00 0.0000E+00 0.9000E+01
       25  2    1    2    0    0 0.28203684E+03 0.14080413E+03 -.30609031E+03 0.53201727E+03 0.29996753E+03 0.0000E+00 0.0000E+00
       23  2    1    2    0    0 0.12806566E+02 -.99512330E+01 -.12095582E+04 0.12132857E+04 0.93638388E+02 0.0000E+00 0.0000E+00
       24  1    3    3    0    0 0.46737447E+02 -.14647717E+02 0.17002869E+02 0.95683113E+02 0.80419002E+02 0.0000E+00 0.9000E+01
      -11  1    4    4    0    0 0.38583285E+02 0.40248303E+01 -.22705356E+03 0.23034363E+03 0.51099893E-03 0.0000E+00 0.9000E+01
       11  1    4    4    0    0 -.25776719E+02 -.13976063E+02 -.98250468E+03 0.98294212E+03 0.51099893E-03 0.0000E+00 0.9000E+01
      -24  1    3    3    0    0 0.23529940E+03 0.15545184E+03 -.32309318E+03 0.43633416E+03 0.80419002E+02 0.0000E+00 0.9000E+01
       21  1    1    2  502  501 -.29484341E+03 -.13085289E+03 -.10538765E+04 0.11021395E+04 0.75000000E+00 0.0000E+00 0.9000E+01
#aMCatNLO 2  0  0  2  2 0.32257575D+03 0.00000000D+00  -5  7  0 0.00000000D+00 0.00000000D+00 0.00000000D+00 0.00000000D+00 0.00000000D+00
  <mgrwgt>
 0.1017003839D-03    1    2    0
 0.401508719464191D+03 0.000000000000000D+00 0.000000000000000D+00 0.401508719464191D+03
 0.401508719464191D+03 0.000000000000000D+00 0.000000000000000D+00 -.401508719464191D+03
 0.225278878132202D+03 -.324394472179403D+02 -.497867955055131D+02 0.201872024400658D+03
 0.572631998149365D+02 0.166426096092330D+02 -.571254469191588D+01 -.544927924737105D+02
 0.293678516145741D+03 -.123909720998671D+03 -.575279516385807D+02 -.259969203306594D+03
 0.226796844835503D+03 0.139706558607378D+03 0.113027291836010D+03 0.112589971379646D+03
 0.000000000000000D+00 -.000000000000000D+00 -.000000000000000D+00 -.000000000000000D+00
 0.523624797014812D+03 0.000000000000000D+00 0.000000000000000D+00 0.523624797014812D+03
 0.718772147416228D+03 0.000000000000000D+00 0.000000000000000D+00 -.718772147416228D+03
 0.222752047684729D+03 0.467374468371245D+02 -.146477172588987D+02 0.201872024400658D+03
 0.668904595321469D+02 0.385832850542340D+02 0.402483033960879D+01 -.544927924737105D+02
 0.261617576320351D+03 -.257767186792186D+02 -.139760633227767D+02 -.259969203306594D+03
 0.314125450460013D+03 0.235299395616437D+03 0.155451842831166D+03 0.112589971379646D+03
 0.377011410433800D+03 -.294843408828577D+03 -.130852892589099D+03 -.195147350401417D+03
0.131337427707D-04 0.000000000000D+00 0.000000000000D+00 0.116939716770D-05 0.913121610719D-10  7 -2 2 24 -11 11 -24 21 2 0.21378249D-01 0.41668954D+00 0.15136192D+06 0.15136192D+06 0.15136192D+06 0.11072423D+01  1  2  1  2  7  2        2 0.101700383885D-03 0.100000000000D+01
  </mgrwgt>
  </event>
  <event>
  8     66 0.27011060E-05 0.41828465E+03 0.75467711E-02 0.94260246E-01
       -2 -1    0    0    0  501 0.00000000E+00 0.00000000E+00 0.15337204E+03 0.15337238E+03 0.32000000E+00 0.0000E+00 0.9000E+01
        2 -1    0    0  502    0 0.00000000E+00 0.00000000E+00 -.22141989E+04 0.22141989E+04 0.32000000E+00 0.0000E+00 0.9000E+01
       23  2    1    2    0    0 -.23851588E+03 0.13134211E+03 -.84655242E+03 0.89389918E+03 0.90907393E+02 0.0000E+00 0.0000E+00
       24  1    1    2    0    0 0.24659707E+02 0.27005216E+03 -.64438250E+03 0.70372743E+03 0.80419002E+02 0.0000E+00 0.9000E+01
      -13  1    3    3    0    0 -.91729052E+02 0.90922941E+02 -.30189194E+03 0.32835949E+03 0.10565837E+00 0.0000E+00 0.9000E+01
       13  1    3    3    0    0 -.14678683E+03 0.40419173E+02 -.54466048E+03 0.56553968E+03 0.10565837E+00 0.0000E+00 0.9000E+01
      -24  1    1    2    0    0 0.14667802E+03 -.22889214E+03 -.17330051E+03 0.33227449E+03 0.80419002E+02 0.0000E+00 0.9000E+01
       21  1    1    2  502  501 0.67178152E+02 -.17250213E+03 -.39659143E+03 0.43767021E+03 0.75000000E+00 0.0000E+00 0.9000E+01
#aMCatNLO 2  0  0  2  1 0.18512128D+03 0.00000000D+00  -5  7  0 0.00000000D+00 0.00000000D+00 0.00000000D+00 0.00000000D+00 0.00000000D+00
  <mgrwgt>
 0.1568565311D-03    2    2    0
 0.479731374185743D+03 0.000000000000000D+00 0.000000000000000D+00 0.479731374185743D+03
 0.479731374185743D+03 0.000000000000000D+00 0.000000000000000D+00 -.479731374185743D+03
 0.250965620189025D+03 0.435081167700937D+02 0.221652631453460D+03 -.741193720114245D+02
 0.114059047563903D+03 -.831120559923561D+02 0.687962108044749D+02 -.369991061899402D+02
 0.175263916763804D+03 -.134140209443164D+03 0.794453556148451D+01 -.112519905281892D+03
 0.419174163854753D+03 0.173744148665426D+03 -.298393377819420D+03 0.223638383483257D+03
 0.000000000000000D+00 0.000000000000000D+00 -.000000000000000D+00 -.000000000000000D+00
 0.564125489593998D+03 0.000000000000000D+00 0.000000000000000D+00 0.564125489593998D+03
 0.601986199503164D+03 0.000000000000000D+00 0.000000000000000D+00 -.601986199503164D+03
 0.292398986750756D+03 0.246597070749358D+02 0.270052159847146D+03 -.741193720114245D+02
 0.134350782009560D+03 -.917289776326422D+02 0.909230082553144D+02 -.369991061899402D+02
 0.189316739896277D+03 -.146786902834477D+03 0.404191053410430D+02 -.112519905281892D+03
 0.361091950912236D+03 0.146678021769150D+03 -.228892141459943D+03 0.223638383483257D+03
 0.188953229528334D+03 0.671781516230332D+02 -.172502131983561D+03 -.378607099091659D+02
-.700672557685D-04 0.000000000000D+00 0.000000000000D+00 0.430692603512D-10 0.000000000000D+00  7 -2 2 24 -13 13 -24 21 2 0.20065741D-01 0.35943598D+00 0.26670913D+06 0.26670913D+06 0.26670913D+06 0.10883516D+01  1  2 13  2  7  2        2 -.930908053570D-03 0.100000000000D+01
0.919563897030D-04 0.000000000000D+00 0.000000000000D+00 0.430692603512D-10 0.842297349977D-14  7 -2 2 24 -13 13 -24 21 2 0.23595696D-01 0.34064558D+00 0.26670913D+06 0.26670913D+06 0.26670913D+06 0.10883516D+01  1  2  1  2  7  2        2 0.108776458466D-02 0.100000000000D+01
  </mgrwgt>
  </event>
  <event>
  8     66 0.27011060E-05 0.10055648E+03 0.75467711E-02 0.10892230E+00
       -2 -1    0    0    0  501 0.00000000E+00 0.00000000E+00 0.12715024E+03 0.12715064E+03 0.32000000E+00 0.0000E+00 0.9000E+01
        2 -1    0    0  501    0 0.00000000E+00 0.00000000E+00 -.83924614E+03 0.83924620E+03 0.32000000E+00 0.0000E+00 0.9000E+01
       25  2    1    2    0    0 0.28937720E+02 0.10389841E+02 -.77733771E+03 0.83429060E+03 0.30139932E+03 0.0000E+00 0.0000E+00
       23  2    1    2    0    0 -.28937720E+02 -.10389841E+02 0.65241809E+02 0.13210624E+03 0.11068073E+03 0.0000E+00 0.0000E+00
       24  1    3    3    0    0 0.35347823E+02 -.65623043E+02 -.67363135E+03 0.68249708E+03 0.80419002E+02 0.0000E+00 0.9000E+01
      -11  1    4    4    0    0 0.31669162E+02 -.58314533E+01 -.11516575E+02 0.34199023E+02 0.51099893E-03 0.0000E+00 0.9000E+01
       11  1    4    4    0    0 -.60606881E+02 -.45583873E+01 0.76758384E+02 0.97907214E+02 0.51099893E-03 0.0000E+00 0.9000E+01
      -24  1    3    3    0    0 -.64101032E+01 0.76012884E+02 -.10370636E+03 0.15179352E+03 0.80419002E+02 0.0000E+00 0.9000E+01
#aMCatNLO 1  0  0  2  1 0.17943767D+02 0.00000000D+00  -5  7  0 0.00000000D+00 0.00000000D+00 0.00000000D+00 0.00000000D+00 0.00000000D+00
  <mgrwgt>
 0.7494969562D-03    9    2    0
 0.326665835877091D+03 0.000000000000000D+00 0.000000000000000D+00 0.326665835877091D+03
 0.326665835877091D+03 0.000000000000000D+00 0.000000000000000D+00 -.326665835877091D+03
 0.275316356246425D+03 0.353478229552033D+02 -.656230433718931D+02 -.252539160633309D+03
 0.380341596476480D+02 0.316691605562914D+02 -.583145314154955D+01 0.202399536565805D+02
 0.228485100328284D+03 -.606068803939582D+02 -.455838743546464D+01 0.220253191179893D+03
 0.111496055531824D+03 -.641010311753647D+01 0.760128839489073D+02 0.120460157968351D+02
 0.000000000000000D+00 0.000000000000000D+00 0.000000000000000D+00 -.000000000000000D+00
 0.332576735765087D+03 0.000000000000000D+00 0.000000000000000D+00 0.332576735765087D+03
 0.340696868948716D+03 0.000000000000000D+00 0.000000000000000D+00 -.340696868948716D+03
 0.277070488838167D+03 0.342961957585499D+02 -.731340080521058D+02 -.252539160633309D+03
 0.380865104344468D+02 0.315242429725398D+02 -.686648804418771D+01 0.202399536565805D+02
 0.228926055928360D+03 -.614776940569781D+02 -.107779400362380D+02 0.220253191179893D+03
 0.109494983056307D+03 -.683082310474103D+01 0.730080044876218D+02 0.120460157968351D+02
 0.196955664565216D+02 0.248807843062948D+01 0.177704316449097D+02 -.812013318362978D+01
0.412226331476D-05 0.000000000000D+00 0.000000000000D+00 0.174397603294D-08 0.000000000000D+00  7 -2 2 24 -11 11 -24 21 0 0.19561610D-01 0.12911483D+00 0.24566301D+05 0.24566301D+05 0.24566301D+05 0.11754743D+01  1  2  2  2  7  2        2 0.347102665337D-03 0.100000000000D+01
-.788466687166D-07 0.000000000000D+00 -.158305765455D-07 0.174397603294D-08 0.000000000000D+00  7 -2 2 24 -11 11 -24 21 2 0.19561610D-01 0.12911483D+00 0.24566301D+05 0.24566301D+05 0.24566301D+05 0.11754743D+01  1  2  3  2  7  2        2 -.917343192484D-05 0.100000000000D+01
0.250281069960D-06 0.000000000000D+00 0.000000000000D+00 0.174397603294D-08 0.000000000000D+00  7 -2 2 24 -11 11 -24 21 2 0.19561610D-01 0.12911483D+00 0.24566301D+05 0.24566301D+05 0.24566301D+05 0.11754743D+01  1  2 15  2  7  2        2 0.291190026760D-04 0.100000000000D+01
0.125993828758D-04 0.000000000000D+00 0.000000000000D+00 0.174397603294D-08 0.000000000000D+00  7 -2 2 24 -11 11 -24 21 2 0.19561610D-01 0.13579238D+00 0.28129226D+05 0.28129226D+05 0.28129226D+05 0.11699393D+01  1  2 12  2  7  2        2 0.136165965521D-02 0.100000000000D+01
-.120692220597D-04 0.000000000000D+00 0.000000000000D+00 0.174397603294D-08 0.000000000000D+00  7 -2 2 24 -11 11 -24 21 2 0.19561610D-01 0.12911483D+00 0.24566301D+05 0.24566301D+05 0.24566301D+05 0.11754743D+01  1  2  4  2  7  2        2 -.140419612841D-02 0.100000000000D+01
-.524245364549D-04 0.000000000000D+00 -.980941379157D-05 0.174397603294D-08 0.000000000000D+00  7 -2 2 24 -11 11 -24 21 2 0.19561610D-01 0.13628791D+00 0.24566301D+05 0.24566301D+05 0.24566301D+05 0.11754743D+01  1  2  5  2  7  2        2 -.569648507938D-02 0.100000000000D+01
0.528918994156D-04 0.000000000000D+00 0.979509332090D-05 0.174397603294D-08 0.000000000000D+00  7 -2 2 24 -11 11 -24 21 2 0.19561610D-01 0.12911483D+00 0.24566301D+05 0.24566301D+05 0.24566301D+05 0.11754743D+01  1  2  6  2  7  2        2 0.615371894035D-02 0.100000000000D+01
0.167554162404D-06 0.000000000000D+00 0.000000000000D+00 0.174397603294D-08 0.000000000000D+00  7 -2 21 24 -11 11 -24 -2 2 0.19561610D-01 0.13579238D+00 0.28129226D+05 0.28129226D+05 0.28129226D+05 0.11699393D+01  1  2 12  4  7  2        2 0.170829503891D-04 0.100000000000D+01
-.480875133052D-06 0.000000000000D+00 -.918577348758D-07 0.174397603294D-08 0.000000000000D+00  7 -2 21 24 -11 11 -24 -2 2 0.19561610D-01 0.13628791D+00 0.24566301D+05 0.24566301D+05 0.24566301D+05 0.11754743D+01  1  2  5  4  7  2        2 -.493316180435D-04 0.100000000000D+01
  </mgrwgt>
  </event>
  <event>
  8     66 0.27011060E-05 0.13921091E+03 0.75467711E-02 0.97459501E-01
       -2 -1    0    0    0  501 0.00000000E+00 0.00000000E+00 0.62094391E+02 0.62095216E+02 0.32000000E+00 0.0000E+00 0.9000E+01
        2 -1    0    0  501    0 0.00000000E+00 0.00000000E+00 -.67334370E+03 0.67334378E+03 0.32000000E+00 0.0000E+00 0.9000E+01
       25  2    1    2    0    0 -.10682968E+02 -.38030035E+02 -.51635874E+03 0.59898597E+03 0.30099409E+03 0.0000E+00 0.0000E+00
       23  2    1    2    0    0 0.10682968E+02 0.38030035E+02 -.94890572E+02 0.13645302E+03 0.89748514E+02 0.0000E+00 0.0000E+00
       24  1    3    3    0    0 0.68249255E+02 0.36297858E+00 -.48270449E+02 0.11599718E+03 0.80419002E+02 0.0000E+00 0.9000E+01
      -13  1    4    4    0    0 -.13729568E+02 0.12322235E+02 -.99053645E+02 0.10075701E+03 0.10565837E+00 0.0000E+00 0.9000E+01
       13  1    4    4    0    0 0.24412535E+02 0.25707800E+02 0.41630730E+01 0.35696011E+02 0.10565837E+00 0.0000E+00 0.9000E+01
      -24  1    3    3    0    0 -.78932223E+02 -.38393013E+02 -.46808829E+03 0.48298880E+03 0.80419002E+02 0.0000E+00 0.9000E+01
#aMCatNLO 1  0  0  1  2 0.34903663D+03 0.00000000D+00  -5  7  0 0.00000000D+00 0.00000000D+00 0.00000000D+00 0.00000000D+00 0.00000000D+00
  <mgrwgt>
 0.2040020426D-02    3    2    0
 0.204477867731746D+03 0.000000000000000D+00 0.000000000000000D+00 0.204477867731746D+03
 0.204477867731746D+03 0.000000000000000D+00 0.000000000000000D+00 -.204477867731746D+03
 0.136453636072292D+03 0.682491859241313D+02 0.362732291242072D+00 0.865696014138747D+02
 0.331429546617627D+02 -.137294604928022D+02 0.123223916613139D+02 -.275339067702610D+02
 0.704159812850821D+02 0.244125831346178D+02 0.257081941328083D+02 0.608401591012568D+02
 0.168943163444355D+03 -.789323085659469D+02 -.383933180853643D+02 -.119875853744870D+03
 0.000000000000000D+00 0.000000000000000D+00 0.000000000000000D+00 -.000000000000000D+00
 0.331649963600359D+03 0.000000000000000D+00 0.000000000000000D+00 0.331649963600359D+03
 0.753626260605740D+03 0.000000000000000D+00 0.000000000000000D+00 -.753626260605740D+03
 0.177753792593878D+03 0.655996606825215D+02 -.115462476400421D+03 0.865696014138747D+02
 0.333267804497254D+02 -.142899604202820D+02 -.121801192234538D+02 -.275339067702610D+02
 0.701635426913297D+02 0.232271592291101D+02 -.261131544949547D+02 0.608401591012568D+02
 0.256409458135095D+03 -.825190554237273D+02 -.195189598717956D+03 -.119875853744870D+03
 0.547622650336071D+03 0.798219593237767D+01 0.348945348836785D+03 -.421976297005381D+03
0.595839217194D-05 0.000000000000D+00 0.000000000000D+00 0.426887065501D-07 0.000000000000D+00  7 -2 2 24 -13 13 -24 21 0 0.95530526D-02 0.10359141D+00 0.19379677D+05 0.19379677D+05 0.19379677D+05 0.11853640D+01  1  2  2  1  7  1       -2 0.198801055907D-02 0.100000000000D+01
-.271529293530D-06 0.000000000000D+00 -.228817948209D-07 0.426887065501D-07 0.000000000000D+00  7 -2 2 24 -13 13 -24 21 2 0.95530526D-02 0.10359141D+00 0.19379677D+05 0.19379677D+05 0.19379677D+05 0.11853640D+01  1  2  3  1  7  1       -2 -.127294536738D-03 0.100000000000D+01
0.382470445265D-06 0.000000000000D+00 0.000000000000D+00 0.426887065501D-07 0.000000000000D+00  7 -2 2 24 -13 13 -24 21 2 0.95530526D-02 0.10359141D+00 0.19379677D+05 0.19379677D+05 0.19379677D+05 0.11853640D+01  1  2 15  1  7  1       -2 0.179304404003D-03 0.100000000000D+01
  </mgrwgt>
  </event>
  <event>
  8     66 0.27011060E-05 0.24208444E+03 0.75467711E-02 0.94877703E-01
       -2 -1    0    0    0  501 0.00000000E+00 0.00000000E+00 0.17236625E+03 0.17236655E+03 0.32000000E+00 0.0000E+00 0.9000E+01
        2 -1    0    0  501    0 0.00000000E+00 0.00000000E+00 -.43648191E+03 0.43648202E+03 0.32000000E+00 0.0000E+00 0.9000E+01
       25  2    1    2    0    0 0.33008891E+02 -.14847795E+03 -.27104879E+03 0.43170203E+03 0.29960626E+03 0.0000E+00 0.0000E+00
       23  2    1    2    0    0 -.33008891E+02 0.14847795E+03 0.69331355E+01 0.17714654E+03 0.90540260E+02 0.0000E+00 0.0000E+00
       24  1    3    3    0    0 -.82394838E+02 -.12190410E+03 -.62918294E+02 0.17909619E+03 0.80419002E+02 0.0000E+00 0.9000E+01
      -13  1    4    4    0    0 -.88409023E+01 0.14890601E+03 -.68417339E+01 0.14932509E+03 0.10565837E+00 0.0000E+00 0.9000E+01
       13  1    4    4    0    0 -.24167988E+02 -.42805858E+00 0.13774869E+02 0.27821450E+02 0.10565837E+00 0.0000E+00 0.9000E+01
      -24  1    3    3    0    0 0.11540373E+03 -.26573852E+02 -.20813050E+03 0.25260584E+03 0.80419002E+02 0.0000E+00 0.9000E+01
#aMCatNLO 1  0  0  2  2 0.37583213D+03 0.00000000D+00  -5  7  0 0.00000000D+00 0.00000000D+00 0.00000000D+00 0.00000000D+00 0.00000000D+00
  <mgrwgt>
 0.1115027317D-02    5    2    0
 0.274289765894304D+03 0.000000000000000D+00 0.000000000000000D+00 0.274289765894304D+03
 0.274289765894304D+03 0.000000000000000D+00 0.000000000000000D+00 -.274289765894304D+03
 0.168480137169326D+03 -.823948376975923D+02 -.121904099419415D+03 0.163957900618700D+02
 0.162436704112857D+03 -.884088171161729D+01 0.148906213978801D+03 0.642997752104032D+02
 0.375098125027829D+02 -.241680090938296D+02 -.428261502132258D+00 0.286829210946216D+02
 0.180152878003642D+03 0.115403728503039D+03 -.265738530572536D+02 -.109378486366895D+03
 0.000000000000000D+00 0.000000000000000D+00 0.000000000000000D+00 -.000000000000000D+00
 0.485441614849667D+03 0.000000000000000D+00 0.000000000000000D+00 0.485441614849667D+03
 0.563354730074171D+03 0.000000000000000D+00 0.000000000000000D+00 -.563354730074171D+03
 0.294114843615600D+03 -.100209898406283D+03 -.264055826692592D+03 0.163957900618700D+02
 0.964306241684991D+02 -.188101579908449D+02 0.693583602875486D+02 0.642997752104032D+02
 0.478184492807371D+02 -.274540978474540D+02 -.266489519583145D+02 0.286829210946216D+02
 0.226609234801132D+03 0.997388552670249D+02 -.151568587817180D+03 -.109378486366895D+03
 0.383823193057870D+03 0.467352989775569D+02 0.372915006180538D+03 -.779131152245039D+02
0.966322131476D-05 0.000000000000D+00 0.000000000000D+00 0.565730894145D-06 0.000000000000D+00  7 -2 2 24 -13 13 -24 21 0 0.26517917D-01 0.67151094D-01 0.58604878D+05 0.58604878D+05 0.58604878D+05 0.11412783D+01  1  2  2  2  7  2        2 0.103818809411D-02 0.100000000000D+01
-.526663344113D-06 0.000000000000D+00 -.371093142333D-07 0.565730894145D-06 0.000000000000D+00  7 -2 2 24 -13 13 -24 21 2 0.26517917D-01 0.67151094D-01 0.58604878D+05 0.58604878D+05 0.58604878D+05 0.11412783D+01  1  2  3  2  7  2        2 -.737004855452D-04 0.100000000000D+01
0.593247977235D-06 0.000000000000D+00 0.000000000000D+00 0.565730894145D-06 0.000000000000D+00  7 -2 2 24 -13 13 -24 21 2 0.26517917D-01 0.67151094D-01 0.58604878D+05 0.58604878D+05 0.58604878D+05 0.11412783D+01  1  2 15  2  7  2        2 0.830182401331D-04 0.100000000000D+01
0.190761928721D-05 0.000000000000D+00 -.327970332342D-05 0.565730894145D-06 0.000000000000D+00  7 -2 2 24 -13 13 -24 21 2 0.26517917D-01 0.20997409D+00 0.58604878D+05 0.58604878D+05 0.58604878D+05 0.11412783D+01  1  2  5  2  7  2        2 0.617103944951D-04 0.100000000000D+01
0.399604836391D-06 0.000000000000D+00 -.428755422035D-06 0.565730894145D-06 0.000000000000D+00  7 -2 21 24 -13 13 -24 -2 2 0.26517917D-01 0.20997409D+00 0.58604878D+05 0.58604878D+05 0.58604878D+05 0.11412783D+01  1  2  5  4  7  2        2 0.581107349072D-05 0.100000000000D+01
  </mgrwgt>
  </event>
  <event>
  9     66 0.27011060E-05 0.37068729E+03 0.75467711E-02 0.95846585E-01
       -2 -1    0    0    0  501 0.00000000E+00 0.00000000E+00 0.12358490E+03 0.12358531E+03 0.32000000E+00 0.0000E+00 0.9000E+01
        2 -1    0    0  502    0 0.00000000E+00 0.00000000E+00 -.21363592E+04 0.21363592E+04 0.32000000E+00 0.0000E+00 0.9000E+01
       25  2    1    2    0    0 0.40227421E+03 0.14899663E+03 -.14433743E+04 0.15353020E+04 0.29966333E+03 0.0000E+00 0.0000E+00
       23  2    1    2    0    0 -.27295149E+03 -.87704047E+02 -.34040715E+03 0.45460662E+03 0.92712651E+02 0.0000E+00 0.0000E+00
       24  1    3    3    0    0 0.29655458E+03 0.72436943E+02 -.59874764E+03 0.67687346E+03 0.80419002E+02 0.0000E+00 0.9000E+01
      -11  1    4    4    0    0 -.22619058E+03 -.66774522E+02 -.21497861E+03 0.31911881E+03 0.51099893E-03 0.0000E+00 0.9000E+01
       11  1    4    4    0    0 -.46760917E+02 -.20929525E+02 -.12542853E+03 0.13548781E+03 0.51099893E-03 0.0000E+00 0.9000E+01
      -24  1    3    3    0    0 0.10571963E+03 0.76559684E+02 -.84462669E+03 0.85842850E+03 0.80419002E+02 0.0000E+00 0.9000E+01
       21  1    1    2  502  501 -.12932271E+03 -.61292580E+02 -.22899283E+03 0.27003597E+03 0.75000000E+00 0.0000E+00 0.9000E+01
#aMCatNLO 2  0  0  2  2 0.14311235D+03 0.00000000D+00  -5  7  0 0.00000000D+00 0.00000000D+00 0.00000000D+00 0.00000000D+00 0.00000000D+00
  <mgrwgt>
 0.2436951978D-03    1    2    0
 0.435137519162183D+03 0.000000000000000D+00 0.000000000000000D+00 0.435137519162183D+03
 0.435137519162183D+03 0.000000000000000D+00 0.000000000000000D+00 -.435137519162183D+03
 0.271282354501905D+03 0.253195488251501D+03 0.518868767833864D+02 0.180747519063515D+02
 0.327352556911832D+03 -.271400111208145D+03 -.882016091184441D+02 0.160381271667979D+03
 0.611316219207206D+02 -.551112805230858D+02 -.248871848260976D+02 -.896939179628789D+01
 0.210508504989909D+03 0.733159034797298D+02 0.612019171611553D+02 -.169486631778043D+03
 0.000000000000000D+00 -.000000000000000D+00 -.000000000000000D+00 0.000000000000000D+00
 0.528787191417850D+03 0.000000000000000D+00 0.000000000000000D+00 0.528787191417850D+03
 0.499295827774960D+03 0.000000000000000D+00 0.000000000000000D+00 -.499295827774960D+03
 0.316205058848523D+03 0.296554575028214D+03 0.724369426493587D+02 0.180747519063515D+02
 0.285207232755135D+03 -.226190575697208D+03 -.667745219359078D+02 0.160381271667979D+03
 0.520103680130357D+02 -.467609171822776D+02 -.209295249809512D+02 -.896939179628789D+01
 0.228540937825753D+03 0.105719632406866D+03 0.765596844311386D+02 -.169486631778043D+03
 0.146119421750364D+03 -.129322714555594D+03 -.612925801636383D+02 0.294913636428908D+02
0.126131165648D-04 0.000000000000D+00 0.000000000000D+00 0.168961070957D-05 0.548881380723D-09  7 -2 2 24 -11 11 -24 21 2 0.19013059D-01 0.32867006D+00 0.20213422D+06 0.20213422D+06 0.20213422D+06 0.10974715D+01  1  2  1  2  7  2        2 0.243695197783D-03 0.100000000000D+01
  </mgrwgt>
  </event>
  <event>
  8     66 0.27011060E-05 0.66891996E+03 0.75467711E-02 0.90000352E-01
       -2 -1    0    0    0  501 0.00000000E+00 0.00000000E+00 0.15449469E+03 0.15449503E+03 0.32000000E+00 0.0000E+00 0.9000E+01
        2 -1    0    0  501    0 0.00000000E+00 0.00000000E+00 -.31915307E+04 0.31915308E+04 0.32000000E+00 0.0000E+00 0.9000E+01
       25  2    1    2    0    0 0.15575894E+03 0.63253273E+03 -.12440605E+04 0.14361135E+04 0.30062765E+03 0.0000E+00 0.0000E+00
       23  2    1    2    0    0 -.15575894E+03 -.63253273E+03 -.17929755E+04 0.19099122E+04 0.92979048E+02 0.0000E+00 0.0000E+00
       24  1    3    3    0    0 -.22749916E+01 0.20420940E+03 -.62708925E+03 0.66439054E+03 0.80419002E+02 0.0000E+00 0.9000E+01
      -11  1    4    4    0    0 -.96099721E+01 -.57864241E+01 -.13018552E+02 0.17184789E+02 0.51099893E-03 0.0000E+00 0.9000E+01
       11  1    4    4    0    0 -.14614897E+03 -.62674630E+03 -.17799570E+04 0.18927275E+04 0.51099893E-03 0.0000E+00 0.9000E+01
      -24  1    3    3    0    0 0.15803393E+03 0.42832332E+03 -.61697129E+03 0.77172300E+03 0.80419002E+02 0.0000E+00 0.9000E+01
#aMCatNLO 1  0  0  1  2 0.18341174D+03 0.00000000D+00  -5  7  0 0.00000000D+00 0.00000000D+00 0.00000000D+00 0.00000000D+00 0.00000000D+00
  <mgrwgt>
 0.9813006705D-03    4    2    0
 0.702193098725821D+03 0.000000000000000D+00 0.000000000000000D+00 0.702193098725821D+03
 0.702193098725821D+03 0.000000000000000D+00 0.000000000000000D+00 -.702193098725821D+03
 0.226843046880718D+03 -.227499160381188D+01 0.204209403193306D+03 -.573052879269732D+02
 0.127905944050406D+02 -.960997206832901D+01 -.578642409069471D+01 0.614532654322145D+01
 0.660303714491606D+03 -.146148967710348D+03 -.626746302262366D+03 -.147751640292292D+03
 0.504448841674278D+03 0.158033931382489D+03 0.428323323159755D+03 0.198911601676044D+03
 0.000000000000000D+00 0.000000000000000D+00 -.000000000000000D+00 -.000000000000000D+00
 0.728814045435793D+03 0.000000000000000D+00 0.000000000000000D+00 0.728814045435793D+03
 0.111526252188574D+04 0.000000000000000D+00 0.000000000000000D+00 -.111526252188574D+04
 0.253986351019146D+03 -.127867265600924D+02 0.233654561584264D+03 -.573052879269732D+02
 0.126094663111620D+02 -.101652598841080D+02 -.423096842555610D+01 0.614532654322145D+01
 0.595240637460892D+03 -.173597267484082D+03 -.549858943728159D+03 -.147751640292292D+03
 0.554475819154577D+03 0.134884066956728D+03 0.493170032820986D+03 0.198911601676044D+03
 0.427764293375756D+03 0.616651869715548D+02 -.172734682251534D+03 -.386448476449946D+03
0.408550618373D-03 0.000000000000D+00 0.000000000000D+00 0.205145830379D-05 0.000000000000D+00  7 -2 2 24 -11 11 -24 21 0 0.23768441D-01 0.49100476D+00 0.44745392D+06 0.44745392D+06 0.44745392D+06 0.10719352D+01  1  2  2  1  7  1       -2 0.100879705423D-02 0.100000000000D+01
-.226322246888D-04 0.000000000000D+00 -.156894194840D-05 0.205145830379D-05 0.000000000000D+00  7 -2 2 24 -11 11 -24 21 2 0.23768441D-01 0.49100476D+00 0.44745392D+06 0.44745392D+06 0.44745392D+06 0.10719352D+01  1  2  3  1  7  1       -2 -.642128968863D-04 0.100000000000D+01
0.242186355109D-04 0.000000000000D+00 0.000000000000D+00 0.205145830379D-05 0.000000000000D+00  7 -2 2 24 -11 11 -24 21 2 0.23768441D-01 0.49100476D+00 0.44745392D+06 0.44745392D+06 0.44745392D+06 0.10719352D+01  1  2 15  1  7  1       -2 0.687139141718D-04 0.100000000000D+01
-.112776779179D-04 0.000000000000D+00 0.000000000000D+00 0.205145830379D-05 0.000000000000D+00  7 -2 2 24 -11 11 -24 21 2 0.23768441D-01 0.49100476D+00 0.44745392D+06 0.44745392D+06 0.44745392D+06 0.10719352D+01  1  2  4  1  7  1       -2 -.319974010162D-04 0.100000000000D+01
  </mgrwgt>
  </event>
  <event>
  9     66 0.27011060E-05 0.16482762E+03 0.75467711E-02 0.10678165E+00
       -2 -1    0    0    0  501 0.00000000E+00 0.00000000E+00 0.57805952E+02 0.57806838E+02 0.32000000E+00 0.0000E+00 0.9000E+01
        2 -1    0    0  502    0 0.00000000E+00 0.00000000E+00 -.28769653E+04 0.28769653E+04 0.32000000E+00 0.0000E+00 0.9000E+01
       25  2    1    2    0    0 -.54286508E+02 0.11230136E+03 -.43392657E+03 0.54224467E+03 0.30029717E+03 0.0000E+00 0.0000E+00
       23  2    1    2    0    0 0.12162787E+02 -.49611136E+02 -.16851531E+04 0.16883850E+04 0.91070655E+02 0.0000E+00 0.0000E+00
       24  1    3    3    0    0 -.38893072E+02 0.11580287E+03 -.43639792E+03 0.46025356E+03 0.80419002E+02 0.0000E+00 0.9000E+01
      -11  1    4    4    0    0 -.24274632E+02 -.26217572E+01 -.14178228E+03 0.14386920E+03 0.51099893E-03 0.0000E+00 0.9000E+01
       11  1    4    4    0    0 0.36437419E+02 -.46989379E+02 -.15433708E+04 0.15445158E+04 0.51099893E-03 0.0000E+00 0.9000E+01
      -24  1    3    3    0    0 -.15393436E+02 -.35015097E+01 0.24713527E+01 0.81991109E+02 0.80419002E+02 0.0000E+00 0.9000E+01
       21  1    1    2  502  501 0.42123720E+02 -.62690224E+02 -.70007968E+03 0.70414246E+03 0.75000000E+00 0.0000E+00 0.9000E+01
#aMCatNLO 2  0  0  2  1 0.75527955D+02 0.00000000D+00  -5  7  0 0.00000000D+00 0.00000000D+00 0.00000000D+00 0.00000000D+00 0.00000000D+00
  <mgrwgt>
 0.2194571304D-03    2    2    0
 0.346231773188925D+03 0.000000000000000D+00 0.000000000000000D+00 0.346231773188925D+03
 0.346231773188925D+03 0.000000000000000D+00 0.000000000000000D+00 -.346231773188925D+03
 0.134296262442618D+03 -.303843849570314D+02 0.103139897792289D+03 0.268715199890912D+01
 0.283231972199084D+02 -.225244802649192D+02 -.522640317318976D+01 -.163565277312872D+02
 0.258783060994703D+03 0.518917453902523D+02 -.699891326424598D+02 -.243674866841243D+03
 0.271061025720622D+03 0.101711983169826D+01 -.279243619766390D+02 0.257344242573621D+03
 0.000000000000000D+00 0.000000000000000D+00 -.000000000000000D+00 -.000000000000000D+00
 0.360968995330269D+03 0.000000000000000D+00 0.000000000000000D+00 0.360968995330269D+03
 0.460721111270402D+03 0.000000000000000D+00 0.000000000000000D+00 -.460721111270402D+03
 0.146278544204367D+03 -.388930720346818D+02 0.115802870007691D+03 0.268715199890912D+01
 0.293882178659841D+02 -.242746315976156D+02 -.262175718063740D+01 -.163565277312872D+02
 0.250824895073752D+03 0.364374190297136D+02 -.469893791522536D+02 -.243674866841243D+03
 0.270078680333138D+03 -.153934356245383D+02 -.350150967460923D+01 0.257344242573621D+03
 0.125119769123431D+03 0.421237202271221D+02 -.626902240001909D+02 -.997521159401326D+02
-.158993558257D-04 0.000000000000D+00 0.000000000000D+00 0.353199160746D-05 0.000000000000D+00  7 -2 2 24 -11 11 -24 21 2 0.85301820D-02 0.44796240D+00 0.37560982D+05 0.37560982D+05 0.37560982D+05 0.11583859D+01  1  2 13  2  7  2        2 -.464973266921D-03 0.100000000000D+01
0.237521276538D-04 0.000000000000D+00 0.000000000000D+00 0.353199160746D-05 0.464159879578D-08  7 -2 2 24 -11 11 -24 21 2 0.88932659D-02 0.44260878D+00 0.37560982D+05 0.37560982D+05 0.37560982D+05 0.11583859D+01  1  2  1  2  7  2        2 0.684430397317D-03 0.100000000000D+01
  </mgrwgt>
  </event>
  <event>
  8     66 0.27011060E-05 0.47277239E+03 0.75467711E-02 0.84657392E-01
       -2 -1    0    0    0  501 0.00000000E+00 0.00000000E+00 0.20729442E+03 0.20729467E+03 0.32000000E+00 0.0000E+00 0.9000E+01
        2 -1    0    0  501    0 0.00000000E+00 0.00000000E+00 -.19817241E+04 0.19817242E+04 0.32000000E+00 0.0000E+00 0.9000E+01
       25  2    1    2    0    0 -.96413993E+02 0.44238467E+03 -.16088336E+04 0.16981176E+04 0.30042958E+03 0.0000E+00 0.0000E+00
       23  2    1    2    0    0 0.96413993E+02 -.44238467E+03 -.16559612E+03 0.49090124E+03 0.92531618E+02 0.0000E+00 0.0000E+00
       24  1    3    3    0    0 -.79092965E+02 0.25963878E+03 -.53034058E+03 0.60116249E+03 0.80419002E+02 0.0000E+00 0.9000E+01
      -11  1    4    4    0    0 0.11254085E+03 -.33335551E+03 -.12238132E+03 0.37251648E+03 0.51099893E-03 0.0000E+00 0.9000E+01
       11  1    4    4    0    0 -.16126859E+02 -.10902916E+03 -.43214801E+02 0.11838476E+03 0.51099893E-03 0.0000E+00 0.9000E+01
      -24  1    3    3    0    0 -.17321027E+02 0.18274590E+03 -.10784930E+04 0.10969551E+04 0.80419002E+02 0.0000E+00 0.9000E+01
#aMCatNLO 1  0  0  2  1 0.11939021D+04 0.00000000D+00  -5  7  0 0.00000000D+00 0.00000000D+00 0.00000000D+00 0.00000000D+00 0.00000000D+00
  <mgrwgt>
 0.1124569385D-02    3    2    0
 0.640937324096466D+03 0.000000000000000D+00 0.000000000000000D+00 0.640937324096466D+03
 0.640937324096466D+03 0.000000000000000D+00 0.000000000000000D+00 -.640937324096466D+03
 0.292465355114777D+03 -.790929654446630D+02 0.259638777244806D+03 -.734899731666396D+02
 0.466729363100409D+03 0.112540851403638D+03 -.333355511691814D+03 0.306667503935690D+03
 0.142342195606310D+03 -.161268587199870D+02 -.109029161061764D+03 0.900770065889107D+02
 0.380337734371435D+03 -.173210272389876D+02 0.182745895508772D+03 -.323254537357961D+03
 0.000000000000000D+00 0.000000000000000D+00 0.000000000000000D+00 0.000000000000000D+00
 0.186317679352839D+04 0.000000000000000D+00 0.000000000000000D+00 0.186317679352839D+04
 0.123680428132432D+04 0.000000000000000D+00 0.000000000000000D+00 -.123680428132432D+04
 0.214116238793346D+03 -.165971462279521D+03 0.801950454417390D+02 -.734899731666396D+02
 0.871580651629851D+03 -.116978664853973D+03 -.807418024504254D+03 0.306667503935690D+03
 0.292460780275739D+03 -.906953574933684D+02 -.263047130781967D+03 0.900770065889107D+02
 0.373585725766138D+03 -.146618533766962D+03 -.843124437752717D+02 -.323254537357961D+03
 0.134823767838764D+04 0.520264018393825D+03 0.107458255361975D+04 0.626372512204072D+03
0.138659733739D-03 0.000000000000D+00 0.000000000000D+00 0.265661518901D-05 0.000000000000D+00  7 -2 2 24 -11 11 -24 21 0 0.31891470D-01 0.30488066D+00 0.22351373D+06 0.22351373D+06 0.22351373D+06 0.10941369D+01  1  2  2  2  7  2        2 0.110652019502D-02 0.100000000000D+01
-.683593035420D-05 0.000000000000D+00 -.532489887504D-06 0.265661518901D-05 0.000000000000D+00  7 -2 2 24 -11 11 -24 21 2 0.31891470D-01 0.30488066D+00 0.22351373D+06 0.22351373D+06 0.22351373D+06 0.10941369D+01  1  2  3  2  7  2        2 -.653055314900D-04 0.100000000000D+01
0.872524974921D-05 0.000000000000D+00 0.000000000000D+00 0.265661518901D-05 0.000000000000D+00  7 -2 2 24 -11 11 -24 21 2 0.31891470D-01 0.30488066D+00 0.22351373D+06 0.22351373D+06 0.22351373D+06 0.10941369D+01  1  2 15  2  7  2        2 0.833547217030D-04 0.100000000000D+01
  </mgrwgt>
  </event>
  <event>
  8     66 0.27011060E-05 0.39765054E+03 0.75467711E-02 0.95692680E-01
       -2 -1    0    0    0  501 0.00000000E+00 0.00000000E+00 0.12268776E+03 0.12268817E+03 0.32000000E+00 0.0000E+00 0.9000E+01
        2 -1    0    0  501    0 0.00000000E+00 0.00000000E+00 -.14102712E+04 0.14102713E+04 0.32000000E+00 0.0000E+00 0.9000E+01
       25  2    1    2    0    0 -.13392983E+03 -.32286220E+03 -.82952129E+03 0.94902284E+03 0.30060204E+03 0.0000E+00 0.0000E+00
       23  2    1    2    0    0 0.13392983E+03 0.32286220E+03 -.45806220E+03 0.58393662E+03 0.94782884E+02 0.0000E+00 0.0000E+00
       24  1    3    3    0    0 -.13055420E+03 -.32477256E+03 -.54009939E+03 0.64861097E+03 0.80419002E+02 0.0000E+00 0.9000E+01
      -11  1    4    4    0    0 0.66381839E+02 0.23849992E+03 -.26474885E+03 0.36246477E+03 0.51099893E-03 0.0000E+00 0.9000E+01
       11  1    4    4    0    0 0.67547987E+02 0.84362281E+02 -.19331335E+03 0.22147184E+03 0.51099893E-03 0.0000E+00 0.9000E+01
      -24  1    3    3    0    0 -.33756275E+01 0.19103662E+01 -.28942190E+03 0.30041188E+03 0.80419002E+02 0.0000E+00 0.9000E+01
#aMCatNLO 1  0  0  2  1 0.10992469D+03 0.00000000D+00  -5  7  0 0.00000000D+00 0.00000000D+00 0.00000000D+00 0.00000000D+00 0.00000000D+00
  <mgrwgt>
 0.7848114823D-03    4    2    0
 0.415960773096928D+03 0.000000000000000D+00 0.000000000000000D+00 0.415960773096928D+03
 0.415960773096928D+03 0.000000000000000D+00 0.000000000000000D+00 -.415960773096928D+03
 0.359254136793955D+03 -.130554198149329D+03 -.324772564535343D+03 0.864300410280509D+01
 0.258146405993506D+03 0.663818388867318D+02 0.238499917842182D+03 0.731492145046847D+02
 0.108904830899328D+03 0.675479867177516D+02 0.843622805253304D+02 -.134364172365670D+02
 0.105616172507068D+03 -.337562745515483D+01 0.191036616783138D+01 -.683558013709228D+02
 0.000000000000000D+00 0.000000000000000D+00 0.000000000000000D+00 0.000000000000000D+00
 0.579050905199945D+03 0.000000000000000D+00 0.000000000000000D+00 0.579050905199945D+03
 0.438518808572448D+03 0.000000000000000D+00 0.000000000000000D+00 -.438518808572448D+03
 0.408468435861450D+03 -.153208419175459D+03 -.369907726216370D+03 0.864300410280509D+01
 0.228290353476459D+03 0.520278961256749D+02 0.209901824509675D+03 0.731492145046847D+02
 0.958850411034594D+02 0.615049769255328D+02 0.723224834518745D+02 -.134364172365670D+02
 0.106508656170413D+03 -.963507966504396D+01 -.105606601897793D+02 -.683558013709228D+02
 0.178417227160610D+03 0.493106257892950D+02 0.982440784446002D+02 0.140532096627497D+03
0.222471130327D-04 0.000000000000D+00 0.000000000000D+00 0.145691580405D-06 0.000000000000D+00  7 -2 2 24 -11 11 -24 21 0 0.18875075D-01 0.21696484D+00 0.15812595D+06 0.15812595D+06 0.15812595D+06 0.11057484D+01  1  2  2  2  7  2        2 0.901908092159D-03 0.100000000000D+01
-.123290533310D-05 0.000000000000D+00 -.854347718449D-07 0.145691580405D-06 0.000000000000D+00  7 -2 2 24 -11 11 -24 21 2 0.18875075D-01 0.21696484D+00 0.15812595D+06 0.15812595D+06 0.15812595D+06 0.11057484D+01  1  2  3  2  7  2        2 -.611126272786D-04 0.100000000000D+01
0.135310461393D-05 0.000000000000D+00 0.000000000000D+00 0.145691580405D-06 0.000000000000D+00  7 -2 2 24 -11 11 -24 21 2 0.18875075D-01 0.21696484D+00 0.15812595D+06 0.15812595D+06 0.15812595D+06 0.11057484D+01  1  2 15  2  7  2        2 0.670706628645D-04 0.100000000000D+01
-.248254305836D-05 0.000000000000D+00 0.000000000000D+00 0.145691580405D-06 0.000000000000D+00  7 -2 2 24 -11 11 -24 21 2 0.18875075D-01 0.21696484D+00 0.15812595D+06 0.15812595D+06 0.15812595D+06 0.11057484D+01  1  2  4  2  7  2        2 -.123054645443D-03 0.100000000000D+01
  </mgrwgt>
  </event>
  <event>
  8     66 0.27011060E-05 0.20079807E+03 0.75467711E-02 0.95884896E-01
       -2 -1    0    0    0  501 0.00000000E+00 0.00000000E+00 0.81117998E+03 0.81118005E+03 0.32000000E+00 0.0000E+00 0.9000E+01
        2 -1    0    0  501    0 0.00000000E+00 0.00000000E+00 -.65430656E+02 0.65431439E+02 0.32000000E+00 0.0000E+00 0.9000E+01
       25  2    1    2    0    0 -.20669097E+02 0.68336173E+02 0.35997905E+03 0.47405072E+03 0.30007021E+03 0.0000E+00 0.0000E+00
       23  2    1    2    0    0 0.20669097E+02 -.68336173E+02 0.38577028E+03 0.40256076E+03 0.90218696E+02 0.0000E+00 0.0000E+00
       24  1    3    3    0    0 0.29531996E+02 -.89726852E+02 0.13968093E+03 0.18681816E+03 0.80419002E+02 0.0000E+00 0.9000E+01
      -11  1    4    4    0    0 0.36662075E+02 -.18859757E+02 0.60822460E+02 0.73479044E+02 0.51099893E-03 0.0000E+00 0.9000E+01
       11  1    4    4    0    0 -.15992978E+02 -.49476417E+02 0.32494782E+03 0.32908172E+03 0.51099893E-03 0.0000E+00 0.9000E+01
      -24  1    3    3    0    0 -.50201093E+02 0.15806303E+03 0.22029811E+03 0.28723256E+03 0.80419002E+02 0.0000E+00 0.9000E+01
#aMCatNLO 1  0  0  2  1 0.35212184D+03 0.00000000D+00  -5  7  0 0.00000000D+00 0.00000000D+00 0.00000000D+00 0.00000000D+00 0.00000000D+00
  <mgrwgt>
 0.8350379704D-03    5    2    0
 0.230383179688968D+03 0.000000000000000D+00 0.000000000000000D+00 0.230383179688968D+03
 0.230383179688968D+03 0.000000000000000D+00 0.000000000000000D+00 -.230383179688968D+03
 0.129349688669459D+03 0.295319963238576D+02 -.897268522177390D+02 -.366207480636184D+02
 0.413534194881441D+02 0.366620747200174D+02 -.188597565655313D+02 -.321047704791307D+01
 0.100153135042749D+03 -.159929777377110D+02 -.494764165525459D+02 0.855976595888651D+02
 0.189910116177585D+03 -.502010933061640D+02 0.158063025335816D+03 -.457664344773336D+02
 0.000000000000000D+00 0.000000000000000D+00 0.000000000000000D+00 -.000000000000000D+00
 0.458984634072227D+03 0.000000000000000D+00 0.000000000000000D+00 0.458984634072227D+03
 0.473339538584121D+03 0.000000000000000D+00 0.000000000000000D+00 -.473339538584121D+03
 0.228474111716054D+03 0.162387979413555D+02 -.210067670103589D+03 -.366207480636184D+02
 0.632959324825256D+02 0.327743383680821D+02 -.540547005402096D+02 -.321047704791307D+01
 0.164974060621699D+03 -.258424858049967D+02 -.138642155487930D+03 0.855976595888651D+02
 0.123165742679069D+03 -.618319001336302D+02 0.527715246739446D+02 -.457664344773336D+02
 0.352414325157001D+03 0.386612496291893D+02 0.349993001457784D+03 -.143549045118935D+02
0.168806745972D-04 0.000000000000D+00 0.000000000000D+00 0.391489468878D-06 0.000000000000D+00  7 -2 2 24 -11 11 -24 21 0 0.12479699D+00 0.10066320D-01 0.40319866D+05 0.40319866D+05 0.40319866D+05 0.11556071D+01  1  2  2  2  7  2        2 0.669203707335D-03 0.100000000000D+01
-.916274983363D-06 0.000000000000D+00 -.648262352371D-07 0.391489468878D-06 0.000000000000D+00  7 -2 2 24 -11 11 -24 21 2 0.12479699D+00 0.10066320D-01 0.40319866D+05 0.40319866D+05 0.40319866D+05 0.11556071D+01  1  2  3  2  7  2        2 -.485081601236D-04 0.100000000000D+01
0.101903533763D-05 0.000000000000D+00 0.000000000000D+00 0.391489468878D-06 0.000000000000D+00  7 -2 2 24 -11 11 -24 21 2 0.12479699D+00 0.10066320D-01 0.40319866D+05 0.40319866D+05 0.40319866D+05 0.11556071D+01  1  2 15  2  7  2        2 0.539483563632D-04 0.100000000000D+01
0.945285640368D-05 0.000000000000D+00 -.694616995046D-05 0.391489468878D-06 0.000000000000D+00  7 -2 2 24 -11 11 -24 21 2 0.12479699D+00 0.41829199D-01 0.40319866D+05 0.40319866D+05 0.40319866D+05 0.11556071D+01  1  2  5  2  7  2        2 0.946341663905D-04 0.100000000000D+01
0.165118803072D-05 0.000000000000D+00 -.118635108691D-05 0.391489468878D-06 0.000000000000D+00  7 -2 21 24 -11 11 -24 -2 2 0.12479699D+00 0.41829199D-01 0.40319866D+05 0.40319866D+05 0.40319866D+05 0.11556071D+01  1  2  5  4  7  2        2 0.657599003985D-04 0.100000000000D+01
  </mgrwgt>
  </event>
  <event>
  8     66 0.27011060E-05 0.19160415E+03 0.75467711E-02 0.98522703E-01
       -2 -1    0    0    0  501 0.00000000E+00 0.00000000E+00 0.43233341E+03 0.43233353E+03 0.32000000E+00 0.0000E+00 0.9000E+01
        2 -1    0    0  501    0 0.00000000E+00 0.00000000E+00 -.10269581E+03 0.10269631E+03 0.32000000E+00 0.0000E+00 0.9000E+01
       25  2    1    2    0    0 0.83320436E+01 -.61862036E+02 0.25123368E+03 0.39645603E+03 0.30027102E+03 0.0000E+00 0.0000E+00
       23  2    1    2    0    0 -.83320436E+01 0.61862036E+02 0.78403922E+02 0.13857381E+03 0.95703667E+02 0.0000E+00 0.0000E+00
       24  1    3    3    0    0 0.86624711E+02 0.32397088E+02 0.22219251E+02 0.12455650E+03 0.80419002E+02 0.0000E+00 0.9000E+01
      -13  1    4    4    0    0 0.11072677E+02 0.83952706E+02 0.61517987E+02 0.10466678E+03 0.10565837E+00 0.0000E+00 0.9000E+01
       13  1    4    4    0    0 -.19404720E+02 -.22090669E+02 0.16885936E+02 0.33907032E+02 0.10565837E+00 0.0000E+00 0.9000E+01
      -24  1    3    3    0    0 -.78292667E+02 -.94259124E+02 0.22901443E+03 0.27189952E+03 0.80419002E+02 0.0000E+00 0.9000E+01
#aMCatNLO 1  0  0  2  1 0.26232326D+03 0.00000000D+00  -5  7  0 0.00000000D+00 0.00000000D+00 0.00000000D+00 0.00000000D+00 0.00000000D+00
  <mgrwgt>
 0.2065820113D-02    3    2    0
 0.210710688977795D+03 0.000000000000000D+00 0.000000000000000D+00 0.210710688977795D+03
 0.210710688977795D+03 0.000000000000000D+00 0.000000000000000D+00 -.210710688977795D+03
 0.140754451727702D+03 0.866250205767423D+02 0.323947869282374D+02 -.692190964745171D+02
 0.847654047639583D+02 0.110713812370727D+02 0.839546983880812D+02 -.376921488739976D+01
 0.298367560548929D+02 -.194041002479520D+02 -.220876472189625D+02 -.508416618309031D+01
 0.166064765409037D+03 -.782923015658630D+02 -.942618380973561D+02 0.780724775450072D+02
 0.000000000000000D+00 -.000000000000000D+00 -.000000000000000D+00 0.000000000000000D+00
 0.387897529732013D+03 0.000000000000000D+00 0.000000000000000D+00 0.387897529732013D+03
 0.371343995090176D+03 0.000000000000000D+00 0.000000000000000D+00 -.371343995090176D+03
 0.195170250522927D+03 0.103587599246610D+03 0.126895771010648D+03 -.692190964745171D+02
 0.152501027237570D+03 0.230521926855324D+02 0.150701535294222D+03 -.376921488739976D+01
 0.194783904066146D+02 -.169139229973214D+02 -.821450886516653D+01 -.508416618309031D+01
 0.129246818760880D+03 -.633804896477619D+02 -.111859727977227D+02 0.780724775450072D+02
 0.262845037894197D+03 -.463453792870592D+02 -.258196824641981D+03 0.165535346418366D+02
0.210102838800D-04 0.000000000000D+00 0.000000000000D+00 0.213357048499D-07 0.000000000000D+00  7 -2 2 24 -13 13 -24 21 0 0.66512880D-01 0.15799403D-01 0.36712149D+05 0.36712149D+05 0.36712149D+05 0.11592864D+01  1  2  2  2  7  2        2 0.203648730688D-02 0.100000000000D+01
-.115441508092D-05 0.000000000000D+00 -.806850222340D-07 0.213357048499D-07 0.000000000000D+00  7 -2 2 24 -13 13 -24 21 2 0.66512880D-01 0.15799403D-01 0.36712149D+05 0.36712149D+05 0.36712149D+05 0.11592864D+01  1  2  3  2  7  2        2 -.150381105410D-03 0.100000000000D+01
0.137959120030D-05 0.000000000000D+00 0.000000000000D+00 0.213357048499D-07 0.000000000000D+00  7 -2 2 24 -13 13 -24 21 2 0.66512880D-01 0.15799403D-01 0.36712149D+05 0.36712149D+05 0.36712149D+05 0.11592864D+01  1  2 15  2  7  2        2 0.179713911524D-03 0.100000000000D+01
  </mgrwgt>
  </event>
  <event>
  8     66 0.27011060E-05 0.35756530E+03 0.75467711E-02 0.94570905E-01
       -2 -1    0    0    0  501 0.00000000E+00 0.00000000E+00 0.62229115E+02 0.62229938E+02 0.32000000E+00 0.0000E+00 0.9000E+01
        2 -1    0    0  501    0 0.00000000E+00 0.00000000E+00 -.32278324E+04 0.32278324E+04 0.32000000E+00 0.0000E+00 0.9000E+01
       25  2    1    2    0    0 0.76968612E+02 -.28185673E+03 -.78193842E+03 0.88681261E+03 0.29940195E+03 0.0000E+00 0.0000E+00
       23  2    1    2    0    0 -.76968612E+02 0.28185673E+03 -.23836649E+04 0.24032497E+04 0.91562807E+02 0.0000E+00 0.0000E+00
       24  1    3    3    0    0 0.13978586E+03 -.73825066E+02 -.43332272E+03 0.46821578E+03 0.80419002E+02 0.0000E+00 0.9000E+01
      -11  1    4    4    0    0 -.91133577E+02 0.27612527E+03 -.22791166E+04 0.22975907E+04 0.51099893E-03 0.0000E+00 0.9000E+01
       11  1    4    4    0    0 0.14164965E+02 0.57314632E+01 -.10454826E+03 0.10565905E+03 0.51099893E-03 0.0000E+00 0.9000E+01
      -24  1    3    3    0    0 -.62817245E+02 -.20803167E+03 -.34861571E+03 0.41859683E+03 0.80419002E+02 0.0000E+00 0.9000E+01
#aMCatNLO 1  0  0  1  1 0.25457469D+03 0.00000000D+00  -5  7  0 0.00000000D+00 0.00000000D+00 0.00000000D+00 0.00000000D+00 0.00000000D+00
  <mgrwgt>
 0.1151710700D-02    4    2    0
 0.448181361811441D+03 0.000000000000000D+00 0.000000000000000D+00 0.448181361811441D+03
 0.448181361811441D+03 0.000000000000000D+00 0.000000000000000D+00 -.448181361811441D+03
 0.188239982859398D+03 0.139785857173429D+03 -.738250657730212D+02 0.630622628077588D+02
 0.384261440686758D+03 -.911335774353471D+02 0.276125270540832D+03 -.251209794457244D+03
 0.185935254956582D+02 0.141649653000777D+02 0.573146319694407D+01 -.105935488872881D+02
 0.305267774581067D+03 -.628172450381595D+02 -.208031667964755D+03 0.198741080536774D+03
 0.000000000000000D+00 -.000000000000000D+00 -.000000000000000D+00 -.000000000000000D+00
 0.575606655754340D+03 0.000000000000000D+00 0.000000000000000D+00 0.575606655754340D+03
 0.613599955637554D+03 0.000000000000000D+00 0.000000000000000D+00 -.613599955637554D+03
 0.185027390506650D+03 0.152455893791394D+03 -.234151818519974D+02 0.630622628077588D+02
 0.469205634731458D+03 -.621638365221169D+02 0.391386285223883D+03 -.251209794457244D+03
 0.218881884731746D+02 0.155390602115022D+02 0.111985322410197D+02 -.105935488872881D+02
 0.255691216867470D+03 -.437762801160530D+02 -.132273968093022D+03 0.198741080536774D+03
 0.257394180813141D+03 -.620548373647263D+02 -.246895667519884D+03 -.379932998832140D+02
0.132953557966D-03 0.000000000000D+00 0.000000000000D+00 0.222454582044D-05 0.000000000000D+00  7 -2 2 24 -11 11 -24 21 0 0.95737745D-02 0.49658966D+00 0.12785294D+06 0.12785294D+06 0.12785294D+06 0.11130690D+01  1  2  2  1  7  1       -2 0.145691461020D-02 0.100000000000D+01
-.692809889320D-05 0.000000000000D+00 -.510576670064D-06 0.222454582044D-05 0.000000000000D+00  7 -2 2 24 -11 11 -24 21 2 0.95737745D-02 0.49658966D+00 0.12785294D+06 0.12785294D+06 0.12785294D+06 0.11130690D+01  1  2  3  1  7  1       -2 -.940572704334D-04 0.100000000000D+01
0.813579761337D-05 0.000000000000D+00 0.000000000000D+00 0.222454582044D-05 0.000000000000D+00  7 -2 2 24 -11 11 -24 21 2 0.95737745D-02 0.49658966D+00 0.12785294D+06 0.12785294D+06 0.12785294D+06 0.11130690D+01  1  2 15  1  7  1       -2 0.110453232280D-03 0.100000000000D+01
-.236885007288D-04 0.000000000000D+00 0.000000000000D+00 0.222454582044D-05 0.000000000000D+00  7 -2 2 24 -11 11 -24 21 2 0.95737745D-02 0.49658966D+00 0.12785294D+06 0.12785294D+06 0.12785294D+06 0.11130690D+01  1  2  4  1  7  1       -2 -.321599872282D-03 0.100000000000D+01
  </mgrwgt>
  </event>
  <event>
  8     66 0.27011060E-05 0.36870409E+03 0.75467711E-02 0.89125397E-01
       -2 -1    0    0    0  501 0.00000000E+00 0.00000000E+00 0.34750870E+03 0.34750885E+03 0.32000000E+00 0.0000E+00 0.9000E+01
        2 -1    0    0  501    0 0.00000000E+00 0.00000000E+00 -.12509128E+04 0.12509128E+04 0.32000000E+00 0.0000E+00 0.9000E+01
       25  2    1    2    0    0 0.12285885E+03 -.30011358E+03 0.16962687E+03 0.47375623E+03 0.30084753E+03 0.0000E+00 0.0000E+00
       23  2    1    2    0    0 -.12285885E+03 0.30011358E+03 -.10730309E+04 0.11246654E+04 0.91183692E+02 0.0000E+00 0.0000E+00
       24  1    3    3    0    0 -.30781039E+02 -.45455200E+02 0.13103635E+03 0.16325253E+03 0.80419002E+02 0.0000E+00 0.9000E+01
      -13  1    4    4    0    0 0.14167986E+01 0.73297192E+02 -.32564546E+03 0.33379554E+03 0.10565837E+00 0.0000E+00 0.9000E+01
       13  1    4    4    0    0 -.12427564E+03 0.22681639E+03 -.74738546E+03 0.79086987E+03 0.10565837E+00 0.0000E+00 0.9000E+01
      -24  1    3    3    0    0 0.15363988E+03 -.25465838E+03 0.38590519E+02 0.31050370E+03 0.80419002E+02 0.0000E+00 0.9000E+01
#aMCatNLO 1  0  0  2  1 0.66432585D+03 0.00000000D+00  -5  7  0 0.00000000D+00 0.00000000D+00 0.00000000D+00 0.00000000D+00 0.00000000D+00
  <mgrwgt>
 0.7866534129D-03    5    2    0
 0.659320270010454D+03 0.000000000000000D+00 0.000000000000000D+00 0.659320270010454D+03
 0.659320270010454D+03 0.000000000000000D+00 0.000000000000000D+00 -.659320270010454D+03
 0.287663803535123D+03 -.307810386220334D+02 -.454551999992077D+02 0.270683579783304D+03
 0.181517338263001D+03 0.141696732916839D+01 0.732969862824404D+02 -.166054473277851D+03
 0.446636450557584D+03 -.124275813099425D+03 0.226816594575275D+03 -.364134417036387D+03
 0.402822947665200D+03 0.153639884392290D+03 -.254658380858508D+03 0.259505310530934D+03
 0.000000000000000D+00 0.000000000000000D+00 -.000000000000000D+00 -.000000000000000D+00
 0.852241901705028D+03 0.000000000000000D+00 0.000000000000000D+00 0.852241901705028D+03
 0.170628890777806D+04 0.000000000000000D+00 0.000000000000000D+00 -.170628890777806D+04
 0.329812759756944D+03 -.170409981924296D+03 -.279714815563359D+00 0.270683579783304D+03
 0.213939557356967D+03 -.880070395717890D+02 0.102229189042660D+03 -.166054473277851D+03
 0.594860099300806D+03 -.359787687322405D+03 0.303013999876130D+03 -.364134417036387D+03
 0.337917875945721D+03 -.138626000910250D+02 -.200464702763996D+03 0.259505310530934D+03
 0.108200051712265D+04 0.632067308909515D+03 -.204498771339231D+03 -.854047006073031D+03
0.996610300594D-04 0.000000000000D+00 0.000000000000D+00 0.371779487838D-05 0.000000000000D+00  7 -2 2 24 -13 13 -24 21 0 0.53462892D-01 0.19244813D+00 0.13594271D+06 0.13594271D+06 0.13594271D+06 0.11109402D+01  1  2  2  2  7  2        2 0.766335673049D-03 0.100000000000D+01
-.326263195815D-05 0.000000000000D+00 -.382724596780D-06 0.371779487838D-05 0.000000000000D+00  7 -2 2 24 -13 13 -24 21 2 0.53462892D-01 0.19244813D+00 0.13594271D+06 0.13594271D+06 0.13594271D+06 0.11109402D+01  1  2  3  2  7  2        2 -.309630059513D-04 0.100000000000D+01
0.586176290338D-05 0.000000000000D+00 0.000000000000D+00 0.371779487838D-05 0.000000000000D+00  7 -2 2 24 -13 13 -24 21 2 0.53462892D-01 0.19244813D+00 0.13594271D+06 0.13594271D+06 0.13594271D+06 0.11109402D+01  1  2 15  2  7  2        2 0.556292594416D-04 0.100000000000D+01
-.854700117821D-05 0.000000000000D+00 -.282695998408D-04 0.371779487838D-05 0.000000000000D+00  7 -2 2 24 -13 13 -24 21 2 0.53462892D-01 0.52879781D+00 0.13594271D+06 0.13594271D+06 0.13594271D+06 0.11109402D+01  1  2  5  2  7  2        2 -.436171920953D-05 0.100000000000D+01
0.647535908668D-06 0.000000000000D+00 -.319764354236D-05 0.371779487838D-05 0.000000000000D+00  7 -2 21 24 -13 13 -24 -2 2 0.53462892D-01 0.52879781D+00 0.13594271D+06 0.13594271D+06 0.13594271D+06 0.11109402D+01  1  2  5  4  7  2        2 0.132055784393D-07 0.100000000000D+01
  </mgrwgt>
  </event>
  <event>
  8     66 0.27011060E-05 0.37931550E+03 0.75467711E-02 0.88659055E-01
       -2 -1    0    0    0  501 0.00000000E+00 0.00000000E+00 0.29197738E+03 0.29197756E+03 0.32000000E+00 0.0000E+00 0.9000E+01
        2 -1    0    0  501    0 0.00000000E+00 0.00000000E+00 -.16273428E+04 0.16273428E+04 0.32000000E+00 0.0000E+00 0.9000E+01
       25  2    1    2    0    0 0.35164285E+03 -.86644254E+02 -.14536634E+04 0.15276791E+04 0.29917593E+03 0.0000E+00 0.0000E+00
       23  2    1    2    0    0 -.35164285E+03 0.86644254E+02 0.11829806E+03 0.39164121E+03 0.90711004E+02 0.0000E+00 0.0000E+00
       24  1    3    3    0    0 0.16713005E+03 -.46874150E+02 -.29922638E+03 0.35515248E+03 0.80419002E+02 0.0000E+00 0.9000E+01
      -11  1    4    4    0    0 -.39781355E+02 0.97726761E+01 -.15355220E+02 0.43747505E+02 0.51099893E-03 0.0000E+00 0.9000E+01
       11  1    4    4    0    0 -.31186150E+03 0.76871578E+02 0.13365328E+03 0.34789371E+03 0.51099893E-03 0.0000E+00 0.9000E+01
      -24  1    3    3    0    0 0.18451281E+03 -.39770104E+02 -.11544371E+04 0.11725267E+04 0.80419002E+02 0.0000E+00 0.9000E+01
#aMCatNLO 1  0  0  1  2 0.75333923D+03 0.00000000D+00  -5  7  0 0.00000000D+00 0.00000000D+00 0.00000000D+00 0.00000000D+00 0.00000000D+00
  <mgrwgt>
 0.1205470590D-02    5    2    0
 0.689309422104003D+03 0.000000000000000D+00 0.000000000000000D+00 0.689309422104003D+03
 0.689309422104003D+03 0.000000000000000D+00 0.000000000000000D+00 -.689309422104003D+03
 0.204606826749271D+03 0.167130048281231D+03 -.468741501334997D+02 -.725747794265421D+02
 0.460320466589075D+02 -.397813547882481D+02 0.977267606114287D+01 0.209973315786396D+02
 0.613799412768915D+03 -.311861500103129D+03 0.768715776367307D+02 0.523051512205568D+03
 0.514180558030913D+03 0.184512806610146D+03 -.397701035643738D+02 -.471474064357666D+03
 0.000000000000000D+00 0.000000000000000D+00 -.000000000000000D+00 0.000000000000000D+00
 0.211204299895796D+04 0.000000000000000D+00 0.000000000000000D+00 0.211204299895796D+04
 0.892466543184166D+03 0.000000000000000D+00 0.000000000000000D+00 -.892466543184166D+03
 0.139122870224314D+03 0.864218564152896D+02 -.123337419303597D+02 -.725747794265421D+02
 0.745425321719436D+02 -.680924269129915D+02 0.218888685472967D+02 0.209973315786396D+02
 0.872660388742620D+03 -.660884246516049D+03 0.226241645960250D+03 0.523051512205568D+03
 0.484696141482459D+03 -.500247763352645D+02 0.606041418079965D+02 -.471474064357666D+03
 0.143348760952079D+04 0.692579593349015D+03 -.296400914385183D+03 0.121957645577380D+04
0.174611730597D-03 0.000000000000D+00 0.000000000000D+00 0.440734325626D-05 0.000000000000D+00  7 -2 2 24 -11 11 -24 21 0 0.44919613D-01 0.25036044D+00 0.14388025D+06 0.14388025D+06 0.14388025D+06 0.11089823D+01  1  2  2  1  7  1       -2 0.117127524563D-02 0.100000000000D+01
-.549242282836D-05 0.000000000000D+00 -.670555021817D-06 0.440734325626D-05 0.000000000000D+00  7 -2 2 24 -11 11 -24 21 2 0.44919613D-01 0.25036044D+00 0.14388025D+06 0.14388025D+06 0.14388025D+06 0.11089823D+01  1  2  3  1  7  1       -2 -.453104877641D-04 0.100000000000D+01
0.967737741430D-05 0.000000000000D+00 0.000000000000D+00 0.440734325626D-05 0.000000000000D+00  7 -2 2 24 -11 11 -24 21 2 0.44919613D-01 0.25036044D+00 0.14388025D+06 0.14388025D+06 0.14388025D+06 0.11089823D+01  1  2 15  1  7  1       -2 0.798348387628D-04 0.100000000000D+01
-.617262747774D-05 0.000000000000D+00 -.572287668334D-04 0.440734325626D-05 0.000000000000D+00  7 -2 2 24 -11 11 -24 21 2 0.16247820D+00 0.25036044D+00 0.14388025D+06 0.14388025D+06 0.14388025D+06 0.11089823D+01  1  2  5  1  7  1       -2 -.261065658340D-05 0.100000000000D+01
0.628781069670D-06 0.000000000000D+00 -.865410813242D-05 0.440734325626D-05 0.000000000000D+00  7 21 2 24 -11 11 -24 2 2 0.16247820D+00 0.25036044D+00 0.14388025D+06 0.14388025D+06 0.14388025D+06 0.11089823D+01  1  2  5  3  7  1       -2 0.228164950795D-05 0.100000000000D+01
  </mgrwgt>
  </event>
  <event>
  8     66 0.27011060E-05 0.24595499E+03 0.75467711E-02 0.10130325E+00
       -2 -1    0    0    0  501 0.00000000E+00 0.00000000E+00 0.49190305E+02 0.49191346E+02 0.32000000E+00 0.0000E+00 0.9000E+01
        2 -1    0    0  501    0 0.00000000E+00 0.00000000E+00 -.15650510E+04 0.15650510E+04 0.32000000E+00 0.0000E+00 0.9000E+01
       25  2    1    2    0    0 0.32743893E+02 -.15073567E+03 -.12435771E+04 0.12885691E+04 0.30022131E+03 0.0000E+00 0.0000E+00
       23  2    1    2    0    0 -.32743893E+02 0.15073567E+03 -.27228355E+03 0.32567327E+03 0.90173933E+02 0.0000E+00 0.0000E+00
       24  1    3    3    0    0 0.21758281E+02 -.21702599E+03 -.83311708E+03 0.86494219E+03 0.80419002E+02 0.0000E+00 0.9000E+01
      -11  1    4    4    0    0 -.21068612E+02 0.70983067E+02 -.50310101E+02 0.89518649E+02 0.51099893E-03 0.0000E+00 0.9000E+01
       11  1    4    4    0    0 -.11675281E+02 0.79752607E+02 -.22197345E+03 0.23615462E+03 0.51099893E-03 0.0000E+00 0.9000E+01
      -24  1    3    3    0    0 0.10985612E+02 0.66290319E+02 -.41046005E+03 0.42362691E+03 0.80419002E+02 0.0000E+00 0.9000E+01
#aMCatNLO 1  0  0  1  2 0.82109844D+02 0.00000000D+00  -5  7  0 0.00000000D+00 0.00000000D+00 0.00000000D+00 0.00000000D+00 0.00000000D+00
  <mgrwgt>
 0.1007841481D-02    4    2    0
 0.277463874382476D+03 0.000000000000000D+00 0.000000000000000D+00 0.277463874382476D+03
 0.277463874382476D+03 0.000000000000000D+00 0.000000000000000D+00 -.277463874382476D+03
 0.240277945139939D+03 0.217582814398964D+02 -.217025993636888D+03 -.607665223705028D+02
 0.122974012351658D+03 -.210686117554335D+02 0.709830674920163D+02 0.981841404809778D+02
 0.806050195605588D+02 -.116752814214008D+02 0.797526073772035D+02 -.615303686625303D+00
 0.111070771712797D+03 0.109856117369380D+02 0.662903187676683D+02 -.368023144238497D+02
 0.000000000000000D+00 0.000000000000000D+00 0.000000000000000D+00 -.000000000000000D+00
 0.297323160128314D+03 0.000000000000000D+00 0.000000000000000D+00 0.297323160128314D+03
 0.380583832163186D+03 0.000000000000000D+00 0.000000000000000D+00 -.380583832163186D+03
 0.264085357146897D+03 -.366171145714006D+01 -.244065322266875D+03 -.607665223705028D+02
 0.118795828364290D+03 -.332538512561097D+02 0.580215888390347D+02 0.981841404809778D+02
 0.740681331466282D+02 -.194708336064067D+02 0.714604533142037D+02 -.615303686625303D+00
 0.104020228557227D+03 0.144990156641098D+00 0.547591145438800D+02 -.368023144238497D+02
 0.116937445076458D+03 0.562414061630153D+02 0.598241655697568D+02 -.832606720348725D+02
0.809435945665D-05 0.000000000000D+00 0.000000000000D+00 0.848447285344D-06 0.000000000000D+00  7 -2 2 24 -11 11 -24 21 0 0.75678218D-02 0.24077716D+00 0.60493859D+05 0.60493859D+05 0.60493859D+05 0.11400878D+01  1  2  2  1  7  1       -2 0.115099678100D-02 0.100000000000D+01
-.441742082040D-06 0.000000000000D+00 -.310844716073D-07 0.848447285344D-06 0.000000000000D+00  7 -2 2 24 -11 11 -24 21 2 0.75678218D-02 0.24077716D+00 0.60493859D+05 0.60493859D+05 0.60493859D+05 0.11400878D+01  1  2  3  1  7  1       -2 -.816463978482D-04 0.100000000000D+01
0.512595333841D-06 0.000000000000D+00 0.000000000000D+00 0.848447285344D-06 0.000000000000D+00  7 -2 2 24 -11 11 -24 21 2 0.75678218D-02 0.24077716D+00 0.60493859D+05 0.60493859D+05 0.60493859D+05 0.11400878D+01  1  2 15  1  7  1       -2 0.947420774781D-04 0.100000000000D+01
-.845384912539D-06 0.000000000000D+00 0.000000000000D+00 0.848447285344D-06 0.000000000000D+00  7 -2 2 24 -11 11 -24 21 2 0.75678218D-02 0.24077716D+00 0.60493859D+05 0.60493859D+05 0.60493859D+05 0.11400878D+01  1  2  4  1  7  1       -2 -.156250979271D-03 0.100000000000D+01
  </mgrwgt>
  </event>
  <event>
  8     66 0.27011060E-05 0.30657855E+03 0.75467711E-02 0.97231317E-01
       -2 -1    0    0    0  501 0.00000000E+00 0.00000000E+00 0.17980910E+03 0.17980938E+03 0.32000000E+00 0.0000E+00 0.9000E+01
        2 -1    0    0  501    0 0.00000000E+00 0.00000000E+00 -.16332455E+04 0.16332455E+04 0.32000000E+00 0.0000E+00 0.9000E+01
       25  2    1    2    0    0 0.66438877E+02 0.33219934E+03 -.13831015E+04 0.14557956E+04 0.30265607E+03 0.0000E+00 0.0000E+00
       23  2    1    2    0    0 -.66438877E+02 -.33219934E+03 -.70334905E+02 0.35725926E+03 0.88975596E+02 0.0000E+00 0.0000E+00
       24  1    3    3    0    0 -.71297382E+02 0.25402749E+03 -.88378653E+03 0.92582889E+03 0.80419002E+02 0.0000E+00 0.9000E+01
      -11  1    4    4    0    0 -.58639388E+02 -.26349545E+03 -.17999363E+02 0.27054095E+03 0.51099893E-03 0.0000E+00 0.9000E+01
       11  1    4    4    0    0 -.77994892E+01 -.68703891E+02 -.52335542E+02 0.86718312E+02 0.51099893E-03 0.0000E+00 0.9000E+01
      -24  1    3    3    0    0 0.13773626E+03 0.78171846E+02 -.49931494E+03 0.52996674E+03 0.80419002E+02 0.0000E+00 0.9000E+01
#aMCatNLO 1  0  0  2  1 0.70324917D+01 0.00000000D+00  -5  7  0 0.00000000D+00 0.00000000D+00 0.00000000D+00 0.00000000D+00 0.00000000D+00
  <mgrwgt>
 0.1254840600D-02   11    2    0
 0.541915749775287D+03 0.000000000000000D+00 0.000000000000000D+00 0.541915749775287D+03
 0.541915749775287D+03 0.000000000000000D+00 0.000000000000000D+00 -.541915749775287D+03
 0.363572287124159D+03 -.712973818257500D+02 0.254027491689193D+03 -.236863481400599D+03
 0.428428830391887D+03 -.586393880912793D+02 -.263495446429752D+03 0.332690298304634D+03
 0.748812701385234D+02 -.779948923288443D+01 -.687038914237206D+02 0.287427884607992D+02
 0.216949111896004D+03 0.137736259149914D+03 0.781718461642797D+02 -.124569605364834D+03
 0.000000000000000D+00 0.000000000000000D+00 -.000000000000000D+00 -.000000000000000D+00
 0.543126122262693D+03 0.000000000000000D+00 0.000000000000000D+00 0.543126122262693D+03
 0.552239372705855D+03 0.000000000000000D+00 0.000000000000000D+00 -.552239372705855D+03
 0.364263704747082D+03 -.736364540852611D+02 0.254350534597897D+03 -.236863481400599D+03
 0.428580853674828D+03 -.613935904122981D+02 -.263115071037190D+03 0.332690298304634D+03
 0.748719901888116D+02 -.828075658008231D+01 -.686374248991953D+02 0.287427884607992D+02
 0.216137766026182D+03 0.136344432538672D+03 0.783640675525158D+02 -.124569605364834D+03
 0.115111803316432D+02 0.696636853896969D+01 -.962106214027610D+00 -.911325044316204D+01
0.200180831639D-04 0.000000000000D+00 0.000000000000D+00 0.105204522146D-06 0.000000000000D+00  7 -2 2 24 -11 11 -24 21 0 0.27662962D-01 0.25126856D+00 0.15702792D+06 0.15702792D+06 0.15702792D+06 0.11059861D+01  1  2  2  2  7  2        2 0.321427333298D-03 0.100000000000D+01
-.979627065613D-06 0.000000000000D+00 -.768747102317D-07 0.105204522146D-06 0.000000000000D+00  7 -2 2 24 -11 11 -24 21 2 0.27662962D-01 0.25126856D+00 0.15702792D+06 0.15702792D+06 0.15702792D+06 0.11059861D+01  1  2  3  2  7  2        2 -.192406789216D-04 0.100000000000D+01
0.120595452803D-05 0.000000000000D+00 0.000000000000D+00 0.105204522146D-06 0.000000000000D+00  7 -2 2 24 -11 11 -24 21 2 0.27662962D-01 0.25126856D+00 0.15702792D+06 0.15702792D+06 0.15702792D+06 0.11059861D+01  1  2 15  2  7  2        2 0.236859358856D-04 0.100000000000D+01
0.342329064381D-04 0.000000000000D+00 0.000000000000D+00 0.105204522146D-06 0.000000000000D+00  7 -2 2 24 -11 11 -24 21 2 0.27662962D-01 0.25633284D+00 0.15988700D+06 0.15988700D+06 0.15988700D+06 0.11053709D+01  1  2 12  2  7  2        2 0.644327084913D-03 0.100000000000D+01
-.576804026373D-04 0.000000000000D+00 0.000000000000D+00 0.105204522146D-06 0.000000000000D+00  7 -2 2 24 -11 11 -24 21 2 0.27662962D-01 0.25126856D+00 0.15702792D+06 0.15702792D+06 0.15702792D+06 0.11059861D+01  1  2  4  2  7  2        2 -.113289040919D-02 0.100000000000D+01
-.123691490315D-02 0.000000000000D+00 -.109891191338D-03 0.105204522146D-06 0.000000000000D+00  7 -2 2 24 -11 11 -24 21 2 0.27662962D-01 0.25628923D+00 0.15702792D+06 0.15702792D+06 0.15702792D+06 0.11059861D+01  1  2  5  2  7  2        2 -.233297261004D-01 0.100000000000D+01
0.123886805957D-02 0.000000000000D+00 0.109869688151D-03 0.105204522146D-06 0.000000000000D+00  7 -2 2 24 -11 11 -24 21 2 0.27662962D-01 0.25126856D+00 0.15702792D+06 0.15702792D+06 0.15702792D+06 0.11059861D+01  1  2  6  2  7  2        2 0.243323846361D-01 0.100000000000D+01
0.228102690663D-04 0.000000000000D+00 0.000000000000D+00 0.105204522146D-06 0.138644965378D-07  7 -2 2 24 -11 11 -24 21 2 0.27724748D-01 0.25605528D+00 0.15988700D+06 0.15988700D+06 0.15988700D+06 0.11053709D+01  1  2 11  2  7  2        2 0.428624018180D-03 0.100000000000D+01
0.190934878429D-05 0.000000000000D+00 0.000000000000D+00 0.105204522146D-06 0.000000000000D+00  7 -2 21 24 -11 11 -24 -2 2 0.27662962D-01 0.25633284D+00 0.15988700D+06 0.15988700D+06 0.15988700D+06 0.11053709D+01  1  2 12  4  7  2        2 0.106592483946D-04 0.100000000000D+01
-.443948048849D-05 0.000000000000D+00 -.395814479308D-06 0.105204522146D-06 0.000000000000D+00  7 -2 21 24 -11 11 -24 -2 2 0.27662962D-01 0.25628923D+00 0.15702792D+06 0.15702792D+06 0.15702792D+06 0.11059861D+01  1  2  5  4  7  2        2 -.248667238789D-04 0.100000000000D+01
0.816927541763D-07 0.000000000000D+00 0.000000000000D+00 0.105204522146D-06 0.477149045476D-10  7 -2 21 24 -11 11 -24 -2 2 0.27724748D-01 0.25605528D+00 0.15988700D+06 0.15988700D+06 0.15988700D+06 0.11053709D+01  1  2 11  4  7  2        2 0.456256009506D-06 0.100000000000D+01
  </mgrwgt>
  </event>
  <event>
  8     66 0.27011060E-05 0.17189592E+03 0.75467711E-02 0.99681172E-01
       -2 -1    0    0    0  501 0.00000000E+00 0.00000000E+00 0.17412984E+03 0.17413013E+03 0.32000000E+00 0.0000E+00 0.9000E+01
        2 -1    0    0  501    0 0.00000000E+00 0.00000000E+00 -.11866289E+04 0.11866290E+04 0.32000000E+00 0.0000E+00 0.9000E+01
       25  2    1    2    0    0 -.11553972E+03 0.11701331E+03 -.12432022E+02 0.34282550E+03 0.30055486E+03 0.0000E+00 0.0000E+00
       23  2    1    2    0    0 0.11553972E+03 -.11701331E+03 -.10000671E+04 0.10179336E+04 0.94937575E+02 0.0000E+00 0.0000E+00
       24  1    3    3    0    0 -.63141156E+02 -.48512213E+02 -.81432713E+02 0.13942289E+03 0.80419002E+02 0.0000E+00 0.9000E+01
      -11  1    4    4    0    0 0.45937335E+01 0.16012136E+02 -.85937787E+02 0.87537387E+02 0.51099893E-03 0.0000E+00 0.9000E+01
       11  1    4    4    0    0 0.11094599E+03 -.13302545E+03 -.91412927E+03 0.93039621E+03 0.51099893E-03 0.0000E+00 0.9000E+01
      -24  1    3    3    0    0 -.52398567E+02 0.16552552E+03 0.69000691E+02 0.20340261E+03 0.80419002E+02 0.0000E+00 0.9000E+01
#aMCatNLO 1  0  0  2  1 0.15115593D+03 0.00000000D+00  -5  7  0 0.00000000D+00 0.00000000D+00 0.00000000D+00 0.00000000D+00 0.00000000D+00
  <mgrwgt>
 0.1107179814D-02    9    2    0
 0.454563230891164D+03 0.000000000000000D+00 0.000000000000000D+00 0.454563230891164D+03
 0.454563230891164D+03 0.000000000000000D+00 0.000000000000000D+00 -.454563230891164D+03
 0.117992849957184D+03 -.631411556833774D+02 -.485122128947668D+02 0.333894645909187D+02
 0.353145205281378D+02 0.459373354260555D+01 0.160121356461302D+02 -.311387938803309D+02
 0.374524414490820D+03 0.110945989023768D+03 -.133025445664525D+03 -.332059867154982D+03
 0.381294676806187D+03 -.523985668829962D+02 0.165525522913161D+03 0.329809196444394D+03
 0.000000000000000D+00 0.000000000000000D+00 0.000000000000000D+00 -.000000000000000D+00
 0.509149310689950D+03 0.000000000000000D+00 0.000000000000000D+00 0.509149310689950D+03
 0.578952510224838D+03 0.000000000000000D+00 0.000000000000000D+00 -.578952510224838D+03
 0.132113942130655D+03 -.827448744232957D+02 -.550027923103588D+02 0.333894645909187D+02
 0.342374682658782D+02 -.857848218680550D+00 0.142071758407148D+02 -.311387938803309D+02
 0.369105970150586D+03 0.526592036659056D+02 -.152323570385853D+03 -.332059867154982D+03
 0.386149389598470D+03 -.112551901787761D+03 0.145609403808827D+03 0.329809196444394D+03
 0.166495050769198D+03 0.143495420763831D+03 0.475097830466693D+02 -.698031995348880D+02
0.408440252918D-04 0.000000000000D+00 0.000000000000D+00 0.432754080325D-06 0.000000000000D+00  7 -2 2 24 -11 11 -24 21 0 0.26789232D-01 0.18255832D+00 0.61104962D+05 0.61104962D+05 0.61104962D+05 0.11397115D+01  1  2  2  2  7  2        2 0.124936716948D-02 0.100000000000D+01
-.124533790448D-05 0.000000000000D+00 -.156851811599D-06 0.432754080325D-06 0.000000000000D+00  7 -2 2 24 -11 11 -24 21 2 0.26789232D-01 0.18255832D+00 0.61104962D+05 0.61104962D+05 0.61104962D+05 0.11397115D+01  1  2  3  2  7  2        2 -.494810139952D-04 0.100000000000D+01
0.236163735216D-05 0.000000000000D+00 0.000000000000D+00 0.432754080325D-06 0.000000000000D+00  7 -2 2 24 -11 11 -24 21 2 0.26789232D-01 0.18255832D+00 0.61104962D+05 0.61104962D+05 0.61104962D+05 0.11397115D+01  1  2 15  2  7  2        2 0.938349426715D-04 0.100000000000D+01
0.122595693751D-04 0.000000000000D+00 0.000000000000D+00 0.432754080325D-06 0.000000000000D+00  7 -2 2 24 -11 11 -24 21 2 0.26789232D-01 0.24112757D+00 0.10732975D+06 0.10732975D+06 0.10732975D+06 0.11192098D+01  1  2 12  2  7  2        2 0.286434470468D-03 0.100000000000D+01
-.321272901085D-04 0.000000000000D+00 0.000000000000D+00 0.432754080325D-06 0.000000000000D+00  7 -2 2 24 -11 11 -24 21 2 0.26789232D-01 0.18255832D+00 0.61104962D+05 0.61104962D+05 0.61104962D+05 0.11397115D+01  1  2  4  2  7  2        2 -.127651369621D-02 0.100000000000D+01
-.383775119604D-04 0.000000000000D+00 -.191923444875D-04 0.432754080325D-06 0.000000000000D+00  7 -2 2 24 -11 11 -24 21 2 0.26789232D-01 0.24715693D+00 0.61104962D+05 0.61104962D+05 0.61104962D+05 0.11397115D+01  1  2  5  2  7  2        2 -.902194449010D-03 0.100000000000D+01
0.430494644286D-04 0.000000000000D+00 0.183440678102D-04 0.432754080325D-06 0.000000000000D+00  7 -2 2 24 -11 11 -24 21 2 0.26789232D-01 0.18255832D+00 0.61104962D+05 0.61104962D+05 0.61104962D+05 0.11397115D+01  1  2  6  2  7  2        2 0.171048447510D-02 0.100000000000D+01
0.448746474542D-06 0.000000000000D+00 0.000000000000D+00 0.432754080325D-06 0.000000000000D+00  7 -2 21 24 -11 11 -24 -2 2 0.26789232D-01 0.24112757D+00 0.10732975D+06 0.10732975D+06 0.10732975D+06 0.11192098D+01  1  2 12  4  7  2        2 0.356213639489D-05 0.100000000000D+01
-.105712792826D-05 0.000000000000D+00 -.747154050388D-06 0.432754080325D-06 0.000000000000D+00  7 -2 21 24 -11 11 -24 -2 2 0.26789232D-01 0.24715693D+00 0.61104962D+05 0.61104962D+05 0.61104962D+05 0.11397115D+01  1  2  5  4  7  2        2 -.831422113900D-05 0.100000000000D+01
  </mgrwgt>
  </event>
  <event>
  9     66 -.27011060E-05 0.22249549E+03 0.75467711E-02 0.10416330E+00
       -4 -1    0    0    0  502 0.00000000E+00 0.00000000E+00 0.53773986E+03 0.53774210E+03 0.15500000E+01 0.0000E+00 0.9000E+01
        4 -1    0    0  501    0 0.00000000E+00 0.00000000E+00 -.13801773E+03 0.13802644E+03 0.15500000E+01 0.0000E+00 0.9000E+01
       25  2    1    2    0    0 0.37933599E+02 -.16583698E+03 0.25317381E+03 0.42724148E+03 0.29916123E+03 0.0000E+00 0.0000E+00
       23  2    1    2    0    0 -.50146739E+02 0.14865118E+03 0.13400632E+03 0.22398369E+03 0.87172993E+02 0.0000E+00 0.0000E+00
       24  1    3    3    0    0 0.65644476E+01 -.16976719E+03 0.33161646E+02 0.19086881E+03 0.80419002E+02 0.0000E+00 0.9000E+01
      -11  1    4    4    0    0 0.17137782E+02 0.28340040E+02 0.20886167E+01 0.33184692E+02 0.51099893E-03 0.0000E+00 0.9000E+01
       11  1    4    4    0    0 -.67284521E+02 0.12031114E+03 0.13191771E+03 0.19079900E+03 0.51099893E-03 0.0000E+00 0.9000E+01
      -24  1    3    3    0    0 0.31369152E+02 0.39302081E+01 0.22001217E+03 0.23637267E+03 0.80419002E+02 0.0000E+00 0.9000E+01
       21  1    1    2  501  502 0.12213140E+02 0.17185796E+02 0.12541992E+02 0.24543358E+02 0.75000000E+00 0.0000E+00 0.9000E+01
#aMCatNLO 2  0  0  1  2 0.21083462D+02 0.00000000D+00  -5  7  0 0.00000000D+00 0.00000000D+00 0.00000000D+00 0.00000000D+00 0.00000000D+00
  <mgrwgt>
 -.5050802845D-04    3    2    0
 0.261601440927701D+03 0.000000000000000D+00 0.000000000000000D+00 0.261601440927701D+03
 0.261601440927701D+03 0.000000000000000D+00 0.000000000000000D+00 -.261601440927701D+03
 0.207609003754529D+03 0.114699599280216D+02 -.162864366538015D+03 -.998895420802318D+02
 0.410899646273670D+02 0.180806530680890D+02 0.296668071236350D+02 -.219398207102681D+02
 0.142245175529770D+03 -.639945396349641D+02 0.124940662560794D+03 0.229830306372754D+02
 0.132258737943735D+03 0.344439266388535D+02 0.825689685358532D+01 0.988463321532246D+02
 0.000000000000000D+00 0.000000000000000D+00 0.000000000000000D+00 -.000000000000000D+00
 0.271157513646436D+03 0.000000000000000D+00 0.000000000000000D+00 0.271157513646436D+03
 0.273707050409766D+03 0.000000000000000D+00 0.000000000000000D+00 -.273707050409766D+03
 0.212859406806325D+03 0.656444759624179D+01 -.169767189180736D+03 -.998895420802318D+02
 0.397267814955501D+02 0.171377818921273D+02 0.283400399966963D+02 -.219398207102681D+02
 0.139750484724290D+03 -.672845208895356D+02 0.120311144671081D+03 0.229830306372754D+02
 0.131290835762778D+03 0.313691518130155D+02 0.393020804851144D+01 0.988463321532246D+02
 0.212370552672597D+02 0.122131395881510D+02 0.171857964644473D+02 -.254953676332964D+01
-.189943411737D-04 0.000000000000D+00 0.000000000000D+00 0.164637243960D-07 0.000000000000D+00  7 -4 4 24 -11 11 -24 21 2 0.84500562D-01 0.20294686D-01 0.54388300D+05 0.54388300D+05 0.54388300D+05 0.11440955D+01  1  2 13  1  7  1       -4 -.151373667661D-03 0.100000000000D+01
-.106093153019D-05 0.000000000000D+00 0.000000000000D+00 0.164637243960D-07 0.000000000000D+00  7 -4 4 24 -11 11 -24 21 2 0.79812556D-01 0.20294686D-01 0.49504244D+05 0.49504244D+05 0.49504244D+05 0.11476762D+01  1  2  8  1  7  1       -4 -.981588659013D-05 0.100000000000D+01
0.142925068366D-04 0.000000000000D+00 0.000000000000D+00 0.164637243960D-07 0.259146758046D-09  7 -4 4 24 -11 11 -24 21 2 0.82728040D-01 0.21233822D-01 0.54388300D+05 0.54388300D+05 0.54388300D+05 0.11440955D+01  1  2  1  1  7  1       -4 0.110681525799D-03 0.100000000000D+01
  </mgrwgt>
  </event>
  <event>
  7     66 0.27011060E-05 0.43229847E+03 0.75467711E-02 0.88269481E-01
       -2 -1    0    0    0  501 0.00000000E+00 0.00000000E+00 0.15980357E+03 0.15980389E+03 0.32000000E+00 0.0000E+00 0.9000E+01
        2 -1    0    0  501    0 0.00000000E+00 0.00000000E+00 -.28976305E+04 0.28976305E+04 0.32000000E+00 0.0000E+00 0.9000E+01
       25  2    1    2    0    0 -.51559313E+03 0.27289040E+03 -.13687174E+04 0.15177730E+04 0.29990370E+03 0.0000E+00 0.0000E+00
       24  1    3    3    0    0 -.46371027E+03 0.13876878E+03 -.10499113E+04 0.11589068E+04 0.80419002E+02 0.0000E+00 0.9000E+01
      -11  1    1    2    0    0 0.41189055E+03 -.73602606E+02 -.55456333E+03 0.69470257E+03 0.51099893E-03 0.0000E+00 0.9000E+01
       11  1    1    2    0    0 0.10370258E+03 -.19928779E+03 -.81454623E+03 0.84495882E+03 0.51099893E-03 0.0000E+00 0.9000E+01
      -24  1    3    3    0    0 -.51882857E+02 0.13412162E+03 -.31880609E+03 0.35886624E+03 0.80419002E+02 0.0000E+00 0.9000E+01
#aMCatNLO 1  0  0  1  2 0.46851008D+03 0.00000000D+00  -5  7  0 0.00000000D+00 0.00000000D+00 0.00000000D+00 0.00000000D+00 0.00000000D+00
  <mgrwgt>
 0.6742096660D-02    7    2    0
 0.680479394229518D+03 0.000000000000000D+00 0.000000000000000D+00 0.680479394229518D+03
 0.680479394229518D+03 0.000000000000000D+00 0.000000000000000D+00 -.680479394229518D+03
 0.491422717691292D+03 -.463710281711083D+03 0.138768785182098D+03 -.272959777849665D+02
 0.445060580208654D+03 0.411890551872307D+03 -.736026169605456D+02 0.151683051494058D+03
 0.259610768359160D+03 0.103702589573444D+03 -.199287788032507D+03 -.130107269223921D+03
 0.164864722199930D+03 -.518828597346678D+02 0.134121619810955D+03 0.572019551482931D+01
 0.000000000000000D+00 0.000000000000000D+00 -.000000000000000D+00 0.000000000000000D+00
 0.110820184645516D+04 0.000000000000000D+00 0.000000000000000D+00 0.110820184645516D+04
 0.860910481139678D+03 0.000000000000000D+00 0.000000000000000D+00 -.860910481139678D+03
 0.668286370558726D+03 -.604245753484558D+03 0.272546245824126D+03 -.272959777849665D+02
 0.350522308527150D+03 0.315480497198936D+03 0.181713112285732D+02 0.151683051494058D+03
 0.201404201120131D+03 0.478360305485661D+02 -.146107716788980D+03 -.130107269223921D+03
 0.219130900180043D+03 -.984160864696164D+02 0.178417176153593D+03 0.572019551482931D+01
 0.529768547208787D+03 0.339345312206673D+03 -.323027016417313D+03 0.247291365315480D+03
0.190279173829D-02 0.000000000000D+00 0.000000000000D+00 0.617393555616D-09 0.000000000000D+00  7 -2 2 24 -11 11 -24 21 0 0.24585190D-01 0.44578933D+00 0.42152527D+06 0.42152527D+06 0.42152527D+06 0.10737905D+01  1  2  2  1  7  1       -2 0.687011937292D-02 0.100000000000D+01
-.105426973204D-03 0.000000000000D+00 -.730722129161D-05 0.617393555616D-09 0.000000000000D+00  7 -2 2 24 -11 11 -24 21 2 0.24585190D-01 0.44578933D+00 0.42152527D+06 0.42152527D+06 0.42152527D+06 0.10737905D+01  1  2  3  1  7  1       -2 -.438898240511D-03 0.100000000000D+01
0.115021290371D-03 0.000000000000D+00 0.000000000000D+00 0.617393555616D-09 0.000000000000D+00  7 -2 2 24 -11 11 -24 21 2 0.24585190D-01 0.44578933D+00 0.42152527D+06 0.42152527D+06 0.42152527D+06 0.10737905D+01  1  2 15  1  7  1       -2 0.478839906251D-03 0.100000000000D+01
0.131693171714D-03 0.000000000000D+00 0.000000000000D+00 0.617393555616D-09 0.000000000000D+00  7 -2 2 24 -11 11 -24 21 2 0.41636121D-01 0.44578933D+00 0.83269057D+06 0.83269057D+06 0.83269057D+06 0.10531985D+01  1  2 12  1  7  1       -2 0.194201180502D-03 0.100000000000D+01
-.477238976480D-03 0.000000000000D+00 -.572875003226D-03 0.617393555616D-09 0.000000000000D+00  7 -2 2 24 -11 11 -24 21 2 0.56320536D-01 0.44578933D+00 0.42152527D+06 0.42152527D+06 0.42152527D+06 0.10737905D+01  1  2  5  1  7  1       -2 -.421689174428D-03 0.100000000000D+01
0.774339978870D-05 0.000000000000D+00 0.000000000000D+00 0.617393555616D-09 0.000000000000D+00  7 21 2 24 -11 11 -24 2 2 0.41636121D-01 0.44578933D+00 0.83269057D+06 0.83269057D+06 0.83269057D+06 0.10531985D+01  1  2 12  3  7  1       -2 0.120193051925D-03 0.100000000000D+01
-.679150324314D-05 0.000000000000D+00 -.516574718057D-04 0.617393555616D-09 0.000000000000D+00  7 21 2 24 -11 11 -24 2 2 0.56320536D-01 0.44578933D+00 0.42152527D+06 0.42152527D+06 0.42152527D+06 0.10737905D+01  1  2  5  3  7  1       -2 -.606694362454D-04 0.100000000000D+01
  </mgrwgt>
  </event>
  <event>
  8     66 0.27011060E-05 0.31522874E+03 0.75467711E-02 0.92627770E-01
       -2 -1    0    0    0  501 0.00000000E+00 0.00000000E+00 0.40986444E+03 0.40986456E+03 0.32000000E+00 0.0000E+00 0.9000E+01
        2 -1    0    0  501    0 0.00000000E+00 0.00000000E+00 -.48843623E+03 0.48843634E+03 0.32000000E+00 0.0000E+00 0.9000E+01
       25  2    1    2    0    0 -.93912599E+01 0.28298697E+03 0.22626133E+03 0.47230810E+03 0.30283812E+03 0.0000E+00 0.0000E+00
       23  2    1    2    0    0 0.93912599E+01 -.28298697E+03 -.30483313E+03 0.42599280E+03 0.91524929E+02 0.0000E+00 0.0000E+00
       24  1    3    3    0    0 -.12206108E+02 0.42605571E+02 0.19672676E+03 0.21710104E+03 0.80419002E+02 0.0000E+00 0.9000E+01
      -11  1    4    4    0    0 -.95285624E+01 -.30648707E+02 -.31724888E+01 0.32252154E+02 0.51099893E-03 0.0000E+00 0.9000E+01
       11  1    4    4    0    0 0.18919822E+02 -.25233826E+03 -.30166064E+03 0.39374065E+03 0.51099893E-03 0.0000E+00 0.9000E+01
      -24  1    3    3    0    0 0.28148481E+01 0.24038139E+03 0.29534570E+02 0.25520706E+03 0.80419002E+02 0.0000E+00 0.9000E+01
#aMCatNLO 1  0  0  2  2 0.42233321D+03 0.00000000D+00  -5  7  0 0.00000000D+00 0.00000000D+00 0.00000000D+00 0.00000000D+00 0.00000000D+00
  <mgrwgt>
 0.1644054192D-02    3    2    0
 0.447429038743212D+03 0.000000000000000D+00 0.000000000000000D+00 0.447429038743212D+03
 0.447429038743212D+03 0.000000000000000D+00 0.000000000000000D+00 -.447429038743212D+03
 0.235209621854607D+03 -.122061079370969D+02 0.426055714369323D+02 0.216545899222722D+03
 0.320976826767793D+02 -.952856244974178D+01 -.306487069259101D+02 -.352837966017425D+00
 0.368768600155840D+03 0.189198223187338D+02 -.252338258136529D+03 -.268249369551818D+03
 0.258782172799198D+03 0.281484806810488D+01 0.240381393625507D+03 0.520563082951144D+02
 0.000000000000000D+00 0.000000000000000D+00 0.000000000000000D+00 0.000000000000000D+00
 0.860984118266048D+03 0.000000000000000D+00 0.000000000000000D+00 0.860984118266048D+03
 0.616515137361314D+03 0.000000000000000D+00 0.000000000000000D+00 -.616515137361314D+03
 0.244489832061902D+03 -.589767053838990D+02 -.542004038653777D+02 0.216545899222722D+03
 0.504735942141674D+02 -.175792448522426D+02 -.473120425334933D+02 -.352837966017425D+00
 0.511124200649371D+03 -.668695435994571D+02 -.429905441188305D+03 -.268249369551818D+03
 0.183425543880166D+03 -.403003127598242D+02 0.151141456098281D+03 0.520563082951144D+02
 0.487986084821755D+03 0.183725806595423D+03 0.380276431488895D+03 0.244468980904733D+03
0.865661032347D-04 0.000000000000D+00 0.000000000000D+00 0.257447579958D-06 0.000000000000D+00  7 -2 2 24 -11 11 -24 21 0 0.63056085D-01 0.75144053D-01 0.99369158D+05 0.99369158D+05 0.99369158D+05 0.11219477D+01  1  2  2  2  7  2        2 0.161448476115D-02 0.100000000000D+01
-.409203286066D-05 0.000000000000D+00 -.332436629800D-06 0.257447579958D-06 0.000000000000D+00  7 -2 2 24 -11 11 -24 21 2 0.63056085D-01 0.75144053D-01 0.99369158D+05 0.99369158D+05 0.99369158D+05 0.11219477D+01  1  2  3  2  7  2        2 -.960661490480D-04 0.100000000000D+01
0.535157206711D-05 0.000000000000D+00 0.000000000000D+00 0.257447579958D-06 0.000000000000D+00  7 -2 2 24 -11 11 -24 21 2 0.63056085D-01 0.75144053D-01 0.99369158D+05 0.99369158D+05 0.99369158D+05 0.11219477D+01  1  2 15  2  7  2        2 0.125635579514D-03 0.100000000000D+01
  </mgrwgt>
  </event>
  <event>
  7     66 0.27011060E-05 0.25937644E+03 0.75467711E-02 0.10036278E+00
       -2 -1    0    0    0  501 0.00000000E+00 0.00000000E+00 0.21569938E+04 0.21569939E+04 0.32000000E+00 0.0000E+00 0.9000E+01
        2 -1    0    0  501    0 0.00000000E+00 0.00000000E+00 -.35771302E+02 0.35772733E+02 0.32000000E+00 0.0000E+00 0.9000E+01
       25  2    1    2    0    0 0.33695255E+02 0.16296902E+03 0.12872523E+04 0.13319425E+04 0.29892809E+03 0.0000E+00 0.0000E+00
       24  1    3    3    0    0 0.12402353E+03 0.14523306E+03 0.97153440E+03 0.99338854E+03 0.80419002E+02 0.0000E+00 0.9000E+01
      -11  1    1    2    0    0 -.82103565E+01 -.16359726E+03 0.80798626E+03 0.82442299E+03 0.51099893E-03 0.0000E+00 0.9000E+01
       11  1    1    2    0    0 -.25484898E+02 0.62824267E+00 0.25983963E+02 0.36401113E+02 0.51099893E-03 0.0000E+00 0.9000E+01
      -24  1    3    3    0    0 -.90328277E+02 0.17735964E+02 0.31571791E+03 0.33855395E+03 0.80419002E+02 0.0000E+00 0.9000E+01
#aMCatNLO 1  0  0  2  2 0.97268582D+02 0.00000000D+00  -5  7  0 0.00000000D+00 0.00000000D+00 0.00000000D+00 0.00000000D+00 0.00000000D+00
  <mgrwgt>
 0.3398062786D-03    4    2    0
 0.277777020008317D+03 0.000000000000000D+00 0.000000000000000D+00 0.277777020008317D+03
 0.277777020008317D+03 0.000000000000000D+00 0.000000000000000D+00 -.277777020008317D+03
 0.211371950297444D+03 0.124023535227208D+03 0.145233073238842D+03 0.416701639728162D+02
 0.168927826874948D+03 -.821036805958787D+01 -.163597270126055D+03 0.412932652659132D+02
 0.444625848727341D+02 -.254848918180935D+02 0.628223506064749D+00 -.364286573704217D+02
 0.130791677971508D+03 -.903282753495270D+02 0.177359733811483D+02 -.465347718683077D+02
 0.000000000000000D+00 -.000000000000000D+00 0.000000000000000D+00 0.000000000000000D+00
 0.479582086627822D+03 0.000000000000000D+00 0.000000000000000D+00 0.479582086627822D+03
 0.293973768650572D+03 0.000000000000000D+00 0.000000000000000D+00 -.293973768650572D+03
 0.221937230114672D+03 0.157325372633095D+03 0.127676320110422D+03 0.416701639728162D+02
 0.183583910751987D+03 0.188818079218988D+02 -.177880285192803D+03 0.412932652659132D+02
 0.411405715334380D+02 -.189058888222241D+02 -.284023170323246D+01 -.364286573704217D+02
 0.117343135444999D+03 -.712579542377578D+02 0.768208609083777D+01 -.465347718683077D+02
 0.209551007433297D+03 -.860433374950123D+02 0.453621106947761D+02 0.185608317977251D+03
0.105590003703D-03 0.000000000000D+00 0.000000000000D+00 0.366538166021D-09 0.000000000000D+00  7 -2 2 24 -11 11 -24 21 0 0.33184532D+00 0.55033891D-02 0.67276138D+05 0.67276138D+05 0.67276138D+05 0.11361279D+01  1  2  2  2  7  2        2 0.354337039340D-03 0.100000000000D+01
-.583260721771D-05 0.000000000000D+00 -.405493416707D-06 0.366538166021D-09 0.000000000000D+00  7 -2 2 24 -11 11 -24 21 2 0.33184532D+00 0.55033891D-02 0.67276138D+05 0.67276138D+05 0.67276138D+05 0.11361279D+01  1  2  3  2  7  2        2 -.252645108230D-04 0.100000000000D+01
0.685108005946D-05 0.000000000000D+00 0.000000000000D+00 0.366538166021D-09 0.000000000000D+00  7 -2 2 24 -11 11 -24 21 2 0.33184532D+00 0.55033891D-02 0.67276138D+05 0.67276138D+05 0.67276138D+05 0.11361279D+01  1  2 15  2  7  2        2 0.296761259331D-04 0.100000000000D+01
-.437306855553D-05 0.000000000000D+00 0.000000000000D+00 0.366538166021D-09 0.000000000000D+00  7 -2 2 24 -11 11 -24 21 2 0.33184532D+00 0.55033891D-02 0.67276138D+05 0.67276138D+05 0.67276138D+05 0.11361279D+01  1  2  4  2  7  2        2 -.189423758067D-04 0.100000000000D+01
  </mgrwgt>
  </event>
  <event>
  8     66 0.27011060E-05 0.20711852E+03 0.75467711E-02 0.10016191E+00
       -2 -1    0    0    0  501 0.00000000E+00 0.00000000E+00 0.95156041E+02 0.95156579E+02 0.32000000E+00 0.0000E+00 0.9000E+01
        2 -1    0    0  501    0 0.00000000E+00 0.00000000E+00 -.64289260E+03 0.64289268E+03 0.32000000E+00 0.0000E+00 0.9000E+01
       25  2    1    2    0    0 0.73536501E+02 0.87390483E+02 -.48055102E+03 0.57720185E+03 0.29864356E+03 0.0000E+00 0.0000E+00
       23  2    1    2    0    0 -.73536501E+02 -.87390483E+02 -.67185539E+02 0.16084741E+03 0.91177193E+02 0.0000E+00 0.0000E+00
       24  1    3    3    0    0 0.60044395E+02 -.48882188E+02 -.36256838E+03 0.37936505E+03 0.80419002E+02 0.0000E+00 0.9000E+01
      -13  1    4    4    0    0 -.75512755E+02 -.22383985E+02 -.22406167E+02 0.81885692E+02 0.10565837E+00 0.0000E+00 0.9000E+01
       13  1    4    4    0    0 0.19762545E+01 -.65006498E+02 -.44779371E+02 0.78961722E+02 0.10565837E+00 0.0000E+00 0.9000E+01
      -24  1    3    3    0    0 0.13492106E+02 0.13627267E+03 -.11798265E+03 0.19783680E+03 0.80419002E+02 0.0000E+00 0.9000E+01
#aMCatNLO 1  0  0  2  2 0.17648721D+03 0.00000000D+00  -5  7  0 0.00000000D+00 0.00000000D+00 0.00000000D+00 0.00000000D+00 0.00000000D+00
  <mgrwgt>
 0.5716829169D-03    3    2    0
 0.247336497311023D+03 0.000000000000000D+00 0.000000000000000D+00 0.247336497311023D+03
 0.247336497311023D+03 0.000000000000000D+00 0.000000000000000D+00 -.247336497311023D+03
 0.164549390315365D+03 0.600443968272035D+02 -.488821862601527D+02 -.120890397364195D+03
 0.973633428668396D+02 -.755128568228093D+02 -.223839335193221D+02 0.572397458840117D+02
 0.682275405386095D+02 0.197635305668834D+01 -.650065525704404D+02 0.206213345700391D+02
 0.164532720901232D+03 0.134921069389174D+02 0.136272672349915D+03 0.430293169101438D+02
 0.000000000000000D+00 -.000000000000000D+00 0.000000000000000D+00 0.000000000000000D+00
 0.555378416752086D+03 0.000000000000000D+00 0.000000000000000D+00 0.555378416752086D+03
 0.289203983931558D+03 0.000000000000000D+00 0.000000000000000D+00 -.289203983931558D+03
 0.202212657247998D+03 0.112773365605969D+03 -.842046473299157D+02 -.120890397364195D+03
 0.854359988625311D+02 -.492320002105621D+02 -.399891428770283D+02 0.572397458840117D+02
 0.859335794690848D+02 0.241399246088427D+02 -.798536453820326D+02 0.206213345700391D+02
 0.151631156119906D+03 0.589466334123550D+02 0.105823267042200D+03 0.430293169101438D+02
 0.319369008984123D+03 -.146627923416605D+03 0.982241685467769D+02 0.266174432820527D+03
0.306198480506D-05 0.000000000000D+00 0.000000000000D+00 0.725744619005D-07 0.000000000000D+00  7 -2 2 24 -13 13 -24 21 0 0.14639438D-01 0.98906602D-01 0.42898082D+05 0.42898082D+05 0.42898082D+05 0.11531939D+01  1  2  2  2  7  2        2 0.564365037994D-03 0.100000000000D+01
-.163596895331D-06 0.000000000000D+00 -.117588278905D-07 0.725744619005D-07 0.000000000000D+00  7 -2 2 24 -13 13 -24 21 2 0.14639438D-01 0.98906602D-01 0.42898082D+05 0.42898082D+05 0.42898082D+05 0.11531939D+01  1  2  3  2  7  2        2 -.400993015903D-04 0.100000000000D+01
0.193452334737D-06 0.000000000000D+00 0.000000000000D+00 0.725744619005D-07 0.000000000000D+00  7 -2 2 24 -13 13 -24 21 2 0.14639438D-01 0.98906602D-01 0.42898082D+05 0.42898082D+05 0.42898082D+05 0.11531939D+01  1  2 15  2  7  2        2 0.474171804928D-04 0.100000000000D+01
  </mgrwgt>
  </event>
  <event>
  8     66 0.27011060E-05 0.19079817E+03 0.75467711E-02 0.95061178E-01
       -2 -1    0    0    0  501 0.00000000E+00 0.00000000E+00 0.42343876E+03 0.42343888E+03 0.32000000E+00 0.0000E+00 0.9000E+01
        2 -1    0    0  501    0 0.00000000E+00 0.00000000E+00 -.89285484E+03 0.89285490E+03 0.32000000E+00 0.0000E+00 0.9000E+01
       25  2    1    2    0    0 -.24473763E+03 -.32277594E+03 -.68294745E+03 0.84881722E+03 0.29998773E+03 0.0000E+00 0.0000E+00
       23  2    1    2    0    0 0.24473763E+03 0.32277594E+03 0.21353137E+03 0.46747656E+03 0.94116282E+02 0.0000E+00 0.0000E+00
       24  1    3    3    0    0 -.10131555E+03 -.21951670E+03 -.56959976E+03 0.62399000E+03 0.80419002E+02 0.0000E+00 0.9000E+01
      -13  1    4    4    0    0 0.14097412E+03 0.22090142E+03 0.91259116E+02 0.27748761E+03 0.10565837E+00 0.0000E+00 0.9000E+01
       13  1    4    4    0    0 0.10376351E+03 0.10187452E+03 0.12227226E+03 0.18998895E+03 0.10565837E+00 0.0000E+00 0.9000E+01
      -24  1    3    3    0    0 -.14342208E+03 -.10325924E+03 -.11334769E+03 0.22482722E+03 0.80419002E+02 0.0000E+00 0.9000E+01
#aMCatNLO 1  0  0  2  1 0.96711063D+02 0.00000000D+00  -5  7  0 0.00000000D+00 0.00000000D+00 0.00000000D+00 0.00000000D+00 0.00000000D+00
  <mgrwgt>
 0.1146925654D-02    9    2    0
 0.614873537232009D+03 0.000000000000000D+00 0.000000000000000D+00 0.614873537232009D+03
 0.614873537232009D+03 0.000000000000000D+00 0.000000000000000D+00 -.614873537232009D+03
 0.450478710317998D+03 -.101315549568978D+03 -.219516703452707D+03 -.371498894771153D+03
 0.331851850098238D+03 0.140974162322511D+03 0.220901568050537D+03 0.203603617855637D+03
 0.250033292230089D+03 0.103763464691096D+03 0.101874372657320D+03 0.203399613604338D+03
 0.197383221817692D+03 -.143422077444629D+03 -.103259237255151D+03 -.355043366888211D+02
 0.000000000000000D+00 -.000000000000000D+00 0.000000000000000D+00 -.000000000000000D+00
 0.646851244154473D+03 0.000000000000000D+00 0.000000000000000D+00 0.646851244154473D+03
 0.694508646429827D+03 0.000000000000000D+00 0.000000000000000D+00 -.694508646429827D+03
 0.455924742498967D+03 -.729286586424532D+02 -.240977461188392D+03 -.371498894771153D+03
 0.331243565399328D+03 0.161741092518009D+03 0.205201572619793D+03 0.203603617855637D+03
 0.252483119179404D+03 0.119501355489214D+03 0.899763785246313D+02 0.203399613604338D+03
 0.193892612243462D+03 -.131168037161397D+03 -.112523407483671D+03 -.355043366888211D+02
 0.107815851263137D+03 -.771457522033723D+02 0.583229175276393D+02 -.476574022753539D+02
0.886833681284D-04 0.000000000000D+00 0.000000000000D+00 0.142753791989D-05 0.000000000000D+00  7 -2 2 24 -13 13 -24 21 0 0.65144439D-01 0.13736230D+00 0.18336513D+06 0.18336513D+06 0.18336513D+06 0.11007337D+01  1  2  2  2  7  2        2 0.737274147840D-03 0.100000000000D+01
-.414272655090D-05 0.000000000000D+00 -.340567484480D-06 0.142753791989D-05 0.000000000000D+00  7 -2 2 24 -13 13 -24 21 2 0.65144439D-01 0.13736230D+00 0.18336513D+06 0.18336513D+06 0.18336513D+06 0.11007337D+01  1  2  3  2  7  2        2 -.417289624771D-04 0.100000000000D+01
0.574722590240D-05 0.000000000000D+00 0.000000000000D+00 0.142753791989D-05 0.000000000000D+00  7 -2 2 24 -13 13 -24 21 2 0.65144439D-01 0.13736230D+00 0.18336513D+06 0.18336513D+06 0.18336513D+06 0.11007337D+01  1  2 15  2  7  2        2 0.578908047832D-04 0.100000000000D+01
0.147079778284D-03 0.000000000000D+00 0.000000000000D+00 0.142753791989D-05 0.000000000000D+00  7 -2 2 24 -13 13 -24 21 2 0.65144439D-01 0.15838133D+00 0.23159984D+06 0.23159984D+06 0.23159984D+06 0.10929657D+01  1  2 12  2  7  2        2 0.118856134826D-02 0.100000000000D+01
-.146467349483D-03 0.000000000000D+00 0.000000000000D+00 0.142753791989D-05 0.000000000000D+00  7 -2 2 24 -13 13 -24 21 2 0.65144439D-01 0.13736230D+00 0.18336513D+06 0.18336513D+06 0.18336513D+06 0.11007337D+01  1  2  4  2  7  2        2 -.147534008233D-02 0.100000000000D+01
-.312920721351D-03 0.000000000000D+00 -.779229063098D-04 0.142753791989D-05 0.000000000000D+00  7 -2 2 24 -13 13 -24 21 2 0.65144439D-01 0.16021843D+00 0.18336513D+06 0.18336513D+06 0.18336513D+06 0.11007337D+01  1  2  5  2  7  2        2 -.254425823149D-02 0.100000000000D+01
0.322006560883D-03 0.000000000000D+00 0.770089267789D-04 0.142753791989D-05 0.000000000000D+00  7 -2 2 24 -13 13 -24 21 2 0.65144439D-01 0.13736230D+00 0.18336513D+06 0.18336513D+06 0.18336513D+06 0.11007337D+01  1  2  6  2  7  2        2 0.324351596258D-02 0.100000000000D+01
0.321581291377D-05 0.000000000000D+00 0.000000000000D+00 0.142753791989D-05 0.000000000000D+00  7 -2 21 24 -13 13 -24 -2 2 0.65144439D-01 0.15838133D+00 0.23159984D+06 0.23159984D+06 0.23159984D+06 0.10929657D+01  1  2 12  4  7  2        2 0.174787559459D-04 0.100000000000D+01
-.672174536711D-05 0.000000000000D+00 -.181488191559D-05 0.142753791989D-05 0.000000000000D+00  7 -2 21 24 -13 13 -24 -2 2 0.65144439D-01 0.16021843D+00 0.18336513D+06 0.18336513D+06 0.18336513D+06 0.11007337D+01  1  2  5  4  7  2        2 -.364680893659D-04 0.100000000000D+01
  </mgrwgt>
  </event>
  <event>
  8     66 0.27011060E-05 0.39328507E+03 0.75467711E-02 0.94735558E-01
       -2 -1    0    0    0  501 0.00000000E+00 0.00000000E+00 0.83166792E+02 0.83167408E+02 0.32000000E+00 0.0000E+00 0.9000E+01
        2 -1    0    0  501    0 0.00000000E+00 0.00000000E+00 -.21025158E+04 0.21025158E+04 0.32000000E+00 0.0000E+00 0.9000E+01
       25  2    1    2    0    0 -.32493344E+03 -.81199476E+02 -.79956438E+03 0.91740702E+03 0.30026214E+03 0.0000E+00 0.0000E+00
       23  2    1    2    0    0 0.32493344E+03 0.81199476E+02 -.12197846E+04 0.12682762E+04 0.92059268E+02 0.0000E+00 0.0000E+00
       24  1    3    3    0    0 -.40717681E+02 0.73309618E+02 -.22111362E+03 0.24978126E+03 0.80419002E+02 0.0000E+00 0.9000E+01
      -11  1    4    4    0    0 0.12016162E+03 0.11418549E+02 -.59438150E+03 0.60651345E+03 0.51099893E-03 0.0000E+00 0.9000E+01
       11  1    4    4    0    0 0.20477182E+03 0.69780927E+02 -.62540314E+03 0.66176277E+03 0.51099893E-03 0.0000E+00 0.9000E+01
      -24  1    3    3    0    0 -.28421576E+03 -.15450909E+03 -.57845076E+03 0.66762576E+03 0.80419002E+02 0.0000E+00 0.9000E+01
#aMCatNLO 1  0  0  1  2 0.18098970D+03 0.00000000D+00  -5  7  0 0.00000000D+00 0.00000000D+00 0.00000000D+00 0.00000000D+00 0.00000000D+00
  <mgrwgt>
 0.9590231420D-03    4    2    0
 0.418162880443891D+03 0.000000000000000D+00 0.000000000000000D+00 0.418162880443891D+03
 0.418162880443891D+03 0.000000000000000D+00 0.000000000000000D+00 -.418162880443891D+03
 0.118897624201749D+03 -.407176811259721D+02 0.733096184660267D+02 0.252428082934319D+02
 0.149920750959950D+03 0.120161618767261D+03 0.114185486678186D+02 -.889215029672081D+02
 0.219408023391794D+03 0.204771823572201D+03 0.697809272115176D+02 -.365923926125403D+02
 0.348099362334289D+03 -.284215761213490D+03 -.154509094345363D+03 0.100271087286317D+03
 0.000000000000000D+00 -.000000000000000D+00 0.000000000000000D+00 -.000000000000000D+00
 0.470906697959300D+03 0.000000000000000D+00 0.000000000000000D+00 0.470906697959300D+03
 0.618009779578873D+03 0.000000000000000D+00 0.000000000000000D+00 -.618009779578873D+03
 0.109650900324255D+03 -.168354440807213D+02 0.680843039151843D+02 0.252428082934319D+02
 0.178266373907939D+03 0.154455617066089D+03 0.391519259703295D+01 -.889215029672081D+02
 0.264550021046080D+03 0.255343144306789D+03 0.587161740399840D+02 -.365923926125403D+02
 0.303218423138713D+03 -.216156141153750D+03 -.169400200331336D+03 0.100271087286317D+03
 0.233230759121186D+03 -.176807176138406D+03 0.386845297791345D+02 -.147103081619573D+03
0.336442396377D-04 0.000000000000D+00 0.000000000000D+00 0.192001150232D-05 0.000000000000D+00  7 -2 2 24 -11 11 -24 21 0 0.12794940D-01 0.32346402D+00 0.15467314D+06 0.15467314D+06 0.15467314D+06 0.11065020D+01  1  2  2  1  7  1       -2 0.107868794177D-02 0.100000000000D+01
-.186057464133D-05 0.000000000000D+00 -.129202738940D-06 0.192001150232D-05 0.000000000000D+00  7 -2 2 24 -11 11 -24 21 2 0.12794940D-01 0.32346402D+00 0.15467314D+06 0.15467314D+06 0.15467314D+06 0.11065020D+01  1  2  3  1  7  1       -2 -.730359386121D-04 0.100000000000D+01
0.213582344660D-05 0.000000000000D+00 0.000000000000D+00 0.192001150232D-05 0.000000000000D+00  7 -2 2 24 -11 11 -24 21 2 0.12794940D-01 0.32346402D+00 0.15467314D+06 0.15467314D+06 0.15467314D+06 0.11065020D+01  1  2 15  1  7  1       -2 0.838406945183D-04 0.100000000000D+01
-.332368353622D-05 0.000000000000D+00 0.000000000000D+00 0.192001150232D-05 0.000000000000D+00  7 -2 2 24 -11 11 -24 21 2 0.12794940D-01 0.32346402D+00 0.15467314D+06 0.15467314D+06 0.15467314D+06 0.11065020D+01  1  2  4  1  7  1       -2 -.130469555655D-03 0.100000000000D+01
  </mgrwgt>
  </event>
  <event>
  9     66 0.27011060E-05 0.39972258E+03 0.75467711E-02 0.96175913E-01
       21 -1    0    0  502  501 0.00000000E+00 0.00000000E+00 0.17957871E+03 0.17958027E+03 0.75000000E+00 0.0000E+00 0.9000E+01
        2 -1    0    0  501    0 0.00000000E+00 0.00000000E+00 -.12416784E+04 0.12416784E+04 0.32000000E+00 0.0000E+00 0.9000E+01
       25  2    1    2    0    0 0.31191202E+03 -.25394488E+03 -.43513594E+03 0.66381486E+03 0.29921526E+03 0.0000E+00 0.0000E+00
       23  2    1    2    0    0 -.26619871E+03 0.19928721E+03 -.50338882E+03 0.61479732E+03 0.11831440E+03 0.0000E+00 0.0000E+00
       24  1    3    3    0    0 0.13729324E+03 -.22559755E+03 -.13763495E+03 0.30847088E+03 0.80419002E+02 0.0000E+00 0.9000E+01
      -11  1    4    4    0    0 -.18669079E+03 0.13791881E+03 -.24459369E+03 0.33719597E+03 0.51099893E-03 0.0000E+00 0.9000E+01
       11  1    4    4    0    0 -.79507919E+02 0.61368393E+02 -.25879513E+03 0.27760135E+03 0.51099893E-03 0.0000E+00 0.9000E+01
      -24  1    3    3    0    0 0.17461878E+03 -.28347330E+02 -.29750099E+03 0.35534398E+03 0.80419002E+02 0.0000E+00 0.9000E+01
        2  1    1    2  502    0 -.45713315E+02 0.54657671E+02 -.12357492E+03 0.14264652E+03 0.32000000E+00 0.0000E+00 0.9000E+01
#aMCatNLO 2  0  0  1  1 0.71254250D+02 0.00000000D+00  -5  7  0 0.00000000D+00 0.00000000D+00 0.00000000D+00 0.00000000D+00 0.00000000D+00
  <mgrwgt>
 0.1073751875D-03    1    2    0
 0.432707524915863D+03 0.000000000000000D+00 0.000000000000000D+00 0.432707524915863D+03
 0.432707524915863D+03 0.000000000000000D+00 0.000000000000000D+00 -.432707524915863D+03
 0.284989320291344D+03 0.121725200448410D+03 -.206983437095893D+03 0.130738399368803D+03
 0.251507314511449D+03 -.199443175930708D+03 0.153166359963044D+03 0.429127056998799D+01
 0.137561337011198D+03 -.865375263207805D+02 0.697734266206004D+02 -.810311478149507D+02
 0.191357078017735D+03 0.164255501803078D+03 -.159563494877517D+02 -.539985221238407D+02
 0.000000000000000D+00 -.000000000000000D+00 0.000000000000000D+00 -.000000000000000D+00
 0.458519123314213D+03 0.000000000000000D+00 0.000000000000000D+00 0.458519123314213D+03
 0.486304305519436D+03 0.000000000000000D+00 0.000000000000000D+00 -.486304305519436D+03
 0.305456104092408D+03 0.137293238108741D+03 -.225597547134363D+03 0.130738399368803D+03
 0.232149658333980D+03 -.186690786536213D+03 0.137918813379354D+03 0.429127056998799D+01
 0.129048966842817D+03 -.795079193840112D+02 0.613683931858707D+02 -.810311478149507D+02
 0.201688737733742D+03 0.174618783165180D+03 -.283473305376840D+02 -.539985221238407D+02
 0.764799618307023D+02 -.457133153536976D+02 0.546576711068227D+02 -.277851822052236D+02
0.285008729445D-06 0.000000000000D+00 0.000000000000D+00 0.407494795342D-08 0.556359935467D-13  7 21 2 24 -11 11 -24 2 2 0.27627598D-01 0.19102743D+00 0.19105214D+06 0.19105214D+06 0.19105214D+06 0.10993553D+01  1  2  1  3  7  1       -2 0.107375187501D-03 0.100000000000D+01
  </mgrwgt>
  </event>
  <event>
  8     66 0.27011060E-05 0.19029826E+03 0.75467711E-02 0.87507990E-01
       -2 -1    0    0    0  501 0.00000000E+00 0.00000000E+00 0.47904746E+02 0.47905815E+02 0.32000000E+00 0.0000E+00 0.9000E+01
        2 -1    0    0  501    0 0.00000000E+00 0.00000000E+00 -.19570164E+04 0.19570164E+04 0.32000000E+00 0.0000E+00 0.9000E+01
       25  2    1    2    0    0 0.33534145E+02 0.16999267E+01 -.42343826E+03 0.51634590E+03 0.29357402E+03 0.0000E+00 0.0000E+00
       23  2    1    2    0    0 -.33534145E+02 -.16999267E+01 -.14856734E+04 0.14885763E+04 0.86640935E+02 0.0000E+00 0.0000E+00
       24  1    3    3    0    0 -.98248322E+02 0.33884754E+02 -.24642766E+03 0.27927535E+03 0.80419002E+02 0.0000E+00 0.9000E+01
      -11  1    4    4    0    0 -.18386166E+02 -.43392935E+02 -.89476455E+03 0.89600480E+03 0.51099893E-03 0.0000E+00 0.9000E+01
       11  1    4    4    0    0 -.15147979E+02 0.41693008E+02 -.59090884E+03 0.59257153E+03 0.51099893E-03 0.0000E+00 0.9000E+01
      -24  1    3    3    0    0 0.13178247E+03 -.32184827E+02 -.17701059E+03 0.23707055E+03 0.80419002E+02 0.0000E+00 0.9000E+01
#aMCatNLO 1  0  0  2  2 0.95032445D+03 0.00000000D+00  -5  7  0 0.00000000D+00 0.00000000D+00 0.00000000D+00 0.00000000D+00 0.00000000D+00
  <mgrwgt>
 0.4604121152D-02    3    2    0
 0.306188620054284D+03 0.000000000000000D+00 0.000000000000000D+00 0.306188620054284D+03
 0.306188620054284D+03 0.000000000000000D+00 0.000000000000000D+00 -.306188620054284D+03
 0.146098550273304D+03 -.982483220357676D+02 0.338847536291873D+02 0.638487362931792D+02
 0.144052573784236D+03 -.183861662709059D+02 -.433929345416462D+02 -.136125479376882D+03
 0.978953741498346D+02 -.151479788318659D+02 0.416930078573265D+02 -.872681849991986D+02
 0.224330741901194D+03 0.131782467138539D+03 -.321848269448675D+02 0.159544928082901D+03
 0.000000000000000D+00 -.000000000000000D+00 -.000000000000000D+00 0.000000000000000D+00
 0.226489713110866D+04 0.000000000000000D+00 0.000000000000000D+00 0.226489713110866D+04
 0.698110812326451D+03 0.000000000000000D+00 0.000000000000000D+00 -.698110812326451D+03
 0.167118407348831D+03 0.474216110935737D+02 0.123027947213198D+03 0.638487362931792D+02
 0.206455850748531D+03 0.144627162096059D+03 0.563636066691441D+02 -.136125479376882D+03
 0.194451140185104D+03 0.120815595800458D+03 0.124896363508363D+03 -.872681849991986D+02
 0.562515375862807D+03 0.497726323524633D+03 0.191755716789302D+03 0.159544928082901D+03
 0.183246716928984D+04 -.810590692514724D+03 -.496043634180006D+03 0.156678631878221D+04
0.484180483923D-04 0.000000000000D+00 0.000000000000D+00 0.689352178287D-09 0.000000000000D+00  7 -2 2 24 -11 11 -24 21 0 0.73700452D-02 0.30107953D+00 0.36213429D+05 0.36213429D+05 0.36213429D+05 0.11598263D+01  1  2  2  2  7  2        2 0.447561677494D-02 0.100000000000D+01
-.195008908485D-05 0.000000000000D+00 -.185938054591D-06 0.689352178287D-09 0.000000000000D+00  7 -2 2 24 -11 11 -24 21 2 0.73700452D-02 0.30107953D+00 0.36213429D+05 0.36213429D+05 0.36213429D+05 0.11598263D+01  1  2  3  2  7  2        2 -.242485612093D-03 0.100000000000D+01
0.298353177806D-05 0.000000000000D+00 0.000000000000D+00 0.689352178287D-09 0.000000000000D+00  7 -2 2 24 -11 11 -24 21 2 0.73700452D-02 0.30107953D+00 0.36213429D+05 0.36213429D+05 0.36213429D+05 0.11598263D+01  1  2 15  2  7  2        2 0.370989989648D-03 0.100000000000D+01
  </mgrwgt>
  </event>
  <event>
  8     66 0.27011060E-05 0.37916641E+03 0.75467711E-02 0.95619304E-01
       -2 -1    0    0    0  501 0.00000000E+00 0.00000000E+00 0.59372686E+03 0.59372694E+03 0.32000000E+00 0.0000E+00 0.9000E+01
        2 -1    0    0  501    0 0.00000000E+00 0.00000000E+00 -.33773135E+03 0.33773151E+03 0.32000000E+00 0.0000E+00 0.9000E+01
       25  2    1    2    0    0 -.26419424E+03 0.21805782E+03 0.33932078E+03 0.56780750E+03 0.29986490E+03 0.0000E+00 0.0000E+00
       23  2    1    2    0    0 0.26419424E+03 -.21805782E+03 -.83325275E+02 0.36365095E+03 0.89168965E+02 0.0000E+00 0.0000E+00
       24  1    3    3    0    0 -.24695738E+03 0.16678415E+03 0.35412713E+03 0.46976392E+03 0.80419002E+02 0.0000E+00 0.9000E+01
      -13  1    4    4    0    0 0.18040805E+03 -.95039012E+02 -.63045349E+02 0.21343431E+03 0.10565837E+00 0.0000E+00 0.9000E+01
       13  1    4    4    0    0 0.83786191E+02 -.12301881E+03 -.20279927E+02 0.15021664E+03 0.10565837E+00 0.0000E+00 0.9000E+01
      -24  1    3    3    0    0 -.17236860E+02 0.51273669E+02 -.14806356E+02 0.98043575E+02 0.80419002E+02 0.0000E+00 0.9000E+01
#aMCatNLO 1  0  0  2  2 0.14458350D+03 0.00000000D+00  -5  7  0 0.00000000D+00 0.00000000D+00 0.00000000D+00 0.00000000D+00 0.00000000D+00
  <mgrwgt>
 0.5395307560D-03    4    2    0
 0.447794914871163D+03 0.000000000000000D+00 0.000000000000000D+00 0.447794914871163D+03
 0.447794914871163D+03 0.000000000000000D+00 0.000000000000000D+00 -.447794914871163D+03
 0.387354354459496D+03 -.246957380046899D+03 0.166784148121996D+03 0.234032648021497D+03
 0.240003413221204D+03 0.180408184783251D+03 -.950389729060414D+02 -.126578508641891D+03
 0.162029564194478D+03 0.837860552909519D+02 -.123018844306457D+03 -.640299973242059D+02
 0.106202497867147D+03 -.172368600273042D+02 0.512736690905024D+02 -.434241420554003D+02
 0.000000000000000D+00 -.000000000000000D+00 -.000000000000000D+00 0.000000000000000D+00
 0.737824674140047D+03 0.000000000000000D+00 0.000000000000000D+00 0.737824674140047D+03
 0.471979485986051D+03 0.000000000000000D+00 0.000000000000000D+00 -.471979485986051D+03
 0.393205698489525D+03 -.212827816276323D+03 0.219263644157810D+03 0.234032648021497D+03
 0.246127228925004D+03 0.201663982705879D+03 -.623548879198659D+02 -.126578508641891D+03
 0.154852906203620D+03 0.976415689575420D+02 -.101713843767105D+03 -.640299973242059D+02
 0.112999666844537D+03 -.765236459878365D+01 0.660113168737407D+02 -.434241420554003D+02
 0.302618659663412D+03 -.788253707883138D+02 -.121206229344580D+03 0.265845188153996D+03
0.467093449418D-04 0.000000000000D+00 0.000000000000D+00 0.407726518892D-06 0.000000000000D+00  7 -2 2 24 -13 13 -24 21 0 0.91342612D-01 0.51958688D-01 0.14376717D+06 0.14376717D+06 0.14376717D+06 0.11090094D+01  1  2  2  2  7  2        2 0.574050053418D-03 0.100000000000D+01
-.250764406144D-05 0.000000000000D+00 -.179376183430D-06 0.407726518892D-06 0.000000000000D+00  7 -2 2 24 -13 13 -24 21 2 0.91342612D-01 0.51958688D-01 0.14376717D+06 0.14376717D+06 0.14376717D+06 0.11090094D+01  1  2  3  2  7  2        2 -.379037599593D-04 0.100000000000D+01
0.301774324328D-05 0.000000000000D+00 0.000000000000D+00 0.407726518892D-06 0.000000000000D+00  7 -2 2 24 -13 13 -24 21 2 0.91342612D-01 0.51958688D-01 0.14376717D+06 0.14376717D+06 0.14376717D+06 0.11090094D+01  1  2 15  2  7  2        2 0.456140555477D-04 0.100000000000D+01
-.279383333306D-05 0.000000000000D+00 0.000000000000D+00 0.407726518892D-06 0.000000000000D+00  7 -2 2 24 -13 13 -24 21 2 0.91342612D-01 0.51958688D-01 0.14376717D+06 0.14376717D+06 0.14376717D+06 0.11090094D+01  1  2  4  2  7  2        2 -.422295929677D-04 0.100000000000D+01
  </mgrwgt>
  </event>
  <event>
  8     66 0.27011060E-05 0.16005704E+03 0.75467711E-02 0.10222719E+00
       -2 -1    0    0    0  501 0.00000000E+00 0.00000000E+00 0.64104786E+02 0.64105585E+02 0.32000000E+00 0.0000E+00 0.9000E+01
        2 -1    0    0  501    0 0.00000000E+00 0.00000000E+00 -.19720633E+04 0.19720634E+04 0.32000000E+00 0.0000E+00 0.9000E+01
       25  2    1    2    0    0 0.16902308E+02 -.18929187E+03 -.17098715E+04 0.17464299E+04 0.30039942E+03 0.0000E+00 0.0000E+00
       23  2    1    2    0    0 -.16902308E+02 0.18929187E+03 -.19808701E+03 0.28973899E+03 0.92699091E+02 0.0000E+00 0.0000E+00
       24  1    3    3    0    0 0.39407243E+01 -.12313272E+03 -.15382390E+04 0.15452585E+04 0.80419002E+02 0.0000E+00 0.9000E+01
      -11  1    4    4    0    0 0.41580297E+01 -.66175518E+01 -.29195035E+02 0.30223026E+02 0.51099893E-03 0.0000E+00 0.9000E+01
       11  1    4    4    0    0 -.21060337E+02 0.19590942E+03 -.16889198E+03 0.25951597E+03 0.51099893E-03 0.0000E+00 0.9000E+01
      -24  1    3    3    0    0 0.12961583E+02 -.66159143E+02 -.17163252E+03 0.20117150E+03 0.80419002E+02 0.0000E+00 0.9000E+01
#aMCatNLO 1  0  0  2  1 0.74980293D+02 0.00000000D+00  -5  7  0 0.00000000D+00 0.00000000D+00 0.00000000D+00 0.00000000D+00 0.00000000D+00
  <mgrwgt>
 0.8714434593D-03    6    2    0
 0.355555253281168D+03 0.000000000000000D+00 0.000000000000000D+00 0.355555253281168D+03
 0.355555253281168D+03 0.000000000000000D+00 0.000000000000000D+00 -.355555253281168D+03
 0.297437585905578D+03 0.394072427479112D+01 -.123132721834038D+03 -.258504748623500D+03
 0.820726087807518D+01 0.415802968238425D+01 -.661755184559188D+01 -.250557934460239D+01
 0.289940113975062D+03 -.210603373002701D+02 0.195909416901691D+03 0.212699864254565D+03
 0.115525545803621D+03 0.129615833430947D+02 -.661591432220605D+02 0.483104637135370D+02
 0.000000000000000D+00 -.000000000000000D+00 0.000000000000000D+00 0.000000000000000D+00
 0.396048799761292D+03 0.000000000000000D+00 0.000000000000000D+00 0.396048799761292D+03
 0.394011742647938D+03 0.000000000000000D+00 0.000000000000000D+00 -.394011742647938D+03
 0.300835124973847D+03 0.352279998567703D+02 -.126367873404802D+03 -.258504748623500D+03
 0.876062741431081D+01 0.504538253568047D+01 -.670930547142745D+01 -.250557934460239D+01
 0.287213935061782D+03 0.912251653394090D+01 0.192788464208445D+03 0.212699864254565D+03
 0.118242895842079D+03 0.251867400703466D+02 -.674232429000710D+02 0.483104637135370D+02
 0.750079591172114D+02 -.745826389967383D+02 0.771195756785531D+01 0.203705711335418D+01
0.183949287992D-04 0.000000000000D+00 0.000000000000D+00 0.916207040596D-06 0.000000000000D+00  7 -2 2 24 -11 11 -24 21 0 0.98623383D-02 0.30339442D+00 0.52192437D+05 0.52192437D+05 0.52192437D+05 0.11456596D+01  1  2  2  2  7  2        2 0.106866818518D-02 0.100000000000D+01
-.778827484015D-06 0.000000000000D+00 -.706413700851D-07 0.916207040596D-06 0.000000000000D+00  7 -2 2 24 -11 11 -24 21 2 0.98623383D-02 0.30339442D+00 0.52192437D+05 0.52192437D+05 0.52192437D+05 0.11456596D+01  1  2  3  2  7  2        2 -.593878035244D-04 0.100000000000D+01
0.113623990782D-05 0.000000000000D+00 0.000000000000D+00 0.916207040596D-06 0.000000000000D+00  7 -2 2 24 -11 11 -24 21 2 0.98623383D-02 0.30339442D+00 0.52192437D+05 0.52192437D+05 0.52192437D+05 0.11456596D+01  1  2 15  2  7  2        2 0.866415140544D-04 0.100000000000D+01
0.140613230657D-04 0.000000000000D+00 0.000000000000D+00 0.916207040596D-06 0.000000000000D+00  7 -2 2 24 -11 11 -24 21 2 0.98623383D-02 0.35167214D+00 0.72408403D+05 0.72408403D+05 0.72408403D+05 0.11334129D+01  1  2 12  2  7  2        2 0.705074160738D-03 0.100000000000D+01
-.122235090984D-04 0.000000000000D+00 0.000000000000D+00 0.916207040596D-06 0.000000000000D+00  7 -2 2 24 -11 11 -24 21 2 0.98623383D-02 0.30339442D+00 0.52192437D+05 0.52192437D+05 0.52192437D+05 0.11456596D+01  1  2  4  2  7  2        2 -.932077220708D-03 0.100000000000D+01
0.316699848756D-06 0.000000000000D+00 0.000000000000D+00 0.916207040596D-06 0.000000000000D+00  7 -2 21 24 -11 11 -24 -2 2 0.98623383D-02 0.35167214D+00 0.72408403D+05 0.72408403D+05 0.72408403D+05 0.11334129D+01  1  2 12  4  7  2        2 0.252462359009D-05 0.100000000000D+01
  </mgrwgt>
  </event>
  <event>
  8     66 0.27011060E-05 0.28872202E+03 0.75467711E-02 0.98293596E-01
       -2 -1    0    0    0  501 0.00000000E+00 0.00000000E+00 0.40090349E+03 0.40090362E+03 0.32000000E+00 0.0000E+00 0.9000E+01
        2 -1    0    0  501    0 0.00000000E+00 0.00000000E+00 -.36107354E+03 0.36107368E+03 0.32000000E+00 0.0000E+00 0.9000E+01
       25  2    1    2    0    0 0.19790602E+03 0.82398043E+02 -.20600370E+03 0.42272398E+03 0.30050260E+03 0.0000E+00 0.0000E+00
       23  2    1    2    0    0 -.19790602E+03 -.82398043E+02 0.24583365E+03 0.33925332E+03 0.93286672E+02 0.0000E+00 0.0000E+00
       24  1    3    3    0    0 -.27570926E+02 0.89494822E+02 -.34540772E+02 0.12817863E+03 0.80419002E+02 0.0000E+00 0.9000E+01
      -13  1    4    4    0    0 -.38585484E+02 -.12790148E+02 0.11408602E+03 0.12111176E+03 0.10565837E+00 0.0000E+00 0.9000E+01
       13  1    4    4    0    0 -.15932054E+03 -.69607895E+02 0.13174763E+03 0.21814156E+03 0.10565837E+00 0.0000E+00 0.9000E+01
      -24  1    3    3    0    0 0.22547695E+03 -.70967791E+01 -.17146293E+03 0.29454536E+03 0.80419002E+02 0.0000E+00 0.9000E+01
#aMCatNLO 1  0  0  2  1 0.14105360D+03 0.00000000D+00  -5  7  0 0.00000000D+00 0.00000000D+00 0.00000000D+00 0.00000000D+00 0.00000000D+00
  <mgrwgt>
 0.4865772949D-03    4    2    0
 0.380467799801387D+03 0.000000000000000D+00 0.000000000000000D+00 0.380467799801387D+03
 0.380467799801387D+03 0.000000000000000D+00 0.000000000000000D+00 -.380467799801387D+03
 0.130162080187327D+03 -.275709255520479D+02 0.894948222428589D+02 -.412973609355865D+02
 0.115305783462303D+03 -.385853310533776D+02 -.127900757379093D+02 0.107902779806524D+03
 0.211544199843777D+03 -.159320690270532D+03 -.696079675071182D+02 0.120509738190707D+03
 0.303923536109368D+03 0.225476946875958D+03 -.709677899783142D+01 -.187115157061645D+03
 0.000000000000000D+00 0.000000000000000D+00 -.000000000000000D+00 0.000000000000000D+00
 0.518348768743774D+03 0.000000000000000D+00 0.000000000000000D+00 0.518348768743774D+03
 0.424803583716217D+03 0.000000000000000D+00 0.000000000000000D+00 -.424803583716217D+03
 0.149703521752685D+03 -.335704233788975D+02 0.114505384697418D+03 -.412973609355865D+02
 0.116633021299300D+03 -.435574188894082D+02 0.793744462155678D+01 0.107902779806524D+03
 0.209489725016683D+03 -.168346422978376D+03 -.319817097597737D+02 0.120509738190707D+03
 0.298072371554210D+03 0.212571919910286D+03 0.467013874850795D+02 -.187115157061645D+03
 0.169253712837113D+03 0.329023453363960D+02 -.137162507044281D+03 0.935451850275575D+02
0.228655881603D-04 0.000000000000D+00 0.000000000000D+00 0.443295310499D-06 0.000000000000D+00  7 -2 2 24 -13 13 -24 21 0 0.61677481D-01 0.55549797D-01 0.83360407D+05 0.83360407D+05 0.83360407D+05 0.11282665D+01  1  2  2  2  7  2        2 0.623440612190D-03 0.100000000000D+01
-.115270923799D-05 0.000000000000D+00 -.878098791832D-07 0.443295310499D-06 0.000000000000D+00  7 -2 2 24 -13 13 -24 21 2 0.61677481D-01 0.55549797D-01 0.83360407D+05 0.83360407D+05 0.83360407D+05 0.11282665D+01  1  2  3  2  7  2        2 -.400088314882D-04 0.100000000000D+01
0.145883518374D-05 0.000000000000D+00 0.000000000000D+00 0.443295310499D-06 0.000000000000D+00  7 -2 2 24 -13 13 -24 21 2 0.61677481D-01 0.55549797D-01 0.83360407D+05 0.83360407D+05 0.83360407D+05 0.11282665D+01  1  2 15  2  7  2        2 0.506340099584D-04 0.100000000000D+01
-.424934558849D-05 0.000000000000D+00 0.000000000000D+00 0.443295310499D-06 0.000000000000D+00  7 -2 2 24 -13 13 -24 21 2 0.61677481D-01 0.55549797D-01 0.83360407D+05 0.83360407D+05 0.83360407D+05 0.11282665D+01  1  2  4  2  7  2        2 -.147488495783D-03 0.100000000000D+01
  </mgrwgt>
  </event>
  <event>
  8     66 0.27011060E-05 0.26108349E+03 0.75467711E-02 0.87041891E-01
       -2 -1    0    0    0  501 0.00000000E+00 0.00000000E+00 0.23494884E+03 0.23494906E+03 0.32000000E+00 0.0000E+00 0.9000E+01
        2 -1    0    0  501    0 0.00000000E+00 0.00000000E+00 -.44295256E+03 0.44295267E+03 0.32000000E+00 0.0000E+00 0.9000E+01
       25  2    1    2    0    0 -.91513019E+02 -.14802118E+03 0.53645273E+02 0.35083152E+03 0.29986670E+03 0.0000E+00 0.0000E+00
       23  2    1    2    0    0 0.91513019E+02 0.14802118E+03 -.26164899E+03 0.32707021E+03 0.90718396E+02 0.0000E+00 0.0000E+00
       24  1    3    3    0    0 0.54210255E+02 -.14955627E+03 0.46572190E+02 0.18423358E+03 0.80419002E+02 0.0000E+00 0.9000E+01
      -11  1    4    4    0    0 0.60573554E+02 0.64896363E+02 -.20068575E+03 0.21944353E+03 0.51099893E-03 0.0000E+00 0.9000E+01
       11  1    4    4    0    0 0.30939465E+02 0.83124817E+02 -.60963239E+02 0.10762668E+03 0.51099893E-03 0.0000E+00 0.9000E+01
      -24  1    3    3    0    0 -.14572327E+03 0.15350858E+01 0.70730831E+01 0.16659794E+03 0.80419002E+02 0.0000E+00 0.9000E+01
#aMCatNLO 1  0  0  2  2 0.99012919D+03 0.00000000D+00  -5  7  0 0.00000000D+00 0.00000000D+00 0.00000000D+00 0.00000000D+00 0.00000000D+00
  <mgrwgt>
 0.1086657910D-02    3    2    0
 0.322600842614545D+03 0.000000000000000D+00 0.000000000000000D+00 0.322600842614545D+03
 0.322600842614545D+03 0.000000000000000D+00 0.000000000000000D+00 -.322600842614545D+03
 0.208585093748257D+03 0.542102547473961D+02 -.149556266212515D+03 0.108326805991834D+03
 0.165867155922267D+03 0.605735538956824D+02 0.648963632375678D+02 -.140111455708397D+03
 0.934277358624835D+02 0.309394650215815D+02 0.831248171339648D+02 -.293556827379850D+02
 0.177321699696083D+03 -.145723273664660D+03 0.153508584098263D+01 0.611403324545481D+02
 0.000000000000000D+00 0.000000000000000D+00 0.000000000000000D+00 0.000000000000000D+00
 0.163632933340434D+04 0.000000000000000D+00 0.000000000000000D+00 0.163632933340434D+04
 0.825335925414201D+03 0.000000000000000D+00 0.000000000000000D+00 -.825335925414201D+03
 0.471152736531496D+03 -.222416080352841D+03 -.392828302812861D+03 0.108326805991834D+03
 0.168242272478196D+03 -.753957310017277D+02 -.546783867228788D+02 -.140111455708397D+03
 0.512336589724485D+02 -.279319846772033D+02 0.313518091134211D+02 -.293556827379850D+02
 0.491167015336240D+03 -.417771665055723D+03 -.237710993906163D+03 0.611403324545481D+02
 0.127986957550016D+04 0.743515461087496D+03 0.653865874328481D+03 0.810993407990142D+03
0.174917526672D-04 0.000000000000D+00 0.000000000000D+00 0.162578092548D-05 0.000000000000D+00  7 -2 2 24 -11 11 -24 21 0 0.36146001D-01 0.68146573D-01 0.68164587D+05 0.68164587D+05 0.68164587D+05 0.11356419D+01  1  2  2  2  7  2        2 0.107275675781D-02 0.100000000000D+01
-.918874072193D-06 0.000000000000D+00 -.671729359263D-07 0.162578092548D-05 0.000000000000D+00  7 -2 2 24 -11 11 -24 21 2 0.36146001D-01 0.68146573D-01 0.68164587D+05 0.68164587D+05 0.68164587D+05 0.11356419D+01  1  2  3  2  7  2        2 -.726786290329D-04 0.100000000000D+01
0.109462598805D-05 0.000000000000D+00 0.000000000000D+00 0.162578092548D-05 0.000000000000D+00  7 -2 2 24 -11 11 -24 21 2 0.36146001D-01 0.68146573D-01 0.68164587D+05 0.68164587D+05 0.68164587D+05 0.11356419D+01  1  2 15  2  7  2        2 0.865797811939D-04 0.100000000000D+01
  </mgrwgt>
  </event>
  <event>
  9     66 -.27011060E-05 0.19422018E+03 0.75467711E-02 0.10581901E+00
       -2 -1    0    0    0  501 0.00000000E+00 0.00000000E+00 0.67130526E+03 0.67130534E+03 0.32000000E+00 0.0000E+00 0.9000E+01
        2 -1    0    0  502    0 0.00000000E+00 0.00000000E+00 -.10567152E+03 0.10567201E+03 0.32000000E+00 0.0000E+00 0.9000E+01
       25  2    1    2    0    0 -.12324538E+03 0.35821549E+02 0.42889802E+03 0.53787668E+03 0.29813621E+03 0.0000E+00 0.0000E+00
       23  2    1    2    0    0 0.12487618E+03 -.62503030E+02 0.10586748E+03 0.19825986E+03 0.92727349E+02 0.0000E+00 0.0000E+00
       24  1    3    3    0    0 -.11217644E+03 0.15426487E+02 0.43234615E+03 0.45410565E+03 0.80419002E+02 0.0000E+00 0.9000E+01
      -11  1    4    4    0    0 0.95525731E+02 -.85230475E+02 0.95502008E+02 0.15971860E+03 0.51099893E-03 0.0000E+00 0.9000E+01
       11  1    4    4    0    0 0.29350445E+02 0.22727445E+02 0.10365468E+02 0.38541254E+02 0.51099893E-03 0.0000E+00 0.9000E+01
      -24  1    3    3    0    0 -.11068942E+02 0.20395062E+02 -.34481257E+01 0.83771030E+02 0.80419002E+02 0.0000E+00 0.9000E+01
       21  1    1    2  502  501 -.16307993E+01 0.26681482E+02 0.30868240E+02 0.40840809E+02 0.75000000E+00 0.0000E+00 0.9000E+01
#aMCatNLO 2  0  0  2  1 0.26731273D+02 0.00000000D+00  -5  7  0 0.00000000D+00 0.00000000D+00 0.00000000D+00 0.00000000D+00 0.00000000D+00
  <mgrwgt>
 -.4899245479D-03    2    2    0
 0.252590725907192D+03 0.000000000000000D+00 0.000000000000000D+00 0.252590725907192D+03
 0.252590725907192D+03 0.000000000000000D+00 0.000000000000000D+00 -.252590725907192D+03
 0.205222284622995D+03 -.112836101611066D+03 0.262192771540584D+02 0.149095720361943D+03
 0.126832968209768D+03 0.951091209075299D+02 -.784143169803363D+02 -.298672368592098D+02
 0.462943917546993D+02 0.292029894265479D+02 0.251399612094531D+02 -.256581072349014D+02
 0.126831807226923D+03 -.114760087230122D+02 0.270550786168247D+02 -.935703762678321D+02
 0.000000000000000D+00 -.000000000000000D+00 0.000000000000000D+00 0.000000000000000D+00
 0.267210880406714D+03 0.000000000000000D+00 0.000000000000000D+00 0.267210880406714D+03
 0.265465502659338D+03 0.000000000000000D+00 0.000000000000000D+00 -.265465502659338D+03
 0.203760346770834D+03 -.112176435290784D+03 0.154264868653090D+02 0.149095720361943D+03
 0.131458933153464D+03 0.955257314309404D+02 -.852304752000512D+02 -.298672368592098D+02
 0.451256449421200D+02 0.293504448796127D+02 0.227274448615194D+02 -.256581072349014D+02
 0.125543264589234D+03 -.110689417177745D+02 0.203950617478028D+02 -.935703762678321D+02
 0.267881936104012D+02 -.163079930199438D+01 0.266814817254200D+02 0.174537774737551D+01
-.286241530380D-04 0.000000000000D+00 0.000000000000D+00 0.169324432131D-07 0.000000000000D+00  7 -2 2 24 -11 11 -24 21 2 0.97625120D-01 0.16680980D-01 0.42943765D+05 0.42943765D+05 0.42943765D+05 0.11531526D+01  1  2 13  2  7  2        2 -.147876530335D-02 0.100000000000D+01
0.212127747332D-04 0.000000000000D+00 0.000000000000D+00 0.169324432131D-07 0.169004993819D-09  7 -2 2 24 -11 11 -24 21 2 0.10327574D+00 0.16256880D-01 0.42943765D+05 0.42943765D+05 0.42943765D+05 0.11531526D+01  1  2  1  2  7  2        2 0.988840755458D-03 0.100000000000D+01
  </mgrwgt>
  </event>
  <event>
  8     66 0.27011060E-05 0.27891442E+03 0.75467711E-02 0.84997119E-01
       -2 -1    0    0    0  501 0.00000000E+00 0.00000000E+00 0.89307706E+03 0.89307711E+03 0.32000000E+00 0.0000E+00 0.9000E+01
        2 -1    0    0  501    0 0.00000000E+00 0.00000000E+00 -.72472353E+03 0.72472360E+03 0.32000000E+00 0.0000E+00 0.9000E+01
       25  2    1    2    0    0 0.51225468E+02 0.20407838E+03 0.83519668E+03 0.91205701E+03 0.30003746E+03 0.0000E+00 0.0000E+00
       23  2    1    2    0    0 -.51225468E+02 -.20407838E+03 -.66684315E+03 0.70574370E+03 0.95510975E+02 0.0000E+00 0.0000E+00
       24  1    3    3    0    0 0.11533671E+03 0.16870448E+03 0.72374613E+03 0.75633289E+03 0.80419002E+02 0.0000E+00 0.9000E+01
      -11  1    4    4    0    0 -.14464774E+02 -.18926992E+03 -.58030794E+03 0.61056502E+03 0.51099893E-03 0.0000E+00 0.9000E+01
       11  1    4    4    0    0 -.36760693E+02 -.14808461E+02 -.86535211E+02 0.95178684E+02 0.51099893E-03 0.0000E+00 0.9000E+01
      -24  1    3    3    0    0 -.64111237E+02 0.35373901E+02 0.11145054E+03 0.15572412E+03 0.80419002E+02 0.0000E+00 0.9000E+01
#aMCatNLO 1  0  0  2  1 0.12233902D+04 0.00000000D+00  -5  7  0 0.00000000D+00 0.00000000D+00 0.00000000D+00 0.00000000D+00 0.00000000D+00
  <mgrwgt>
 0.1343625602D-02    3    2    0
 0.804508585253828D+03 0.000000000000000D+00 0.000000000000000D+00 0.804508585253828D+03
 0.804508585253828D+03 0.000000000000000D+00 0.000000000000000D+00 -.804508585253828D+03
 0.684735193042668D+03 0.115336705064716D+03 0.168704483618622D+03 0.648560953425812D+03
 0.674616425559879D+03 -.144647742284023D+02 -.189269923664350D+03 -.647360014163526D+03
 0.104752549706535D+03 -.367606934920650D+02 -.148084610730866D+02 -.969662702420249D+02
 0.144913002198573D+03 -.641112373442484D+02 0.353739011188143D+02 0.957653309797392D+02
 0.000000000000000D+00 -.000000000000000D+00 0.000000000000000D+00 0.000000000000000D+00
 0.284371424713540D+04 0.000000000000000D+00 0.000000000000000D+00 0.284371424713540D+04
 0.121476854033950D+04 0.000000000000000D+00 0.000000000000000D+00 -.121476854033950D+04
 0.933623732952038D+03 0.657571234616721D+03 0.110248899645175D+03 0.648560953425812D+03
 0.851961677921984D+03 0.497018399541041D+03 -.244410358265568D+03 -.647360014163526D+03
 0.105010476000752D+03 0.335208452536656D+02 -.223851611281873D+02 -.969662702420249D+02
 0.130695755184601D+03 0.282320509706253D+02 0.254188345373221D+02 0.957653309797392D+02
 0.203719114541553D+04 -.121634253038205D+04 0.131127785211259D+03 0.162894570679590D+04
0.632072626195D-03 0.000000000000D+00 0.000000000000D+00 0.177629616222D-05 0.000000000000D+00  7 -2 2 24 -11 11 -24 21 0 0.13739648D+00 0.11149594D+00 0.77793255D+05 0.77793255D+05 0.77793255D+05 0.11307829D+01  1  2  2  2  7  2        2 0.121692761892D-02 0.100000000000D+01
0.127959120368D-04 0.000000000000D+00 -.242732531313D-05 0.177629616222D-05 0.000000000000D+00  7 -2 2 24 -11 11 -24 21 2 0.13739648D+00 0.11149594D+00 0.77793255D+05 0.77793255D+05 0.77793255D+05 0.11307829D+01  1  2  3  2  7  2        2 0.315012284353D-04 0.100000000000D+01
0.386692633244D-04 0.000000000000D+00 0.000000000000D+00 0.177629616222D-05 0.000000000000D+00  7 -2 2 24 -11 11 -24 21 2 0.13739648D+00 0.11149594D+00 0.77793255D+05 0.77793255D+05 0.77793255D+05 0.11307829D+01  1  2 15  2  7  2        2 0.951967545497D-04 0.100000000000D+01
  </mgrwgt>
  </event>
  <event>
  8     66 0.27011060E-05 0.14179410E+03 0.75467711E-02 0.98895072E-01
       -2 -1    0    0    0  501 0.00000000E+00 0.00000000E+00 0.18303029E+03 0.18303057E+03 0.32000000E+00 0.0000E+00 0.9000E+01
        2 -1    0    0  501    0 0.00000000E+00 0.00000000E+00 -.13307200E+04 0.13307200E+04 0.32000000E+00 0.0000E+00 0.9000E+01
       25  2    1    2    0    0 0.21770220E+03 -.21985248E+03 -.11095577E+04 0.11904839E+04 0.30067315E+03 0.0000E+00 0.0000E+00
       23  2    1    2    0    0 -.21770220E+03 0.21985248E+03 -.38131993E+02 0.32326666E+03 0.85544842E+02 0.0000E+00 0.0000E+00
       24  1    3    3    0    0 0.10185628E+03 -.27808067E+02 -.73270844E+03 0.74463203E+03 0.80419002E+02 0.0000E+00 0.9000E+01
      -13  1    4    4    0    0 -.65199223E+02 0.10555867E+03 -.46514930E+02 0.13250366E+03 0.10565837E+00 0.0000E+00 0.9000E+01
       13  1    4    4    0    0 -.15250298E+03 0.11429381E+03 0.83829376E+01 0.19076299E+03 0.10565837E+00 0.0000E+00 0.9000E+01
      -24  1    3    3    0    0 0.11584593E+03 -.19204442E+03 -.37684924E+03 0.44585189E+03 0.80419002E+02 0.0000E+00 0.9000E+01
#aMCatNLO 1  0  0  2  1 0.11374852D+02 0.00000000D+00  -5  7  0 0.00000000D+00 0.00000000D+00 0.00000000D+00 0.00000000D+00 0.00000000D+00
  <mgrwgt>
 0.1080814992D-02    9    2    0
 0.493520318610457D+03 0.000000000000000D+00 0.000000000000000D+00 0.493520318610457D+03
 0.493520318610457D+03 0.000000000000000D+00 0.000000000000000D+00 -.493520318610457D+03
 0.290023781057504D+03 0.101856276242451D+03 -.278080667325614D+02 -.257873201475337D+03
 0.149125129902191D+03 -.651990900556209D+02 0.105558655455336D+03 0.827330241362300D+02
 0.302306533693758D+03 -.152503113608255D+03 0.114293827569802D+03 0.234667768628688D+03
 0.245585192567460D+03 0.115845927421425D+03 -.192044416292577D+03 -.595275912895809D+02
 0.000000000000000D+00 -.000000000000000D+00 -.000000000000000D+00 -.000000000000000D+00
 0.497927558375664D+03 0.000000000000000D+00 0.000000000000000D+00 0.497927558375664D+03
 0.500947543086287D+03 0.000000000000000D+00 0.000000000000000D+00 -.500947543086287D+03
 0.290093478791013D+03 0.102869538471767D+03 -.246227638206552D+02 -.257873201475337D+03
 0.150066503997160D+03 -.646765067729986D+02 0.107201454331767D+03 0.827330241362300D+02
 0.303049019048471D+03 -.151445768896497D+03 0.117617708685479D+03 0.234667768628688D+03
 0.243897176229179D+03 0.116700882153072D+03 -.189356770668894D+03 -.595275912895809D+02
 0.117689233961270D+02 -.344814495534317D+01 -.108396285276964D+02 -.301998471062318D+01
0.155873639911D-04 0.000000000000D+00 0.000000000000D+00 0.804478586453D-07 0.000000000000D+00  7 -2 2 24 -13 13 -24 21 0 0.28158531D-01 0.20472617D+00 0.11752328D+06 0.11752328D+06 0.11752328D+06 0.11160126D+01  1  2  2  2  7  2        2 0.357744977446D-03 0.100000000000D+01
-.726179019055D-06 0.000000000000D+00 -.598595819732D-07 0.804478586453D-07 0.000000000000D+00  7 -2 2 24 -13 13 -24 21 2 0.28158531D-01 0.20472617D+00 0.11752328D+06 0.11752328D+06 0.11752328D+06 0.11160126D+01  1  2  3  2  7  2        2 -.207578684405D-04 0.100000000000D+01
0.981089119438D-06 0.000000000000D+00 0.000000000000D+00 0.804478586453D-07 0.000000000000D+00  7 -2 2 24 -13 13 -24 21 2 0.28158531D-01 0.20472617D+00 0.11752328D+06 0.11752328D+06 0.11752328D+06 0.11160126D+01  1  2 15  2  7  2        2 0.280444881156D-04 0.100000000000D+01
0.126075127463D-04 0.000000000000D+00 0.000000000000D+00 0.804478586453D-07 0.000000000000D+00  7 -2 2 24 -13 13 -24 21 2 0.28158531D-01 0.20871033D+00 0.12170527D+06 0.12170527D+06 0.12170527D+06 0.11147879D+01  1  2 12  2  7  2        2 0.347609800179D-03 0.100000000000D+01
-.112704067691D-04 0.000000000000D+00 0.000000000000D+00 0.804478586453D-07 0.000000000000D+00  7 -2 2 24 -13 13 -24 21 2 0.28158531D-01 0.20472617D+00 0.11752328D+06 0.11752328D+06 0.11752328D+06 0.11160126D+01  1  2  4  2  7  2        2 -.322165216627D-03 0.100000000000D+01
-.685417608702D-03 0.000000000000D+00 -.888175435637D-04 0.804478586453D-07 0.000000000000D+00  7 -2 2 24 -13 13 -24 21 2 0.28158531D-01 0.20891419D+00 0.11752328D+06 0.11752328D+06 0.11752328D+06 0.11160126D+01  1  2  5  2  7  2        2 -.189260820902D-01 0.100000000000D+01
0.687093509285D-03 0.000000000000D+00 0.887993358685D-04 0.804478586453D-07 0.000000000000D+00  7 -2 2 24 -13 13 -24 21 2 0.28158531D-01 0.20472617D+00 0.11752328D+06 0.11752328D+06 0.11752328D+06 0.11160126D+01  1  2  6  2  7  2        2 0.196406069272D-01 0.100000000000D+01
0.511027781581D-06 0.000000000000D+00 0.000000000000D+00 0.804478586453D-07 0.000000000000D+00  7 -2 21 24 -13 13 -24 -2 2 0.28158531D-01 0.20871033D+00 0.12170527D+06 0.12170527D+06 0.12170527D+06 0.11147879D+01  1  2 12  4  7  2        2 0.616551363249D-05 0.100000000000D+01
-.251188033085D-05 0.000000000000D+00 -.327218965626D-06 0.804478586453D-07 0.000000000000D+00  7 -2 21 24 -13 13 -24 -2 2 0.28158531D-01 0.20891419D+00 0.11752328D+06 0.11752328D+06 0.11752328D+06 0.11160126D+01  1  2  5  4  7  2        2 -.303515389976D-04 0.100000000000D+01
  </mgrwgt>
  </event>
  <event>
  8     66 -.27011060E-05 0.90749244E+02 0.75467711E-02 0.10620167E+00
       -2 -1    0    0    0  501 0.00000000E+00 0.00000000E+00 0.26378025E+02 0.26379966E+02 0.32000000E+00 0.0000E+00 0.9000E+01
        2 -1    0    0  501    0 0.00000000E+00 0.00000000E+00 -.20707292E+04 0.20707292E+04 0.32000000E+00 0.0000E+00 0.9000E+01
       25  2    1    2    0    0 -.24750346E+02 -.10251177E+03 -.12054879E+04 0.12468270E+04 0.30042500E+03 0.0000E+00 0.0000E+00
       23  2    1    2    0    0 0.24750346E+02 0.10251177E+03 -.83886327E+03 0.85028222E+03 0.90371538E+02 0.0000E+00 0.0000E+00
       24  1    3    3    0    0 -.10126840E+03 -.12760203E+03 -.94887719E+03 0.96611216E+03 0.80419002E+02 0.0000E+00 0.9000E+01
      -11  1    4    4    0    0 0.19286130E+02 0.77171586E+02 -.79756776E+03 0.80152463E+03 0.51099893E-03 0.0000E+00 0.9000E+01
       11  1    4    4    0    0 0.54642160E+01 0.25340180E+02 -.41295515E+02 0.48757583E+02 0.51099893E-03 0.0000E+00 0.9000E+01
      -24  1    3    3    0    0 0.76518050E+02 0.25090268E+02 -.25661071E+03 0.28071481E+03 0.80419002E+02 0.0000E+00 0.9000E+01
#aMCatNLO 1  0  0  1  2 0.25118792D+01 0.00000000D+00  -5  7  0 0.00000000D+00 0.00000000D+00 0.00000000D+00 0.00000000D+00 0.00000000D+00
  <mgrwgt>
 -.5971271169D-03   11    2    0
 0.233717367074987D+03 0.000000000000000D+00 0.000000000000000D+00 0.233717367074987D+03
 0.233717367074987D+03 0.000000000000000D+00 0.000000000000000D+00 -.233717367074987D+03
 0.184420378589972D+03 -.101268395688210D+03 -.127602034392633D+03 -.317189681183869D+02
 0.107771390191142D+03 0.192861297846895D+02 0.771715862218918D+02 -.727135752226271D+02
 0.381388898316194D+02 0.546421596094293D+01 0.253401801980980D+02 0.279748552998670D+02
 0.137104075537242D+03 0.765180499425776D+02 0.250902679726435D+02 0.764576880411469D+02
 0.000000000000000D+00 -.000000000000000D+00 0.000000000000000D+00 0.000000000000000D+00
 0.238127101391566D+03 0.000000000000000D+00 0.000000000000000D+00 0.238127101391566D+03
 0.234078720603875D+03 0.000000000000000D+00 0.000000000000000D+00 -.234078720603875D+03
 0.184129932977767D+03 -.100331399220016D+03 -.127922373555547D+03 -.317189681183869D+02
 0.107736858401339D+03 0.198340345386940D+02 0.769842692402250D+02 -.727135752226271D+02
 0.381231739413822D+02 0.565810342262629D+01 0.252738941988616D+02 0.279748552998670D+02
 0.137451517890944D+03 0.772160757298053D+02 0.248516278027354D+02 0.764576880411469D+02
 0.476433878400769D+01 -.237681447110946D+01 0.812582313725483D+00 0.404838078769093D+01
0.359411522922D-05 0.000000000000D+00 0.000000000000D+00 0.337789418443D-06 0.000000000000D+00  7 -2 2 24 -11 11 -24 21 0 0.40583089D-02 0.31857387D+00 0.40189338D+05 0.40189338D+05 0.40189338D+05 0.11557338D+01  1  2  2  1  7  1       -2 0.698386592473D-03 0.100000000000D+01
-.193957696720D-06 0.000000000000D+00 -.138023488325D-07 0.337789418443D-06 0.000000000000D+00  7 -2 2 24 -11 11 -24 21 2 0.40583089D-02 0.31857387D+00 0.40189338D+05 0.40189338D+05 0.40189338D+05 0.11557338D+01  1  2  3  1  7  1       -2 -.503415467281D-04 0.100000000000D+01
0.210834427971D-06 0.000000000000D+00 0.000000000000D+00 0.337789418443D-06 0.000000000000D+00  7 -2 2 24 -11 11 -24 21 2 0.40583089D-02 0.31857387D+00 0.40189338D+05 0.40189338D+05 0.40189338D+05 0.11557338D+01  1  2 15  1  7  1       -2 0.547218872315D-04 0.100000000000D+01
0.472281620255D-07 0.000000000000D+00 0.000000000000D+00 0.337789418443D-06 0.000000000000D+00  7 -2 2 24 -11 11 -24 21 2 0.41379848D-02 0.31857387D+00 0.40705285D+05 0.40705285D+05 0.40705285D+05 0.11552357D+01  1  2 12  1  7  1       -2 0.119006918682D-04 0.100000000000D+01
-.156244935146D-03 0.000000000000D+00 0.000000000000D+00 0.337789418443D-06 0.000000000000D+00  7 -2 2 24 -11 11 -24 21 2 0.40583089D-02 0.31857387D+00 0.40189338D+05 0.40189338D+05 0.40189338D+05 0.11557338D+01  1  2  4  1  7  1       -2 -.405532331879D-01 0.100000000000D+01
-.302436444246D-03 0.000000000000D+00 -.226724505978D-04 0.337789418443D-06 0.000000000000D+00  7 -2 2 24 -11 11 -24 21 2 0.41417236D-02 0.31857387D+00 0.40189338D+05 0.40189338D+05 0.40189338D+05 0.11557338D+01  1  2  5  1  7  1       -2 -.761792296681D-01 0.100000000000D+01
0.302839740351D-03 0.000000000000D+00 0.226677588191D-04 0.337789418443D-06 0.000000000000D+00  7 -2 2 24 -11 11 -24 21 2 0.40583089D-02 0.31857387D+00 0.40189338D+05 0.40189338D+05 0.40189338D+05 0.11557338D+01  1  2  6  1  7  1       -2 0.786017837797D-01 0.100000000000D+01
0.156221451383D-03 0.000000000000D+00 0.000000000000D+00 0.337789418443D-06 0.381115704251D-06  7 -2 2 24 -11 11 -24 21 2 0.41348803D-02 0.31906642D+00 0.40705285D+05 0.40705285D+05 0.40705285D+05 0.11552357D+01  1  2 11  1  7  1       -2 0.392544663725D-01 0.100000000000D+01
0.283216306881D-08 0.000000000000D+00 0.000000000000D+00 0.337789418443D-06 0.000000000000D+00  7 21 2 24 -11 11 -24 2 2 0.41379848D-02 0.31857387D+00 0.40705285D+05 0.40705285D+05 0.40705285D+05 0.11552357D+01  1  2 12  3  7  1       -2 0.121314593274D-04 0.100000000000D+01
-.111588975112D-05 0.000000000000D+00 -.839109698855D-07 0.337789418443D-06 0.000000000000D+00  7 21 2 24 -11 11 -24 2 2 0.41417236D-02 0.31857387D+00 0.40189338D+05 0.40189338D+05 0.40189338D+05 0.11557338D+01  1  2  5  3  7  1       -2 -.477842890114D-02 0.100000000000D+01
0.545602769004D-06 0.000000000000D+00 0.000000000000D+00 0.337789418443D-06 0.130015404217D-08  7 21 2 24 -11 11 -24 2 2 0.41348803D-02 0.31906642D+00 0.40705285D+05 0.40705285D+05 0.40705285D+05 0.11552357D+01  1  2 11  3  7  1       -2 0.233071540386D-02 0.100000000000D+01
  </mgrwgt>
  </event>
  <event>
  8     66 0.27011060E-05 0.10182668E+03 0.75467711E-02 0.99854567E-01
       -2 -1    0    0    0  501 0.00000000E+00 0.00000000E+00 0.24715807E+03 0.24715828E+03 0.32000000E+00 0.0000E+00 0.9000E+01
        2 -1    0    0  501    0 0.00000000E+00 0.00000000E+00 -.18730527E+03 0.18730555E+03 0.32000000E+00 0.0000E+00 0.9000E+01
       25  2    1    2    0    0 -.46552552E+02 0.38589420E+02 0.10414746E+03 0.31438786E+03 0.29040790E+03 0.0000E+00 0.0000E+00
       23  2    1    2    0    0 0.46552552E+02 -.38589420E+02 -.44294665E+02 0.12007597E+03 0.93807978E+02 0.0000E+00 0.0000E+00
       24  1    3    3    0    0 0.10049065E+02 -.98609207E+02 0.39233902E+02 0.13353379E+03 0.80419002E+02 0.0000E+00 0.9000E+01
      -11  1    4    4    0    0 0.73253318E+02 -.31893213E+02 -.17767408E+02 0.81846847E+02 0.51099893E-03 0.0000E+00 0.9000E+01
       11  1    4    4    0    0 -.26700766E+02 -.66962069E+01 -.26527257E+02 0.38229118E+02 0.51099893E-03 0.0000E+00 0.9000E+01
      -24  1    3    3    0    0 -.56601617E+02 0.13719863E+03 0.64913563E+02 0.18085406E+03 0.80419002E+02 0.0000E+00 0.9000E+01
#aMCatNLO 1  0  0  1  2 0.19681380D+03 0.00000000D+00  -5  7  0 0.00000000D+00 0.00000000D+00 0.00000000D+00 0.00000000D+00 0.00000000D+00
  <mgrwgt>
 0.1338486449D-02    7    2    0
 0.215160670978293D+03 0.000000000000000D+00 0.000000000000000D+00 0.215160670978293D+03
 0.215160670978293D+03 0.000000000000000D+00 0.000000000000000D+00 -.215160670978293D+03
 0.129362266469754D+03 0.100490648463393D+02 -.986092057833130D+02 0.210385565645426D+02
 0.851059894754542D+02 0.732533182223293D+02 -.318932129871093D+02 -.293224108724567D+02
 0.422867699477603D+02 -.267007660720302D+02 -.669620709089870D+01 -.320998569214462D+02
 0.173566316063618D+03 -.566016169966384D+02 0.137198625861321D+03 0.403837112293602D+02
 0.000000000000000D+00 -.000000000000000D+00 0.000000000000000D+00 0.000000000000000D+00
 0.474592403043717D+03 0.000000000000000D+00 0.000000000000000D+00 0.474592403043717D+03
 0.277286249150377D+03 0.000000000000000D+00 0.000000000000000D+00 -.277286249150377D+03
 0.187493125596538D+03 0.126781552712315D+02 -.167580129216407D+03 0.210385565645426D+02
 0.109437388723412D+03 0.748675313481132D+02 -.742400903896632D+02 -.293224108724567D+02
 0.490949480970578D+02 -.259425312244075D+02 -.265875570135002D+02 -.320998569214462D+02
 0.127168080535622D+03 -.541062896570003D+02 0.717368109107196D+02 0.403837112293602D+02
 0.278685109241464D+03 -.749686573793686D+01 0.196670965708851D+03 0.197306153893340D+03
0.100087242152D-04 0.000000000000D+00 0.000000000000D+00 0.237140070510D-09 0.000000000000D+00  7 -2 2 24 -11 11 -24 21 0 0.38024356D-01 0.28816233D-01 0.40776865D+05 0.40776865D+05 0.40776865D+05 0.11551672D+01  1  2  2  1  7  1       -2 0.143288095820D-02 0.100000000000D+01
-.553318469329D-06 0.000000000000D+00 -.384361363441D-07 0.237140070510D-09 0.000000000000D+00  7 -2 2 24 -11 11 -24 21 2 0.38024356D-01 0.28816233D-01 0.40776865D+05 0.40776865D+05 0.40776865D+05 0.11551672D+01  1  2  3  1  7  1       -2 -.105705171401D-03 0.100000000000D+01
0.637548385121D-06 0.000000000000D+00 0.000000000000D+00 0.237140070510D-09 0.000000000000D+00  7 -2 2 24 -11 11 -24 21 2 0.38024356D-01 0.28816233D-01 0.40776865D+05 0.40776865D+05 0.40776865D+05 0.11551672D+01  1  2 15  1  7  1       -2 0.121796334410D-03 0.100000000000D+01
0.481701244589D-08 0.000000000000D+00 0.000000000000D+00 0.237140070510D-09 0.000000000000D+00  7 -2 2 24 -11 11 -24 21 2 0.83516403D-01 0.28816233D-01 0.10442318D+06 0.10442318D+06 0.10442318D+06 0.11201828D+01  1  2 12  1  7  1       -2 0.176571024119D-06 0.100000000000D+01
-.297132177223D-05 0.000000000000D+00 -.299007563264D-05 0.237140070510D-09 0.000000000000D+00  7 -2 2 24 -11 11 -24 21 2 0.10183751D+00 0.28816233D-01 0.40776865D+05 0.40776865D+05 0.40776865D+05 0.11551672D+01  1  2  5  1  7  1       -2 -.739670207984D-04 0.100000000000D+01
0.410761083487D-09 0.000000000000D+00 0.000000000000D+00 0.237140070510D-09 0.000000000000D+00  7 21 2 24 -11 11 -24 2 2 0.83516403D-01 0.28816233D-01 0.10442318D+06 0.10442318D+06 0.10442318D+06 0.11201828D+01  1  2 12  3  7  1       -2 0.148056489836D-06 0.100000000000D+01
-.150549320468D-06 0.000000000000D+00 -.328093711740D-06 0.237140070510D-09 0.000000000000D+00  7 21 2 24 -11 11 -24 2 2 0.10183751D+00 0.28816233D-01 0.40776865D+05 0.40776865D+05 0.40776865D+05 0.11551672D+01  1  2  5  3  7  1       -2 -.368432784458D-04 0.100000000000D+01
  </mgrwgt>
  </event>
  <event>
  7     66 0.27011060E-05 0.18376692E+03 0.75467711E-02 0.99600995E-01
       -2 -1    0    0    0  501 0.00000000E+00 0.00000000E+00 0.28621129E+03 0.28621147E+03 0.32000000E+00 0.0000E+00 0.9000E+01
        2 -1    0    0  501    0 0.00000000E+00 0.00000000E+00 -.43386323E+03 0.43386335E+03 0.32000000E+00 0.0000E+00 0.9000E+01
       23  2    1    2    0    0 0.79121616E+02 0.25020238E+03 0.72332209E+02 0.28676353E+03 0.90221475E+02 0.0000E+00 0.0000E+00
       24  1    1    2    0    0 0.49309461E+02 -.11978993E+03 -.25866521E+02 0.15465233E+03 0.80419002E+02 0.0000E+00 0.9000E+01
      -13  1    3    3    0    0 0.67410011E+01 0.10176414E+02 -.16731597E+02 0.20711301E+02 0.10565837E+00 0.0000E+00 0.9000E+01
       13  1    3    3    0    0 0.72380615E+02 0.24002596E+03 0.89063805E+02 0.26605223E+03 0.10565837E+00 0.0000E+00 0.9000E+01
      -24  1    1    2    0    0 -.12843108E+03 -.13041245E+03 -.19411762E+03 0.27865896E+03 0.80419002E+02 0.0000E+00 0.9000E+01
#aMCatNLO 1  0  0  1  2 0.43547806D+02 0.00000000D+00  -5  7  0 0.00000000D+00 0.00000000D+00 0.00000000D+00 0.00000000D+00 0.00000000D+00
  <mgrwgt>
 0.2028097976D-02    9    2    0
 0.352387093860423D+03 0.000000000000000D+00 0.000000000000000D+00 0.352387093860423D+03
 0.352387093860423D+03 0.000000000000000D+00 0.000000000000000D+00 -.352387093860423D+03
 0.152590728275560D+03 0.493094584582934D+02 -.119789930237813D+03 0.597196127456696D+01
 0.176552579663079D+02 0.674091112439240D+01 0.101760990757808D+02 -.127559891294174D+02
 0.290487683640021D+03 0.723807054418282D+02 0.240026281362851D+03 0.146736198946986D+03
 0.244040517838957D+03 -.128431075024514D+03 -.130412450200819D+03 -.139952171092136D+03
 0.000000000000000D+00 0.000000000000000D+00 0.000000000000000D+00 0.000000000000000D+00
 0.388808672588241D+03 0.000000000000000D+00 0.000000000000000D+00 0.388808672588241D+03
 0.366320951750752D+03 0.000000000000000D+00 0.000000000000000D+00 -.366320951750752D+03
 0.159712803007301D+03 0.477947390246837D+02 -.129309559160087D+03 0.597196127456696D+01
 0.170025114448610D+02 0.657281569288376D+01 0.911966176073415D+01 -.127559891294174D+02
 0.275692003057822D+03 0.696346481979876D+02 0.222768005420364D+03 0.146736198946986D+03
 0.253710992029890D+03 -.130845245245420D+03 -.145584900060700D+03 -.139952171092136D+03
 0.490113147991178D+02 0.684304232986527D+01 0.430067920396888D+02 0.224877208374894D+02
0.322945382283D-04 0.000000000000D+00 0.000000000000D+00 0.298242590877D-09 0.000000000000D+00  7 -2 2 24 -13 13 -24 21 0 0.44032530D-01 0.66748212D-01 0.94650110D+05 0.94650110D+05 0.94650110D+05 0.11236869D+01  1  2  2  1  7  1       -2 0.140191059651D-02 0.100000000000D+01
-.175393638379D-05 0.000000000000D+00 -.124019530144D-06 0.298242590877D-09 0.000000000000D+00  7 -2 2 24 -13 13 -24 21 2 0.44032530D-01 0.66748212D-01 0.94650110D+05 0.94650110D+05 0.94650110D+05 0.11236869D+01  1  2  3  1  7  1       -2 -.961381331710D-04 0.100000000000D+01
0.207350740622D-05 0.000000000000D+00 0.000000000000D+00 0.298242590877D-09 0.000000000000D+00  7 -2 2 24 -13 13 -24 21 2 0.44032530D-01 0.66748212D-01 0.94650110D+05 0.94650110D+05 0.94650110D+05 0.11236869D+01  1  2 15  1  7  1       -2 0.113654710053D-03 0.100000000000D+01
0.647770671306D-04 0.000000000000D+00 0.000000000000D+00 0.298242590877D-09 0.000000000000D+00  7 -2 2 24 -13 13 -24 21 2 0.49388694D-01 0.66748212D-01 0.10870452D+06 0.10870452D+06 0.10870452D+06 0.11187596D+01  1  2 12  1  7  1       -2 0.281676881915D-02 0.100000000000D+01
-.632663895862D-04 0.000000000000D+00 0.000000000000D+00 0.298242590877D-09 0.000000000000D+00  7 -2 2 24 -13 13 -24 21 2 0.44032530D-01 0.66748212D-01 0.94650110D+05 0.94650110D+05 0.94650110D+05 0.11236869D+01  1  2  4  1  7  1       -2 -.346780683924D-02 0.100000000000D+01
-.156615704583D-03 0.000000000000D+00 -.322606576608D-04 0.298242590877D-09 0.000000000000D+00  7 -2 2 24 -13 13 -24 21 2 0.50214210D-01 0.66748212D-01 0.94650110D+05 0.94650110D+05 0.94650110D+05 0.11236869D+01  1  2  5  1  7  1       -2 -.666214424567D-02 0.100000000000D+01
0.159749698281D-03 0.000000000000D+00 0.319842696398D-04 0.298242590877D-09 0.000000000000D+00  7 -2 2 24 -13 13 -24 21 2 0.44032530D-01 0.66748212D-01 0.94650110D+05 0.94650110D+05 0.94650110D+05 0.11236869D+01  1  2  6  1  7  1       -2 0.875632543420D-02 0.100000000000D+01
0.118391039281D-05 0.000000000000D+00 0.000000000000D+00 0.298242590877D-09 0.000000000000D+00  7 21 2 24 -13 13 -24 2 2 0.49388694D-01 0.66748212D-01 0.10870452D+06 0.10870452D+06 0.10870452D+06 0.11187596D+01  1  2 12  3  7  1       -2 0.554321329737D-03 0.100000000000D+01
-.302869854657D-05 0.000000000000D+00 -.660147342334D-06 0.298242590877D-09 0.000000000000D+00  7 21 2 24 -13 13 -24 2 2 0.50214210D-01 0.66748212D-01 0.94650110D+05 0.94650110D+05 0.94650110D+05 0.11236869D+01  1  2  5  3  7  1       -2 -.138879369540D-02 0.100000000000D+01
  </mgrwgt>
  </event>
  <event>
  9     66 0.27011060E-05 0.21279358E+03 0.75467711E-02 0.10203061E+00
       -2 -1    0    0    0  501 0.00000000E+00 0.00000000E+00 0.77304202E+03 0.77304208E+03 0.32000000E+00 0.0000E+00 0.9000E+01
       21 -1    0    0  501  502 0.00000000E+00 0.00000000E+00 -.14481807E+03 0.14482001E+03 0.75000000E+00 0.0000E+00 0.9000E+01
       25  2    1    2    0    0 0.95426071E+01 0.93271456E+02 0.55496800E+03 0.63800231E+03 0.30044442E+03 0.0000E+00 0.0000E+00
       23  2    1    2    0    0 0.98529009E+02 -.55211723E+02 0.45519343E+00 0.14410975E+03 0.89504827E+02 0.0000E+00 0.0000E+00
       24  1    3    3    0    0 -.79852859E+02 -.32281256E+02 0.34964167E+03 0.36896487E+03 0.80419002E+02 0.0000E+00 0.9000E+01
      -13  1    4    4    0    0 -.12629569E+02 0.49495085E+01 -.10624146E+02 0.17230417E+02 0.10565837E+00 0.0000E+00 0.9000E+01
       13  1    4    4    0    0 0.11115858E+03 -.60161232E+02 0.11079340E+02 0.12687934E+03 0.10565837E+00 0.0000E+00 0.9000E+01
      -24  1    3    3    0    0 0.89395466E+02 0.12555271E+03 0.20532633E+03 0.26903745E+03 0.80419002E+02 0.0000E+00 0.9000E+01
       -2  1    1    2    0  502 -.10807162E+03 -.38059732E+02 0.72800756E+02 0.13575003E+03 0.32000000E+00 0.0000E+00 0.9000E+01
#aMCatNLO 2  0  0  2  1 0.11457756D+03 0.00000000D+00  -5  7  0 0.00000000D+00 0.00000000D+00 0.00000000D+00 0.00000000D+00 0.00000000D+00
  <mgrwgt>
 0.5750760245D-04    2    2    0
 0.269293683036137D+03 0.000000000000000D+00 0.000000000000000D+00 0.269293683036137D+03
 0.269293683036137D+03 0.000000000000000D+00 0.000000000000000D+00 -.269293683036137D+03
 0.193527053137755D+03 -.116059167268077D+03 -.450320802848761D+02 0.124450334592037D+03
 0.381617714134282D+02 -.199075814776936D+02 0.238655135214469D+01 -.324701920191937D+02
 0.154769430906151D+03 0.790308194532378D+02 -.714758613088700D+02 -.112244855426513D+03
 0.152129110614939D+03 0.569359292925328D+02 0.114121390241601D+03 0.202647128536690D+02
 0.000000000000000D+00 -.000000000000000D+00 -.000000000000000D+00 -.000000000000000D+00
 0.318248136777623D+03 0.000000000000000D+00 0.000000000000000D+00 0.318248136777623D+03
 0.351773402755954D+03 0.000000000000000D+00 0.000000000000000D+00 -.351773402755954D+03
 0.171387456143876D+03 -.798528586659811D+02 -.322812538774344D+02 0.124450334592037D+03
 0.351898031341656D+02 -.126297405670978D+02 0.494959877826678D+01 -.324701920191937D+02
 0.169040114204467D+03 0.111158750846426D+03 -.601613227148684D+02 -.112244855426513D+03
 0.175022589067321D+03 0.893954646004438D+02 0.125552710250663D+03 0.202647128536690D+02
 0.119381576983748D+03 -.108071616213791D+03 -.380597324366269D+02 -.335252659783310D+02
-.266813624195D-06 0.000000000000D+00 0.000000000000D+00 0.293357949868D-06 0.000000000000D+00  7 -2 21 24 -13 13 -24 -2 2 0.10063529D+00 0.23442945D-01 0.74589281D+05 0.74589281D+05 0.74589281D+05 0.11323226D+01  1  2 13  4  7  2        2 -.520726468673D-04 0.100000000000D+01
0.769095645914D-06 0.000000000000D+00 0.000000000000D+00 0.293357949868D-06 0.679741009476D-11  7 -2 21 24 -13 13 -24 -2 2 0.11892962D+00 0.22279843D-01 0.74589281D+05 0.74589281D+05 0.74589281D+05 0.11323226D+01  1  2  1  4  7  2        2 0.109580249322D-03 0.100000000000D+01
  </mgrwgt>
  </event>
  <event>
  8     66 0.27011060E-05 0.27075425E+03 0.75467711E-02 0.92890384E-01
       -2 -1    0    0    0  501 0.00000000E+00 0.00000000E+00 0.98460535E+03 0.98460540E+03 0.32000000E+00 0.0000E+00 0.9000E+01
        2 -1    0    0  501    0 0.00000000E+00 0.00000000E+00 -.62160843E+03 0.62160851E+03 0.32000000E+00 0.0000E+00 0.9000E+01
       25  2    1    2    0    0 -.21003961E+03 0.82384508E+01 -.55257645E+03 0.66241004E+03 0.29876718E+03 0.0000E+00 0.0000E+00
       23  2    1    2    0    0 0.21003961E+03 -.82384508E+01 0.91557337E+03 0.94380387E+03 0.91140722E+02 0.0000E+00 0.0000E+00
       24  1    3    3    0    0 -.50917639E+02 -.76303755E+02 -.38391624E+03 0.40283218E+03 0.80419002E+02 0.0000E+00 0.9000E+01
      -11  1    4    4    0    0 0.14635805E+03 0.27875978E+02 0.71319357E+03 0.72858961E+03 0.51099893E-03 0.0000E+00 0.9000E+01
       11  1    4    4    0    0 0.63681564E+02 -.36114428E+02 0.20237980E+03 0.21521426E+03 0.51099893E-03 0.0000E+00 0.9000E+01
      -24  1    3    3    0    0 -.15912197E+03 0.84542206E+02 -.16866021E+03 0.25957787E+03 0.80419002E+02 0.0000E+00 0.9000E+01
#aMCatNLO 1  0  0  1  2 0.46343546D+03 0.00000000D+00  -5  7  0 0.00000000D+00 0.00000000D+00 0.00000000D+00 0.00000000D+00 0.00000000D+00
  <mgrwgt>
 0.1199197350D-02    4    2    0
 0.782329272020621D+03 0.000000000000000D+00 0.000000000000000D+00 0.782329272020621D+03
 0.782329272020621D+03 0.000000000000000D+00 0.000000000000000D+00 -.782329272020621D+03
 0.502598515835376D+03 -.509176389712180D+02 -.763037554710052D+02 -.487568644508822D+03
 0.582480883629251D+03 0.146358046490927D+03 0.278759775039008D+02 0.563104103962202D+03
 0.173978464692004D+03 0.636815636136384D+02 -.361144282951352D+02 0.157825576828423D+03
 0.305600679884611D+03 -.159121971133347D+03 0.845422062622397D+02 -.233361036281804D+03
 0.000000000000000D+00 -.000000000000000D+00 -.000000000000000D+00 -.000000000000000D+00
 0.995493136102435D+03 0.000000000000000D+00 0.000000000000000D+00 0.995493136102435D+03
 0.111493514189996D+04 0.000000000000000D+00 0.000000000000000D+00 -.111493514189996D+04
 0.497481124486495D+03 0.505110713705037D+02 0.273075415739169D+02 -.487568644508822D+03
 0.643718801121575D+03 0.270719994911028D+03 0.154913999928013D+03 0.563104103962202D+03
 0.187000261666141D+03 0.100292254601728D+03 0.128406732022794D+01 0.157825576828423D+03
 0.303648086149242D+03 -.973315755242428D+02 0.147662234234681D+03 -.233361036281804D+03
 0.478580004578943D+03 -.324191745359017D+03 -.331167843056839D+03 -.119442005797526D+03
0.807140269452D-03 0.000000000000D+00 0.000000000000D+00 0.374397071142D-05 0.000000000000D+00  7 -2 2 24 -11 11 -24 21 0 0.15147776D+00 0.95632076D-01 0.73307865D+05 0.73307865D+05 0.73307865D+05 0.11329589D+01  1  2  2  1  7  1       -2 0.143681423174D-02 0.100000000000D+01
0.165409073323D-04 0.000000000000D+00 -.309963115961D-05 0.374397071142D-05 0.000000000000D+00  7 -2 2 24 -11 11 -24 21 2 0.15147776D+00 0.95632076D-01 0.73307865D+05 0.73307865D+05 0.73307865D+05 0.11329589D+01  1  2  3  1  7  1       -2 0.377954252339D-04 0.100000000000D+01
0.464888358900D-04 0.000000000000D+00 0.000000000000D+00 0.374397071142D-05 0.000000000000D+00  7 -2 2 24 -11 11 -24 21 2 0.15147776D+00 0.95632076D-01 0.73307865D+05 0.73307865D+05 0.73307865D+05 0.11329589D+01  1  2 15  1  7  1       -2 0.106225449777D-03 0.100000000000D+01
-.167021133650D-03 0.000000000000D+00 0.000000000000D+00 0.374397071142D-05 0.000000000000D+00  7 -2 2 24 -11 11 -24 21 2 0.15147776D+00 0.95632076D-01 0.73307865D+05 0.73307865D+05 0.73307865D+05 0.11329589D+01  1  2  4  1  7  1       -2 -.381637756778D-03 0.100000000000D+01
  </mgrwgt>
  </event>
  <event>
  9     66 -.27011060E-05 0.40807434E+03 0.75467711E-02 0.96531685E-01
       -2 -1    0    0    0  501 0.00000000E+00 0.00000000E+00 0.66881924E+03 0.66881932E+03 0.32000000E+00 0.0000E+00 0.9000E+01
        2 -1    0    0  502    0 0.00000000E+00 0.00000000E+00 -.38999286E+03 0.38999299E+03 0.32000000E+00 0.0000E+00 0.9000E+01
       25  2    1    2    0    0 0.31982283E+03 -.17292347E+03 0.42330025E+03 0.63278693E+03 0.29840748E+03 0.0000E+00 0.0000E+00
       23  2    1    2    0    0 -.29651538E+03 0.19564823E+03 -.14161695E+03 0.39333934E+03 0.91983016E+02 0.0000E+00 0.0000E+00
       24  1    3    3    0    0 0.17913487E+03 -.20948880E+03 0.34582297E+03 0.44948371E+03 0.80419002E+02 0.0000E+00 0.9000E+01
      -13  1    4    4    0    0 -.15926171E+03 0.14698845E+03 -.53863086E+02 0.22331847E+03 0.10565837E+00 0.0000E+00 0.9000E+01
       13  1    4    4    0    0 -.13725366E+03 0.48659785E+02 -.87753868E+02 0.17002087E+03 0.10565837E+00 0.0000E+00 0.9000E+01
      -24  1    3    3    0    0 0.14068796E+03 0.36565330E+02 0.77477278E+02 0.18330322E+03 0.80419002E+02 0.0000E+00 0.9000E+01
       21  1    1    2  502  501 -.23307456E+02 -.22724766E+02 -.28569128E+01 0.32686036E+02 0.75000000E+00 0.0000E+00 0.9000E+01
#aMCatNLO 2  0  0  2  1 0.32552304D+02 0.00000000D+00  -5  7  0 0.00000000D+00 0.00000000D+00 0.00000000D+00 0.00000000D+00 0.00000000D+00
  <mgrwgt>
 -.1433131223D-03    3    2    0
 0.493084674371718D+03 0.000000000000000D+00 0.000000000000000D+00 0.493084674371718D+03
 0.493084674371718D+03 0.000000000000000D+00 0.000000000000000D+00 -.493084674371718D+03
 0.369510458818041D+03 0.170413497857795D+03 -.217992133320648D+03 0.231321059957223D+03
 0.248128832212671D+03 -.165118460398021D+03 0.141278280861420D+03 -.119767519669788D+03
 0.204097672830379D+03 -.142049656508356D+03 0.439835326723870D+02 -.139797009961914D+03
 0.164432384882344D+03 0.136754619048581D+03 0.327303197868407D+02 0.282434696744793D+02
 0.000000000000000D+00 -.000000000000000D+00 -.000000000000000D+00 -.000000000000000D+00
 0.504601848417508D+03 0.000000000000000D+00 0.000000000000000D+00 0.504601848417508D+03
 0.516903954099072D+03 0.000000000000000D+00 0.000000000000000D+00 -.516903954099072D+03
 0.368716024115115D+03 0.179134868484302D+03 -.209488798264409D+03 0.231321059957223D+03
 0.247617051215150D+03 -.159261743406833D+03 0.146988579051738D+03 -.119767519669788D+03
 0.201865117551277D+03 -.137253632473263D+03 0.486596553891785D+02 -.139797009961914D+03
 0.168508266448226D+03 0.140687963197043D+03 0.365653297432128D+02 0.282434696744793D+02
 0.347993431868130D+02 -.233074558012483D+02 -.227247659197200D+02 -.123021056815646D+02
-.115867130052D-03 0.000000000000D+00 0.000000000000D+00 0.273282654380D-06 0.000000000000D+00  7 -2 2 24 -13 13 -24 21 2 0.10054597D+00 0.60642508D-01 0.17984108D+06 0.17984108D+06 0.17984108D+06 0.11013868D+01  1  2 13  2  7  2        2 -.115505897733D-02 0.100000000000D+01
-.244042719865D-04 0.000000000000D+00 0.000000000000D+00 0.273282654380D-06 0.000000000000D+00  7 -2 2 24 -13 13 -24 21 2 0.10054597D+00 0.57233672D-01 0.16652466D+06 0.16652466D+06 0.16652466D+06 0.11039879D+01  1  2  8  2  7  2        2 -.261006491167D-03 0.100000000000D+01
0.133440685917D-03 0.000000000000D+00 0.000000000000D+00 0.273282654380D-06 0.167240239413D-08  7 -2 2 24 -13 13 -24 21 2 0.10289447D+00 0.59998440D-01 0.17984108D+06 0.17984108D+06 0.17984108D+06 0.11013868D+01  1  2  1  2  7  2        2 0.127275234618D-02 0.100000000000D+01
  </mgrwgt>
  </event>
  <event>
  7     66 0.27011060E-05 0.19990426E+03 0.75467711E-02 0.10000742E+00
       -2 -1    0    0    0  501 0.00000000E+00 0.00000000E+00 0.20647857E+02 0.20650337E+02 0.32000000E+00 0.0000E+00 0.9000E+01
        2 -1    0    0  501    0 0.00000000E+00 0.00000000E+00 -.23632036E+04 0.23632036E+04 0.32000000E+00 0.0000E+00 0.9000E+01
       23  2    1    2    0    0 -.79869289E+01 0.49990378E+02 -.69438078E+03 0.70347975E+03 0.10077831E+03 0.0000E+00 0.0000E+00
       24  1    1    2    0    0 -.12763406E+03 -.18901497E+02 -.55491786E+03 0.57536838E+03 0.80419002E+02 0.0000E+00 0.9000E+01
      -13  1    3    3    0    0 -.11760171E+02 -.16612466E+02 -.33203142E+02 0.38945288E+02 0.10565837E+00 0.0000E+00 0.9000E+01
       13  1    3    3    0    0 0.37732419E+01 0.66602844E+02 -.66117763E+03 0.66453446E+03 0.10565837E+00 0.0000E+00 0.9000E+01
      -24  1    1    2    0    0 0.13562099E+03 -.31088881E+02 -.10932571E+04 0.11050058E+04 0.80419002E+02 0.0000E+00 0.9000E+01
#aMCatNLO 1  0  0  1  1 0.19461863D+03 0.00000000D+00  -5  7  0 0.00000000D+00 0.00000000D+00 0.00000000D+00 0.00000000D+00 0.00000000D+00
  <mgrwgt>
 0.1235166626D-02    3    2    0
 0.220902854092657D+03 0.000000000000000D+00 0.000000000000000D+00 0.220902854092657D+03
 0.220902854092657D+03 0.000000000000000D+00 0.000000000000000D+00 -.220902854092657D+03
 0.162188387608220D+03 -.127589424370681D+03 -.189527258871416D+02 0.565649192591021D+02
 0.340654660647236D+02 -.117649355583781D+02 -.165824923035384D+02 0.273324572352567D+02
 0.799874727627963D+02 0.376199821121005D+01 0.666730675305485D+02 -.440289136194030D+02
 0.165564381749574D+03 0.135592361717849D+03 -.311378493398686D+02 -.398684628749558D+02
 0.000000000000000D+00 0.000000000000000D+00 -.000000000000000D+00 -.000000000000000D+00
 0.269170192549175D+03 0.000000000000000D+00 0.000000000000000D+00 0.269170192549175D+03
 0.582194269873322D+03 0.000000000000000D+00 0.000000000000000D+00 -.582194269873322D+03
 0.183381476082604D+03 -.146007534782626D+03 0.514175019985962D+02 0.565649192591021D+02
 0.314697272216329D+02 -.152578166010843D+02 -.323721260570329D+01 0.273324572352567D+02
 0.115397561832541D+03 -.665159255039121D+01 0.106460360505372D+03 -.440289136194030D+02
 0.152523123378168D+03 0.118639000312051D+03 0.336359998157729D+02 -.398684628749558D+02
 0.368592573907552D+03 0.492779436220500D+02 -.188276649714038D+03 -.313024077324147D+03
0.628260560274D-05 0.000000000000D+00 0.000000000000D+00 0.716306642173D-11 0.000000000000D+00  7 -2 2 24 -13 13 -24 21 0 0.31767858D-02 0.36356997D+00 0.39961715D+05 0.39961715D+05 0.39961715D+05 0.11559558D+01  1  2  2  1  7  1       -2 0.121643354959D-02 0.100000000000D+01
-.344799705459D-06 0.000000000000D+00 -.241268597626D-07 0.716306642173D-11 0.000000000000D+00  7 -2 2 24 -13 13 -24 21 2 0.31767858D-02 0.36356997D+00 0.39961715D+05 0.39961715D+05 0.39961715D+05 0.11559558D+01  1  2  3  1  7  1       -2 -.892067959751D-04 0.100000000000D+01
0.417206286911D-06 0.000000000000D+00 0.000000000000D+00 0.716306642173D-11 0.000000000000D+00  7 -2 2 24 -13 13 -24 21 2 0.31767858D-02 0.36356997D+00 0.39961715D+05 0.39961715D+05 0.39961715D+05 0.11559558D+01  1  2 15  1  7  1       -2 0.107939872125D-03 0.100000000000D+01
  </mgrwgt>
  </event>
  <event>
  8     66 0.27011060E-05 0.24945217E+03 0.75467711E-02 0.10222826E+00
       -2 -1    0    0    0  501 0.00000000E+00 0.00000000E+00 0.10122159E+03 0.10122209E+03 0.32000000E+00 0.0000E+00 0.9000E+01
        2 -1    0    0  501    0 0.00000000E+00 0.00000000E+00 -.15150691E+04 0.15150691E+04 0.32000000E+00 0.0000E+00 0.9000E+01
       25  2    1    2    0    0 -.29229585E+02 0.20182825E+03 -.13280624E+04 0.13768836E+04 0.30078194E+03 0.0000E+00 0.0000E+00
       23  2    1    2    0    0 0.29229585E+02 -.20182825E+03 -.85785135E+02 0.23940762E+03 0.91476274E+02 0.0000E+00 0.0000E+00
       24  1    3    3    0    0 -.72500096E+02 0.11090265E+03 -.27259018E+03 0.31357341E+03 0.80419002E+02 0.0000E+00 0.9000E+01
      -13  1    4    4    0    0 -.15279359E+02 -.12746295E+03 -.82656066E+02 0.15268365E+03 0.10565837E+00 0.0000E+00 0.9000E+01
       13  1    4    4    0    0 0.44508944E+02 -.74365304E+02 -.31290692E+01 0.86723969E+02 0.10565837E+00 0.0000E+00 0.9000E+01
      -24  1    3    3    0    0 0.43270512E+02 0.90925603E+02 -.10554722E+04 0.10633102E+04 0.80419002E+02 0.0000E+00 0.9000E+01
#aMCatNLO 1  0  0  1  1 0.34553868D+02 0.00000000D+00  -5  7  0 0.00000000D+00 0.00000000D+00 0.00000000D+00 0.00000000D+00 0.00000000D+00
  <mgrwgt>
 0.7953462966D-03    4    2    0
 0.391609671494990D+03 0.000000000000000D+00 0.000000000000000D+00 0.391609671494990D+03
 0.391609671494990D+03 0.000000000000000D+00 0.000000000000000D+00 -.391609671494990D+03
 0.155033202244000D+03 -.725000964104471D+02 0.110902646879435D+03 0.352374506311689D+01
 0.165877117076139D+03 -.152794387539485D+02 -.127463017112224D+03 0.105047303580361D+03
 0.173319479334793D+03 0.445090236436706D+02 -.743652331459625D+02 0.150094639578893D+03
 0.288989544335048D+03 0.432705115207250D+02 0.909256033787515D+02 -.258665688222371D+03
 0.000000000000000D+00 -.000000000000000D+00 0.000000000000000D+00 -.000000000000000D+00
 0.396273641979888D+03 0.000000000000000D+00 0.000000000000000D+00 0.396273641979888D+03
 0.461682221668587D+03 0.000000000000000D+00 0.000000000000000D+00 -.461682221668587D+03
 0.149975926485743D+03 -.666656239377752D+02 0.107558543949812D+03 0.352374506311689D+01
 0.168249981860189D+03 -.888797313048816D+01 -.131126367829209D+03 0.105047303580361D+03
 0.176823175889977D+03 0.512068483675572D+02 -.782041775211668D+02 0.150094639578893D+03
 0.288932107514966D+03 0.543254854591204D+02 0.845893028978686D+02 -.258665688222371D+03
 0.739746718976005D+02 -.299787367584142D+02 0.171826985026954D+02 -.654085796886985D+02
0.178466959999D-04 0.000000000000D+00 0.000000000000D+00 0.833444269082D-06 0.000000000000D+00  7 -2 2 24 -13 13 -24 21 0 0.15572594D-01 0.23308759D+00 0.62226385D+05 0.62226385D+05 0.62226385D+05 0.11390314D+01  1  2  2  1  7  1       -2 0.883765336942D-03 0.100000000000D+01
-.746285151668D-06 0.000000000000D+00 -.685360117825D-07 0.833444269082D-06 0.000000000000D+00  7 -2 2 24 -13 13 -24 21 2 0.15572594D-01 0.23308759D+00 0.62226385D+05 0.62226385D+05 0.62226385D+05 0.11390314D+01  1  2  3  1  7  1       -2 -.479463275474D-04 0.100000000000D+01
0.106345832150D-05 0.000000000000D+00 0.000000000000D+00 0.833444269082D-06 0.000000000000D+00  7 -2 2 24 -13 13 -24 21 2 0.15572594D-01 0.23308759D+00 0.62226385D+05 0.62226385D+05 0.62226385D+05 0.11390314D+01  1  2 15  1  7  1       -2 0.683236439874D-04 0.100000000000D+01
-.169341657115D-05 0.000000000000D+00 0.000000000000D+00 0.833444269082D-06 0.000000000000D+00  7 -2 2 24 -13 13 -24 21 2 0.15572594D-01 0.23308759D+00 0.62226385D+05 0.62226385D+05 0.62226385D+05 0.11390314D+01  1  2  4  1  7  1       -2 -.108796356745D-03 0.100000000000D+01
  </mgrwgt>
  </event>
  <event>
  8     66 0.27011060E-05 0.20556036E+03 0.75467711E-02 0.94426963E-01
       -2 -1    0    0    0  501 0.00000000E+00 0.00000000E+00 0.61630235E+02 0.61631066E+02 0.32000000E+00 0.0000E+00 0.9000E+01
        2 -1    0    0  501    0 0.00000000E+00 0.00000000E+00 -.13910916E+04 0.13910916E+04 0.32000000E+00 0.0000E+00 0.9000E+01
       25  2    1    2    0    0 -.88312528E+02 0.47161721E+02 -.12639941E+04 0.13029640E+04 0.30001816E+03 0.0000E+00 0.0000E+00
       23  2    1    2    0    0 0.88312528E+02 -.47161721E+02 -.65467266E+02 0.14975865E+03 0.90101948E+02 0.0000E+00 0.0000E+00
       24  1    3    3    0    0 0.23573380E+02 0.12666515E+03 -.49885132E+03 0.52145913E+03 0.80419002E+02 0.0000E+00 0.9000E+01
      -13  1    4    4    0    0 0.51343573E+02 -.25719448E+02 0.14375541E+02 0.59197296E+02 0.10565837E+00 0.0000E+00 0.9000E+01
       13  1    4    4    0    0 0.36968955E+02 -.21442274E+02 -.79842807E+02 0.90561359E+02 0.10565837E+00 0.0000E+00 0.9000E+01
      -24  1    3    3    0    0 -.11188591E+03 -.79503434E+02 -.76514273E+03 0.78150488E+03 0.80419002E+02 0.0000E+00 0.9000E+01
#aMCatNLO 1  0  0  2  1 0.41892864D+03 0.00000000D+00  -5  7  0 0.00000000D+00 0.00000000D+00 0.00000000D+00 0.00000000D+00 0.00000000D+00
  <mgrwgt>
 0.9197715183D-03    5    2    0
 0.292803568496913D+03 0.000000000000000D+00 0.000000000000000D+00 0.292803568496913D+03
 0.292803568496913D+03 0.000000000000000D+00 0.000000000000000D+00 -.292803568496913D+03
 0.161084024805235D+03 0.235733801019834D+02 0.126665155008399D+03 -.536757054015008D+02
 0.179487374854355D+03 0.513435938391538D+02 -.257194540695385D+02 0.170053117543174D+03
 0.433951413297264D+02 0.369689345812304D+02 -.214422673405873D+02 0.752763829168354D+01
 0.201640596004509D+03 -.111885908522368D+03 -.795034335982729D+02 -.123905050433357D+03
 0.000000000000000D+00 -.000000000000000D+00 0.000000000000000D+00 -.000000000000000D+00
 0.550376411941459D+03 0.000000000000000D+00 0.000000000000000D+00 0.550376411941459D+03
 0.590494406970738D+03 0.000000000000000D+00 0.000000000000000D+00 -.590494406970738D+03
 0.200229886554102D+03 0.138016484350225D+03 0.108144164023554D+03 -.536757054015008D+02
 0.259883921461911D+03 0.190510709987083D+03 -.482416752247044D+02 0.170053117543174D+03
 0.819134653561606D+02 0.766593685426636D+02 -.278656003532058D+02 0.752763829168354D+01
 0.177998370015223D+03 0.836150072194886D+01 -.989637689080704D+02 -.123905050433357D+03
 0.420845175524799D+03 -.413548063601920D+03 0.669268804624262D+02 -.401179950292791D+02
0.711808010707D-05 0.000000000000D+00 0.000000000000D+00 0.144845782247D-05 0.000000000000D+00  7 -2 2 24 -13 13 -24 21 0 0.94816414D-02 0.21401415D+00 0.42255061D+05 0.42255061D+05 0.42255061D+05 0.11537805D+01  1  2  2  2  7  2        2 0.893000687881D-03 0.100000000000D+01
-.335276835024D-06 0.000000000000D+00 -.273353018447D-07 0.144845782247D-05 0.000000000000D+00  7 -2 2 24 -13 13 -24 21 2 0.94816414D-02 0.21401415D+00 0.42255061D+05 0.42255061D+05 0.42255061D+05 0.11537805D+01  1  2  3  2  7  2        2 -.559936601744D-04 0.100000000000D+01
0.429164069571D-06 0.000000000000D+00 0.000000000000D+00 0.144845782247D-05 0.000000000000D+00  7 -2 2 24 -13 13 -24 21 2 0.94816414D-02 0.21401415D+00 0.42255061D+05 0.42255061D+05 0.42255061D+05 0.11537805D+01  1  2 15  2  7  2        2 0.716735084573D-04 0.100000000000D+01
0.118843228428D-05 0.000000000000D+00 -.194527787062D-05 0.144845782247D-05 0.000000000000D+00  7 -2 2 24 -13 13 -24 21 2 0.94816414D-02 0.54846035D+00 0.42255061D+05 0.42255061D+05 0.42255061D+05 0.11537805D+01  1  2  5  2  7  2        2 0.110110015400D-04 0.100000000000D+01
0.242034154198D-06 0.000000000000D+00 -.202331364691D-06 0.144845782247D-05 0.000000000000D+00  7 -2 21 24 -13 13 -24 -2 2 0.94816414D-02 0.54846035D+00 0.42255061D+05 0.42255061D+05 0.42255061D+05 0.11537805D+01  1  2  5  4  7  2        2 0.799805634666D-07 0.100000000000D+01
  </mgrwgt>
  </event>
  <event>
  8     66 0.27011060E-05 0.77945585E+02 0.75467711E-02 0.11066475E+00
       -2 -1    0    0    0  501 0.00000000E+00 0.00000000E+00 0.41337944E+02 0.41339183E+02 0.32000000E+00 0.0000E+00 0.9000E+01
        2 -1    0    0  501    0 0.00000000E+00 0.00000000E+00 -.96840734E+03 0.96840739E+03 0.32000000E+00 0.0000E+00 0.9000E+01
       25  2    1    2    0    0 0.26683468E+02 0.35584789E+01 -.79429519E+03 0.84953017E+03 0.30011996E+03 0.0000E+00 0.0000E+00
       23  2    1    2    0    0 -.26683468E+02 -.35584789E+01 -.13277420E+03 0.16021640E+03 0.85531492E+02 0.0000E+00 0.0000E+00
       24  1    3    3    0    0 0.37313279E+02 -.72462765E+02 -.68188161E+03 0.69142814E+03 0.80419002E+02 0.0000E+00 0.9000E+01
      -11  1    4    4    0    0 0.12009484E+02 -.15470733E+02 -.11385784E+03 0.11553000E+03 0.51099893E-03 0.0000E+00 0.9000E+01
       11  1    4    4    0    0 -.38692952E+02 0.11912254E+02 -.18916361E+02 0.44686407E+02 0.51099893E-03 0.0000E+00 0.9000E+01
      -24  1    3    3    0    0 -.10629812E+02 0.76021244E+02 -.11241359E+03 0.15810203E+03 0.80419002E+02 0.0000E+00 0.9000E+01
#aMCatNLO 1  0  0  2  1 0.13091500D+02 0.00000000D+00  -5  7  0 0.00000000D+00 0.00000000D+00 0.00000000D+00 0.00000000D+00 0.00000000D+00
  <mgrwgt>
 0.1460175014D-02    6    2    0
 0.200081534930444D+03 0.000000000000000D+00 0.000000000000000D+00 0.200081534930444D+03
 0.200081534930444D+03 0.000000000000000D+00 0.000000000000000D+00 -.200081534930444D+03
 0.164971831039430D+03 0.373132913448480D+02 -.724627637062694D+02 -.118765968388237D+03
 0.277434074075275D+02 0.120094717144274D+02 -.154707295550339D+02 -.196500832251525D+02
 0.689348305041866D+02 -.386929613306937D+02 0.119122477446798D+02 0.557939419092408D+02
 0.138513000909743D+03 -.106298017285817D+02 0.760212455166235D+02 0.826221097041483D+02
 0.000000000000000D+00 -.000000000000000D+00 0.000000000000000D+00 0.000000000000000D+00
 0.207081933510317D+03 0.000000000000000D+00 0.000000000000000D+00 0.207081933510317D+03
 0.206404254008769D+03 0.000000000000000D+00 0.000000000000000D+00 -.206404254008769D+03
 0.167440882407270D+03 0.373588223039368D+02 -.778986283308110D+02 -.118765968388237D+03
 0.282676546197856D+02 0.120171436152619D+02 -.163866648918636D+02 -.196500832251525D+02
 0.685714081499487D+02 -.386741269399699D+02 0.966364151478112D+01 0.557939419092408D+02
 0.136097214319731D+03 -.105921880454426D+02 0.715306111512114D+02 0.826221097041483D+02
 0.131090280223513D+02 -.109650933786291D+00 0.130910405566820D+02 0.677679501547339D+00
0.229424846210D-05 0.000000000000D+00 0.000000000000D+00 0.151103292842D-07 0.000000000000D+00  7 -2 2 24 -11 11 -24 21 0 0.63597831D-02 0.14898584D+00 0.20412345D+05 0.20412345D+05 0.20412345D+05 0.11831771D+01  1  2  2  2  7  2        2 0.897592877719D-03 0.100000000000D+01
-.109881631120D-06 0.000000000000D+00 -.881051818397D-08 0.151103292842D-07 0.000000000000D+00  7 -2 2 24 -11 11 -24 21 2 0.63597831D-02 0.14898584D+00 0.20412345D+05 0.20412345D+05 0.20412345D+05 0.11831771D+01  1  2  3  2  7  2        2 -.601815755737D-04 0.100000000000D+01
0.137281196690D-06 0.000000000000D+00 0.000000000000D+00 0.151103292842D-07 0.000000000000D+00  7 -2 2 24 -11 11 -24 21 2 0.63597831D-02 0.14898584D+00 0.20412345D+05 0.20412345D+05 0.20412345D+05 0.11831771D+01  1  2 15  2  7  2        2 0.751881695711D-04 0.100000000000D+01
0.482482559731D-05 0.000000000000D+00 0.000000000000D+00 0.151103292842D-07 0.000000000000D+00  7 -2 2 24 -11 11 -24 21 2 0.63597831D-02 0.15621518D+00 0.22418139D+05 0.22418139D+05 0.22418139D+05 0.11792600D+01  1  2 12  2  7  2        2 0.246627942633D-02 0.100000000000D+01
-.354146298990D-05 0.000000000000D+00 0.000000000000D+00 0.151103292842D-07 0.000000000000D+00  7 -2 2 24 -11 11 -24 21 2 0.63597831D-02 0.14898584D+00 0.20412345D+05 0.20412345D+05 0.20412345D+05 0.11831771D+01  1  2  4  2  7  2        2 -.193964014181D-02 0.100000000000D+01
0.532977657315D-07 0.000000000000D+00 0.000000000000D+00 0.151103292842D-07 0.000000000000D+00  7 -2 21 24 -11 11 -24 -2 2 0.63597831D-02 0.15621518D+00 0.22418139D+05 0.22418139D+05 0.22418139D+05 0.11792600D+01  1  2 12  4  7  2        2 0.209362582629D-04 0.100000000000D+01
  </mgrwgt>
  </event>
  <event>
  8     66 0.27011060E-05 0.28036605E+03 0.75467711E-02 0.91475504E-01
       -2 -1    0    0    0  501 0.00000000E+00 0.00000000E+00 0.17055007E+04 0.17055007E+04 0.32000000E+00 0.0000E+00 0.9000E+01
        2 -1    0    0  501    0 0.00000000E+00 0.00000000E+00 -.18802053E+03 0.18802081E+03 0.32000000E+00 0.0000E+00 0.9000E+01
       25  2    1    2    0    0 -.15267641E+03 0.10965692E+03 0.16220071E+04 0.16601673E+04 0.29985585E+03 0.0000E+00 0.0000E+00
       23  2    1    2    0    0 0.15267641E+03 -.10965692E+03 -.10452700E+03 0.23335422E+03 0.90518350E+02 0.0000E+00 0.0000E+00
       24  1    3    3    0    0 0.17004455E+02 0.14126785E+03 0.76279465E+03 0.78010811E+03 0.80419002E+02 0.0000E+00 0.9000E+01
      -13  1    4    4    0    0 0.75912917E+02 -.10553474E+03 -.80079620E+02 0.15268631E+03 0.10565837E+00 0.0000E+00 0.9000E+01
       13  1    4    4    0    0 0.76763498E+02 -.41221822E+01 -.24447381E+02 0.80667915E+02 0.10565837E+00 0.0000E+00 0.9000E+01
      -24  1    3    3    0    0 -.16968087E+03 -.31610933E+02 0.85921247E+03 0.88005916E+03 0.80419002E+02 0.0000E+00 0.9000E+01
#aMCatNLO 1  0  0  2  1 0.60386598D+03 0.00000000D+00  -5  7  0 0.00000000D+00 0.00000000D+00 0.00000000D+00 0.00000000D+00 0.00000000D+00
  <mgrwgt>
 0.1568144176D-02    3    2    0
 0.566276814392734D+03 0.000000000000000D+00 0.000000000000000D+00 0.566276814392734D+03
 0.566276814392734D+03 0.000000000000000D+00 0.000000000000000D+00 -.566276814392734D+03
 0.282216871203548D+03 0.170044554369780D+02 0.141267853427559D+03 0.230072572291465D+03
 0.362573856163423D+03 0.759129156658408D+02 -.105534876199598D+03 -.338466276479446D+03
 0.167625214643940D+03 0.767634986621755D+02 -.412204405352640D+01 -.148958338505738D+03
 0.320137686774556D+03 -.169680869764994D+03 -.316109331744341D+02 0.257352042693719D+03
 0.000000000000000D+00 0.000000000000000D+00 -.000000000000000D+00 0.000000000000000D+00
 0.105507995530719D+04 0.000000000000000D+00 0.000000000000000D+00 0.105507995530719D+04
 0.862296664842981D+03 0.000000000000000D+00 0.000000000000000D+00 -.862296664842981D+03
 0.382513124033968D+03 -.595017731796077D+02 0.288747683231445D+03 0.230072572291465D+03
 0.342304813945162D+03 -.521417212717090D+01 0.508525097237029D+02 -.338466276479446D+03
 0.169165582304274D+03 0.380010027737879D+02 0.705997975502817D+02 -.148958338505738D+03
 0.389500740650666D+03 -.251355775595457D+03 0.125832472793088D+03 0.257352042693719D+03
 0.633892359216101D+03 0.278070718128448D+03 -.536032463298517D+03 0.192783290464210D+03
0.126925994040D-02 0.000000000000D+00 0.000000000000D+00 0.549176247118D-05 0.000000000000D+00  7 -2 2 24 -13 13 -24 21 0 0.26238474D+00 0.28926259D-01 0.78605123D+05 0.78605123D+05 0.78605123D+05 0.11304038D+01  1  2  2  2  7  2        2 0.149674287536D-02 0.100000000000D+01
-.281448668481D-04 0.000000000000D+00 -.487429237497D-05 0.549176247118D-05 0.000000000000D+00  7 -2 2 24 -13 13 -24 21 2 0.26238474D+00 0.28926259D-01 0.78605123D+05 0.78605123D+05 0.78605123D+05 0.11304038D+01  1  2  3  2  7  2        2 -.424094914638D-04 0.100000000000D+01
0.755300162383D-04 0.000000000000D+00 0.000000000000D+00 0.549176247118D-05 0.000000000000D+00  7 -2 2 24 -13 13 -24 21 2 0.26238474D+00 0.28926259D-01 0.78605123D+05 0.78605123D+05 0.78605123D+05 0.11304038D+01  1  2 15  2  7  2        2 0.113810791723D-03 0.100000000000D+01
  </mgrwgt>
  </event>
  <event>
  9     66 0.27011060E-05 0.34345505E+03 0.75467711E-02 0.98742930E-01
       -2 -1    0    0    0  502 0.00000000E+00 0.00000000E+00 0.47449209E+03 0.47449220E+03 0.32000000E+00 0.0000E+00 0.9000E+01
        2 -1    0    0  501    0 0.00000000E+00 0.00000000E+00 -.44258381E+03 0.44258392E+03 0.32000000E+00 0.0000E+00 0.9000E+01
       25  2    1    2    0    0 -.71235466E+02 -.27973915E+03 -.22490042E+03 0.47402380E+03 0.30131360E+03 0.0000E+00 0.0000E+00
       23  2    1    2    0    0 0.86764416E+02 0.26777442E+03 0.14496881E+03 0.32950486E+03 0.91248530E+02 0.0000E+00 0.0000E+00
       24  1    3    3    0    0 0.42398899E+02 0.35785933E+00 -.38145305E+01 0.90992095E+02 0.80419002E+02 0.0000E+00 0.9000E+01
      -11  1    4    4    0    0 0.81404720E+02 0.21324011E+03 0.74213993E+02 0.24001206E+03 0.51099893E-03 0.0000E+00 0.9000E+01
       11  1    4    4    0    0 0.53596964E+01 0.54534309E+02 0.70754815E+02 0.89492799E+02 0.51099893E-03 0.0000E+00 0.9000E+01
      -24  1    3    3    0    0 -.11363436E+03 -.28009701E+03 -.22108589E+03 0.38303170E+03 0.80419002E+02 0.0000E+00 0.9000E+01
       21  1    1    2  501  502 -.15528950E+02 0.11964727E+02 0.11183989E+03 0.11354746E+03 0.75000000E+00 0.0000E+00 0.9000E+01
#aMCatNLO 2  0  0  1  2 0.19603647D+02 0.00000000D+00  -5  7  0 0.00000000D+00 0.00000000D+00 0.00000000D+00 0.00000000D+00 0.00000000D+00
  <mgrwgt>
 0.7976757955D-04    2    2    0
 0.399651392220606D+03 0.000000000000000D+00 0.000000000000000D+00 0.399651392220606D+03
 0.399651392220606D+03 0.000000000000000D+00 0.000000000000000D+00 -.399651392220606D+03
 0.902733317765088D+02 0.406376386062369D+02 0.171487285175013D+01 0.526308039766863D+01
 0.250312957626347D+03 0.765587083599483D+02 0.216973859711441D+03 0.985783197859741D+02
 0.977537347752927D+02 0.346801130050840D+01 0.559918125937641D+02 0.800542471240759D+02
 0.360962760263064D+03 -.120664358266694D+03 -.274680545156955D+03 -.183895647307719D+03
 0.000000000000000D+00 -.000000000000000D+00 0.000000000000000D+00 0.000000000000000D+00
 0.524291696884312D+03 0.000000000000000D+00 0.000000000000000D+00 0.524291696884312D+03
 0.400543141624688D+03 0.000000000000000D+00 0.000000000000000D+00 -.400543141624688D+03
 0.910643214139077D+02 0.423988985898863D+02 0.357859325951421D+00 0.526308039766863D+01
 0.248627750462311D+03 0.814047195876745D+02 0.213240110666300D+03 0.985783197859741D+02
 0.970123688674167D+02 0.535969644411740D+01 0.545343092437415D+02 0.800542471240759D+02
 0.362838706436480D+03 -.113634364567227D+03 -.280097006454559D+03 -.183895647307719D+03
 0.125291691328884D+03 -.155289500544515D+02 0.119647272185667D+02 0.123748555259623D+03
-.768693900313D-03 0.000000000000D+00 0.000000000000D+00 0.514033128154D-06 0.000000000000D+00  7 -2 2 24 -11 11 -24 21 2 0.73047048D-01 0.67938052D-01 0.12473174D+06 0.12473174D+06 0.12473174D+06 0.11139301D+01  1  2 13  1  7  1       -2 -.144827850952D-01 0.100000000000D+01
0.773715493919D-03 0.000000000000D+00 0.000000000000D+00 0.514033128154D-06 0.920201752952D-08  7 -2 2 24 -11 11 -24 21 2 0.72998596D-01 0.68089644D-01 0.12473174D+06 0.12473174D+06 0.12473174D+06 0.11139301D+01  1  2  1  1  7  1       -2 0.145625526748D-01 0.100000000000D+01
  </mgrwgt>
  </event>
  <event>
  8     66 0.27011060E-05 0.34404379E+03 0.75467711E-02 0.94426738E-01
       -4 -1    0    0    0  501 0.00000000E+00 0.00000000E+00 0.52792822E+03 0.52793049E+03 0.15500000E+01 0.0000E+00 0.9000E+01
        4 -1    0    0  501    0 0.00000000E+00 0.00000000E+00 -.42681197E+03 0.42681479E+03 0.15500000E+01 0.0000E+00 0.9000E+01
       25  2    1    2    0    0 0.16060444E+03 0.22399928E+03 -.26590313E+03 0.48696164E+03 0.30076187E+03 0.0000E+00 0.0000E+00
       23  2    1    2    0    0 -.16060444E+03 -.22399928E+03 0.36701937E+03 0.46778364E+03 0.90270975E+02 0.0000E+00 0.0000E+00
       24  1    3    3    0    0 0.27238338E+02 0.22804687E+03 -.11166876E+03 0.26773948E+03 0.80419002E+02 0.0000E+00 0.9000E+01
      -13  1    4    4    0    0 -.38031103E+02 -.55001487E+01 0.63511988E+02 0.74232070E+02 0.10565837E+00 0.0000E+00 0.9000E+01
       13  1    4    4    0    0 -.12257334E+03 -.21849913E+03 0.30350738E+03 0.39355157E+03 0.10565837E+00 0.0000E+00 0.9000E+01
      -24  1    3    3    0    0 0.13336611E+03 -.40475877E+01 -.15423437E+03 0.21922216E+03 0.80419002E+02 0.0000E+00 0.9000E+01
#aMCatNLO 1  0  0  1  1 0.30415596D+03 0.00000000D+00  -5  7  0 0.00000000D+00 0.00000000D+00 0.00000000D+00 0.00000000D+00 0.00000000D+00
  <mgrwgt>
 0.3811059217D-04    4    2    0
 0.474687806275691D+03 0.000000000000000D+00 0.000000000000000D+00 0.474687806275691D+03
 0.474687806275691D+03 0.000000000000000D+00 0.000000000000000D+00 -.474687806275691D+03
 0.281147445661874D+03 0.272383380203250D+02 0.228046868045348D+03 -.140816792906329D+03
 0.678869769217994D+02 -.380309875433972D+02 -.549985695288241D+01 0.559646066326989D+02
 0.363451887889302D+03 -.122573455605994D+03 -.218499423400273D+03 0.263307851696169D+03
 0.236889302078407D+03 0.133366105129066D+03 -.404758769219242D+01 -.178455665422539D+03
 0.000000000000000D+00 -.000000000000000D+00 -.000000000000000D+00 -.000000000000000D+00
 0.599781869966996D+03 0.000000000000000D+00 0.000000000000000D+00 0.599781869966996D+03
 0.726699764448463D+03 0.000000000000000D+00 0.000000000000000D+00 -.726699764448463D+03
 0.366936017787594D+03 0.614571852768700D+02 0.323370484752192D+03 -.140816792906329D+03
 0.655108389520926D+02 -.309875745523460D+02 0.141210144117586D+02 0.559646066326989D+02
 0.302495711673711D+03 -.874113808494197D+02 -.120548253053003D+03 0.263307851696169D+03
 0.261965100562614D+03 0.159705648675465D+03 0.693266126257303D+02 -.178455665422539D+03
 0.329573965439448D+03 -.102763878550569D+03 -.286269858736678D+03 -.126917894481467D+03
0.794541040499D-04 0.000000000000D+00 0.000000000000D+00 0.109408753939D-05 0.000000000000D+00  7 -4 4 24 -13 13 -24 21 0 0.81220117D-01 0.65663772D-01 0.11836613D+06 0.11836613D+06 0.11836613D+06 0.11157620D+01  1  2  2  1  7  1       -4 0.471431352933D-04 0.100000000000D+01
-.385803852449D-05 0.000000000000D+00 -.305124680298D-06 0.109408753939D-05 0.000000000000D+00  7 -4 4 24 -13 13 -24 21 2 0.81220117D-01 0.65663772D-01 0.11836613D+06 0.11836613D+06 0.11836613D+06 0.11157620D+01  1  2  3  1  7  1       -4 -.284978300953D-05 0.100000000000D+01
0.457401336257D-05 0.000000000000D+00 0.000000000000D+00 0.109408753939D-05 0.000000000000D+00  7 -4 4 24 -13 13 -24 21 2 0.81220117D-01 0.65663772D-01 0.11836613D+06 0.11836613D+06 0.11836613D+06 0.11157620D+01  1  2 15  1  7  1       -4 0.337864577642D-05 0.100000000000D+01
-.129442389597D-04 0.000000000000D+00 0.000000000000D+00 0.109408753939D-05 0.000000000000D+00  7 -4 4 24 -13 13 -24 21 2 0.81220117D-01 0.65663772D-01 0.11836613D+06 0.11836613D+06 0.11836613D+06 0.11157620D+01  1  2  4  1  7  1       -4 -.956140588660D-05 0.100000000000D+01
  </mgrwgt>
  </event>
  <event>
  7     66 0.27011060E-05 0.54892111E+03 0.75467711E-02 0.88065326E-01
       -2 -1    0    0    0  501 0.00000000E+00 0.00000000E+00 0.22476330E+03 0.22476353E+03 0.32000000E+00 0.0000E+00 0.9000E+01
        2 -1    0    0  501    0 0.00000000E+00 0.00000000E+00 -.13570467E+04 0.13570468E+04 0.32000000E+00 0.0000E+00 0.9000E+01
       23  2    1    2    0    0 -.48846313E+03 -.70065763E+01 -.48923975E+03 0.69732721E+03 0.90908661E+02 0.0000E+00 0.0000E+00
       24  1    1    2    0    0 0.71536737E+02 0.12658214E+03 -.17824686E+03 0.24367951E+03 0.80419002E+02 0.0000E+00 0.9000E+01
      -11  1    3    3    0    0 -.63515095E+02 -.16062818E+02 -.31558864E+02 0.72719621E+02 0.51099893E-03 0.0000E+00 0.9000E+01
       11  1    3    3    0    0 -.42494803E+03 0.90562416E+01 -.45768088E+03 0.62460758E+03 0.51099893E-03 0.0000E+00 0.9000E+01
      -24  1    1    2    0    0 0.41692639E+03 -.11957557E+03 -.46479682E+03 0.64080358E+03 0.80419002E+02 0.0000E+00 0.9000E+01
#aMCatNLO 1  0  0  2  2 0.60716400D+03 0.00000000D+00  -5  7  0 0.00000000D+00 0.00000000D+00 0.00000000D+00 0.00000000D+00 0.00000000D+00
  <mgrwgt>
 0.1586582604D-02    5    2    0
 0.552281191279034D+03 0.000000000000000D+00 0.000000000000000D+00 0.552281191279034D+03
 0.552281191279034D+03 0.000000000000000D+00 0.000000000000000D+00 -.552281191279034D+03
 0.166245739099826D+03 0.715367386414942D+02 0.126582141816329D+03 -.546682834978823D+01
 0.717886723801619D+02 -.635150951518013D+02 -.160628179391882D+02 0.293501626880729D+02
 0.425314351147061D+03 -.424948032994079D+03 0.905624159787767D+01 -.151476412100852D+02
 0.441213619931020D+03 0.416926389504386D+03 -.119575565475019D+03 -.873569312819946D+01
 0.000000000000000D+00 0.000000000000000D+00 0.000000000000000D+00 -.000000000000000D+00
 0.817853155071958D+03 0.000000000000000D+00 0.000000000000000D+00 0.817853155071958D+03
 0.112139998507855D+04 0.000000000000000D+00 0.000000000000000D+00 -.112139998507855D+04
 0.115315783329042D+03 0.154269893965078D+02 0.810100963854143D+02 -.546682834978823D+01
 0.114586969704509D+03 -.100656145010225D+03 -.462285847493329D+02 0.293501626880729D+02
 0.663514961819981D+03 -.641930592237791D+03 -.167175860320742D+03 -.151476412100852D+02
 0.367021167344050D+03 0.255860875815327D+03 -.250392134894054D+03 -.873569312819946D+01
 0.678814257952930D+03 0.471298872036180D+03 0.382786483578715D+03 -.303546830006597D+03
0.107407238643D-03 0.000000000000D+00 0.000000000000D+00 0.914118953562D-09 0.000000000000D+00  7 -2 2 24 -11 11 -24 21 0 0.34578990D-01 0.20877644D+00 0.30131439D+06 0.30131439D+06 0.30131439D+06 0.10844114D+01  1  2  2  2  7  2        2 0.160707632115D-02 0.100000000000D+01
-.596679862310D-05 0.000000000000D+00 -.412472077364D-06 0.914118953562D-09 0.000000000000D+00  7 -2 2 24 -11 11 -24 21 2 0.34578990D-01 0.20877644D+00 0.30131439D+06 0.30131439D+06 0.30131439D+06 0.10844114D+01  1  2  3  2  7  2        2 -.104986268903D-03 0.100000000000D+01
0.680179218723D-05 0.000000000000D+00 0.000000000000D+00 0.914118953562D-09 0.000000000000D+00  7 -2 2 24 -11 11 -24 21 2 0.34578990D-01 0.20877644D+00 0.30131439D+06 0.30131439D+06 0.30131439D+06 0.10844114D+01  1  2 15  2  7  2        2 0.119678043235D-03 0.100000000000D+01
-.220133137800D-04 0.000000000000D+00 -.294930531375D-04 0.914118953562D-09 0.000000000000D+00  7 -2 2 24 -11 11 -24 21 2 0.34578990D-01 0.48696895D+00 0.30131439D+06 0.30131439D+06 0.30131439D+06 0.10844114D+01  1  2  5  2  7  2        2 -.351707914575D-04 0.100000000000D+01
-.168547130271D-06 0.000000000000D+00 -.272283167999D-05 0.914118953562D-09 0.000000000000D+00  7 -2 21 24 -11 11 -24 -2 2 0.34578990D-01 0.48696895D+00 0.30131439D+06 0.30131439D+06 0.30131439D+06 0.10844114D+01  1  2  5  4  7  2        2 -.147000062840D-07 0.100000000000D+01
  </mgrwgt>
  </event>
  <event>
  8     66 0.27011060E-05 0.44769750E+03 0.75467711E-02 0.84132528E-01
       -2 -1    0    0    0  501 0.00000000E+00 0.00000000E+00 0.53556750E+03 0.53556760E+03 0.32000000E+00 0.0000E+00 0.9000E+01
        2 -1    0    0  501    0 0.00000000E+00 0.00000000E+00 -.10314005E+04 0.10314005E+04 0.32000000E+00 0.0000E+00 0.9000E+01
       25  2    1    2    0    0 -.12795220E+03 0.39279308E+03 0.35182246E+03 0.61988031E+03 0.29969048E+03 0.0000E+00 0.0000E+00
       23  2    1    2    0    0 0.12795220E+03 -.39279308E+03 -.84765542E+03 0.94708779E+03 0.88302928E+02 0.0000E+00 0.0000E+00
       24  1    3    3    0    0 -.14713364E+03 0.34650762E+03 0.35697635E+03 0.52499064E+03 0.80419002E+02 0.0000E+00 0.9000E+01
      -13  1    4    4    0    0 -.13734117E+01 -.38776696E+02 -.14054449E+03 0.14580220E+03 0.10565837E+00 0.0000E+00 0.9000E+01
       13  1    4    4    0    0 0.12932561E+03 -.35401638E+03 -.70711094E+03 0.80128559E+03 0.10565837E+00 0.0000E+00 0.9000E+01
      -24  1    3    3    0    0 0.19181436E+02 0.46285456E+02 -.51538906E+01 0.94889670E+02 0.80419002E+02 0.0000E+00 0.9000E+01
#aMCatNLO 1  0  0  2  2 0.12851186D+04 0.00000000D+00  -5  7  0 0.00000000D+00 0.00000000D+00 0.00000000D+00 0.00000000D+00 0.00000000D+00
  <mgrwgt>
 0.1932039836D-02    5    2    0
 0.743225861475095D+03 0.000000000000000D+00 0.000000000000000D+00 0.743225861475095D+03
 0.743225861475095D+03 0.000000000000000D+00 0.000000000000000D+00 -.743225861475095D+03
 0.672503666481409D+03 -.147133637965585D+03 0.346507623842798D+03 0.551432792527247D+03
 0.106817962262100D+03 -.137359885045495D+01 -.387762451567950D+02 -.995218222279197D+02
 0.608819724817555D+03 0.129325800469167D+03 -.354016834936089D+03 -.478130081925167D+03
 0.983103693891266D+02 0.191814363468724D+02 0.462854562500858D+02 0.262191116258402D+02
 0.000000000000000D+00 0.000000000000000D+00 0.000000000000000D+00 -.000000000000000D+00
 0.159160912326006D+04 0.000000000000000D+00 0.000000000000000D+00 0.159160912326006D+04
 0.166030442620963D+04 0.000000000000000D+00 0.000000000000000D+00 -.166030442620963D+04
 0.730736515275926D+03 -.468083872685912D+03 -.657875539915772D+02 0.551432792527247D+03
 0.168387349704422D+03 -.643187814501441D+02 -.119636118265691D+03 -.995218222279197D+02
 0.977641945160929D+03 -.233531001932783D+03 -.820145516864263D+03 -.478130081925167D+03
 0.881943923405628D+02 -.234760843197886D+02 -.851272791251511D+01 0.262191116258402D+02
 0.128695334698785D+04 0.789409740388627D+03 0.101408191703405D+04 -.686953029495667D+02
0.451437293960D-03 0.000000000000D+00 0.000000000000D+00 0.239442683048D-05 0.000000000000D+00  7 -2 2 24 -13 13 -24 21 0 0.82395011D-01 0.15867700D+00 0.20043305D+06 0.20043305D+06 0.20043305D+06 0.10977532D+01  1  2  2  2  7  2        2 0.183194311196D-02 0.100000000000D+01
-.172451828489D-04 0.000000000000D+00 -.173363807497D-05 0.239442683048D-05 0.000000000000D+00  7 -2 2 24 -13 13 -24 21 2 0.82395011D-01 0.15867700D+00 0.20043305D+06 0.20043305D+06 0.20043305D+06 0.10977532D+01  1  2  3  2  7  2        2 -.843318861010D-04 0.100000000000D+01
0.269514105216D-04 0.000000000000D+00 0.000000000000D+00 0.239442683048D-05 0.000000000000D+00  7 -2 2 24 -13 13 -24 21 2 0.82395011D-01 0.15867700D+00 0.20043305D+06 0.20043305D+06 0.20043305D+06 0.10977532D+01  1  2 15  2  7  2        2 0.131796995270D-03 0.100000000000D+01
0.206640575740D-03 0.000000000000D+00 -.138728763589D-03 0.239442683048D-05 0.000000000000D+00  7 -2 2 24 -13 13 -24 21 2 0.82395011D-01 0.50176256D+00 0.20043305D+06 0.20043305D+06 0.20043305D+06 0.10977532D+01  1  2  5  2  7  2        2 0.522129192752D-04 0.100000000000D+01
0.335213581265D-04 0.000000000000D+00 -.183526957299D-04 0.239442683048D-05 0.000000000000D+00  7 -2 21 24 -13 13 -24 -2 2 0.82395011D-01 0.50176256D+00 0.20043305D+06 0.20043305D+06 0.20043305D+06 0.10977532D+01  1  2  5  4  7  2        2 0.418695439977D-06 0.100000000000D+01
  </mgrwgt>
  </event>
  <event>
  9     66 0.27011060E-05 0.60803681E+03 0.75467711E-02 0.91795171E-01
       21 -1    0    0  502  501 0.00000000E+00 0.00000000E+00 0.22806165E+03 0.22806289E+03 0.75000000E+00 0.0000E+00 0.9000E+01
        2 -1    0    0  501    0 0.00000000E+00 0.00000000E+00 -.20368012E+04 0.20368013E+04 0.32000000E+00 0.0000E+00 0.9000E+01
       25  2    1    2    0    0 0.19708034E+03 -.53249699E+03 -.91527032E+03 0.11183647E+04 0.30104166E+03 0.0000E+00 0.0000E+00
       23  2    1    2    0    0 -.12780001E+03 0.56164719E+03 -.57145588E+03 0.81583012E+03 0.85067958E+02 0.0000E+00 0.0000E+00
       24  1    3    3    0    0 0.24454058E+03 -.44632694E+03 -.74882542E+03 0.90896345E+03 0.80419002E+02 0.0000E+00 0.9000E+01
      -11  1    4    4    0    0 -.11584913E+03 0.52306524E+03 -.55725869E+03 0.77301715E+03 0.51099893E-03 0.0000E+00 0.9000E+01
       11  1    4    4    0    0 -.11950885E+02 0.38581946E+02 -.14197188E+02 0.42812969E+02 0.51099893E-03 0.0000E+00 0.9000E+01
      -24  1    3    3    0    0 -.47460235E+02 -.86170055E+02 -.16644490E+03 0.20940123E+03 0.80419002E+02 0.0000E+00 0.9000E+01
        2  1    1    2  502    0 -.69280331E+02 -.29150198E+02 -.32201338E+03 0.33066935E+03 0.32000000E+00 0.0000E+00 0.9000E+01
#aMCatNLO 2  0  0  1  1 0.75163145D+02 0.00000000D+00  -5  7  0 0.00000000D+00 0.00000000D+00 0.00000000D+00 0.00000000D+00 0.00000000D+00
  <mgrwgt>
 0.3344548408D-03    1    2    0
 0.617475752237118D+03 0.000000000000000D+00 0.000000000000000D+00 0.617475752237118D+03
 0.617475752237118D+03 0.000000000000000D+00 0.000000000000000D+00 -.617475752237118D+03
 0.518953713987710D+03 0.215392187243989D+03 -.458591330733633D+03 -.783960353428256D+02
 0.533991225585213D+03 -.145914075303664D+03 0.510415199435451D+03 0.577237889915675D+02
 0.497222607608205D+02 -.147418537805904D+02 0.374076253850362D+02 0.292515046678201D+02
 0.132284304140492D+03 -.547362581597343D+02 -.892314940868545D+02 -.857925831656200D+01
 0.000000000000000D+00 -.000000000000000D+00 -.000000000000000D+00 -.000000000000000D+00
 0.630584909925116D+03 0.000000000000000D+00 0.000000000000000D+00 0.630584909925116D+03
 0.736645276144093D+03 0.000000000000000D+00 0.000000000000000D+00 -.736645276144093D+03
 0.521172698409574D+03 0.244540575395308D+03 -.446326936494992D+03 -.783960353428256D+02
 0.538841632378541D+03 -.115849125319996D+03 0.523065243666046D+03 0.577237889915675D+02
 0.498702386988787D+02 -.119508845324193D+02 0.385819457965045D+02 0.292515046678201D+02
 0.127352156739098D+03 -.474602345439987D+02 -.861700547492901D+02 -.857925831656200D+01
 0.129993459843117D+03 -.692803309988936D+02 -.291501982182688D+02 -.106060366218976D+03
0.430131610766D-05 0.000000000000D+00 0.000000000000D+00 0.777721274133D-07 0.361646938193D-12  7 21 2 24 -11 11 -24 2 2 0.35086494D-01 0.31335404D+00 0.41835026D+06 0.41835026D+06 0.41835026D+06 0.10740261D+01  1  2  1  3  7  1       -2 0.334454840806D-03 0.100000000000D+01
  </mgrwgt>
  </event>
  <event>
  8     66 0.27011060E-05 0.70240728E+03 0.75467711E-02 0.86830243E-01
       -2 -1    0    0    0  501 0.00000000E+00 0.00000000E+00 0.41149199E+03 0.41149212E+03 0.32000000E+00 0.0000E+00 0.9000E+01
        2 -1    0    0  501    0 0.00000000E+00 0.00000000E+00 -.43344090E+04 0.43344090E+04 0.32000000E+00 0.0000E+00 0.9000E+01
       25  2    1    2    0    0 -.63418039E+03 -.81842308E+03 -.53755757E+03 0.12045880E+04 0.30010490E+03 0.0000E+00 0.0000E+00
       23  2    1    2    0    0 0.63418039E+03 0.81842308E+03 -.33853594E+04 0.35413131E+04 0.90770151E+02 0.0000E+00 0.0000E+00
       24  1    3    3    0    0 -.50680214E+03 -.66548733E+03 -.52217388E+03 0.98937080E+03 0.80419002E+02 0.0000E+00 0.9000E+01
      -11  1    4    4    0    0 0.51017614E+03 0.69367060E+03 -.28958450E+04 0.30211549E+04 0.51099893E-03 0.0000E+00 0.9000E+01
       11  1    4    4    0    0 0.12400425E+03 0.12475247E+03 -.48951440E+03 0.52015823E+03 0.51099893E-03 0.0000E+00 0.9000E+01
      -24  1    3    3    0    0 -.12737825E+03 -.15293575E+03 -.15383691E+02 0.21521718E+03 0.80419002E+02 0.0000E+00 0.9000E+01
#aMCatNLO 1  0  0  2  1 0.25482910D+02 0.00000000D+00  -5  7  0 0.00000000D+00 0.00000000D+00 0.00000000D+00 0.00000000D+00 0.00000000D+00
  <mgrwgt>
 0.1111892936D-02    9    2    0
 0.133550548804592D+04 0.000000000000000D+00 0.000000000000000D+00 0.133550548804592D+04
 0.133550548804592D+04 0.000000000000000D+00 0.000000000000000D+00 -.133550548804592D+04
 0.991014712337395D+03 -.506802140726450D+03 -.665487329699296D+03 0.525281970259390D+03
 0.111491222960665D+04 0.510176141147727D+03 0.693670604080117D+03 -.708216547226352D+03
 0.205276261771771D+03 0.124004246586166D+03 0.124752473540443D+03 -.105821126534974D+03
 0.359807772376021D+03 -.127378247007443D+03 -.152935747921265D+03 0.288755703501936D+03
 0.000000000000000D+00 0.000000000000000D+00 0.000000000000000D+00 -.000000000000000D+00
 0.134761256406267D+04 0.000000000000000D+00 0.000000000000000D+00 0.134761256406267D+04
 0.134904299492996D+04 0.000000000000000D+00 0.000000000000000D+00 -.134904299492996D+04
 0.998381766946104D+03 -.509073770423296D+03 -.674701181711932D+03 0.525281970259390D+03
 0.110737224367901D+04 0.507638583925261D+03 0.683378135746100D+03 -.708216547226352D+03
 0.203846800579266D+03 0.123537081741059D+03 0.122857627846931D+03 -.105821126534974D+03
 0.361531722588354D+03 -.128201922044235D+03 -.156276618093039D+03 0.288755703501936D+03
 0.255230251998962D+02 0.610002680121104D+01 0.247420362119400D+02 -.143043086729063D+01
0.456190245940D-02 0.000000000000D+00 0.000000000000D+00 0.417691268187D-04 0.000000000000D+00  7 -2 2 24 -11 11 -24 21 0 0.63306471D-01 0.66683216D+00 0.10941112D+07 0.10941112D+07 0.10941112D+07 0.10452736D+01  1  2  2  2  7  2        2 0.207627824061D-03 0.100000000000D+01
-.235042347926D-03 0.000000000000D+00 -.175189066206D-04 0.417691268187D-04 0.000000000000D+00  7 -2 2 24 -11 11 -24 21 2 0.63306471D-01 0.66683216D+00 0.10941112D+07 0.10941112D+07 0.10941112D+07 0.10452736D+01  1  2  3  2  7  2        2 -.116881467450D-04 0.100000000000D+01
0.271203453257D-03 0.000000000000D+00 0.000000000000D+00 0.417691268187D-04 0.000000000000D+00  7 -2 2 24 -11 11 -24 21 2 0.63306471D-01 0.66683216D+00 0.10941112D+07 0.10941112D+07 0.10941112D+07 0.10452736D+01  1  2 15  2  7  2        2 0.134863601704D-04 0.100000000000D+01
0.132362500178D-02 0.000000000000D+00 0.000000000000D+00 0.417691268187D-04 0.000000000000D+00  7 -2 2 24 -11 11 -24 21 2 0.63306471D-01 0.67658526D+00 0.11210314D+07 0.11210314D+07 0.11210314D+07 0.10445770D+01  1  2 12  2  7  2        2 0.570272777922D-04 0.100000000000D+01
-.104358671107D-02 0.000000000000D+00 0.000000000000D+00 0.417691268187D-04 0.000000000000D+00  7 -2 2 24 -11 11 -24 21 2 0.63306471D-01 0.66683216D+00 0.10941112D+07 0.10941112D+07 0.10941112D+07 0.10452736D+01  1  2  4  2  7  2        2 -.518953062193D-04 0.100000000000D+01
-.162642370053D+00 0.000000000000D+00 -.185806384026D-01 0.417691268187D-04 0.000000000000D+00  7 -2 2 24 -11 11 -24 21 2 0.63306471D-01 0.67475878D+00 0.10941112D+07 0.10941112D+07 0.10941112D+07 0.10452736D+01  1  2  5  2  7  2        2 -.722285357833D-02 0.100000000000D+01
0.163295780309D+00 0.000000000000D+00 0.188452861498D-01 0.417691268187D-04 0.000000000000D+00  7 -2 2 24 -11 11 -24 21 2 0.63306471D-01 0.66683216D+00 0.10941112D+07 0.10941112D+07 0.10941112D+07 0.10452736D+01  1  2  6  2  7  2        2 0.812034537580D-02 0.100000000000D+01
0.682126802884D-04 0.000000000000D+00 0.000000000000D+00 0.417691268187D-04 0.000000000000D+00  7 -2 21 24 -11 11 -24 -2 2 0.63306471D-01 0.67658526D+00 0.11210314D+07 0.11210314D+07 0.11210314D+07 0.10445770D+01  1  2 12  4  7  2        2 0.356199628621D-07 0.100000000000D+01
-.353098559893D-03 0.000000000000D+00 -.404483106777D-04 0.417691268187D-04 0.000000000000D+00  7 -2 21 24 -11 11 -24 -2 2 0.63306471D-01 0.67475878D+00 0.10941112D+07 0.10941112D+07 0.10941112D+07 0.10452736D+01  1  2  5  4  7  2        2 -.192490916665D-06 0.100000000000D+01
  </mgrwgt>
  </event>
  <event>
  8     66 0.27011060E-05 0.29596316E+03 0.75467711E-02 0.99245313E-01
       -2 -1    0    0    0  501 0.00000000E+00 0.00000000E+00 0.19162866E+03 0.19162893E+03 0.32000000E+00 0.0000E+00 0.9000E+01
        2 -1    0    0  501    0 0.00000000E+00 0.00000000E+00 -.12706173E+04 0.12706173E+04 0.32000000E+00 0.0000E+00 0.9000E+01
       25  2    1    2    0    0 0.11891549E+03 0.18509369E+03 -.11520673E+04 0.12105134E+04 0.29947138E+03 0.0000E+00 0.0000E+00
       23  2    1    2    0    0 -.11891549E+03 -.18509369E+03 0.73078701E+02 0.25173280E+03 0.98124105E+02 0.0000E+00 0.0000E+00
       24  1    3    3    0    0 0.54299584E+01 -.45639701E+02 -.42898224E+03 0.43886837E+03 0.80419002E+02 0.0000E+00 0.9000E+01
      -13  1    4    4    0    0 0.64679960E+01 -.28781847E+02 -.14705992E+02 0.32962207E+02 0.10565837E+00 0.0000E+00 0.9000E+01
       13  1    4    4    0    0 -.12538348E+03 -.15631185E+03 0.87784694E+02 0.21877060E+03 0.10565837E+00 0.0000E+00 0.9000E+01
      -24  1    3    3    0    0 0.11348553E+03 0.23073339E+03 -.72308507E+03 0.77164506E+03 0.80419002E+02 0.0000E+00 0.9000E+01
#aMCatNLO 1  0  0  1  2 0.73917527D+02 0.00000000D+00  -5  7  0 0.00000000D+00 0.00000000D+00 0.00000000D+00 0.00000000D+00 0.00000000D+00
  <mgrwgt>
 0.8793565051D-03    4    2    0
 0.493443925299307D+03 0.000000000000000D+00 0.000000000000000D+00 0.493443925299307D+03
 0.493443925299307D+03 0.000000000000000D+00 0.000000000000000D+00 -.493443925299307D+03
 0.181243157340212D+03 0.542995853030511D+01 -.456397004737411D+02 -.155786390353281D+03
 0.327603788723215D+02 0.646814707211945D+01 -.287816973463895D+02 0.142484874696339D+02
 0.420124344137106D+03 -.125383633084535D+03 -.156311996232274D+03 0.369255966674931D+03
 0.352759970248974D+03 0.113485527482110D+03 0.230733394052404D+03 -.227718063791284D+03
 0.000000000000000D+00 -.000000000000000D+00 0.000000000000000D+00 -.000000000000000D+00
 0.503838295709065D+03 0.000000000000000D+00 0.000000000000000D+00 0.503838295709065D+03
 0.646392748459940D+03 0.000000000000000D+00 0.000000000000000D+00 -.646392748459940D+03
 0.185169517321307D+03 0.863544911513101D+01 -.589623930137704D+02 -.155786390353281D+03
 0.350613965899644D+02 0.706147278851657D+01 -.312476837177333D+02 0.142484874696339D+02
 0.430487139873500D+03 -.117942222642444D+03 -.187240061924761D+03 0.369255966674931D+03
 0.338934122693809D+03 0.119536679791610D+03 0.205583533337177D+03 -.227718063791284D+03
 0.160578867690425D+03 -.172913790528133D+02 0.718666053190879D+02 -.142554452750875D+03
0.406395105045D-04 0.000000000000D+00 0.000000000000D+00 0.133612010699D-06 0.000000000000D+00  7 -2 2 24 -13 13 -24 21 0 0.29481356D-01 0.19547960D+00 0.87594190D+05 0.87594190D+05 0.87594190D+05 0.11264734D+01  1  2  2  1  7  1       -2 0.936946534717D-03 0.100000000000D+01
-.154045955474D-05 0.000000000000D+00 -.156066420966D-06 0.133612010699D-06 0.000000000000D+00  7 -2 2 24 -13 13 -24 21 2 0.29481356D-01 0.19547960D+00 0.87594190D+05 0.87594190D+05 0.87594190D+05 0.11264734D+01  1  2  3  1  7  1       -2 -.450669868568D-04 0.100000000000D+01
0.226769465876D-05 0.000000000000D+00 0.000000000000D+00 0.133612010699D-06 0.000000000000D+00  7 -2 2 24 -13 13 -24 21 2 0.29481356D-01 0.19547960D+00 0.87594190D+05 0.87594190D+05 0.87594190D+05 0.11264734D+01  1  2 15  1  7  1       -2 0.663426475996D-04 0.100000000000D+01
-.269575169505D-05 0.000000000000D+00 0.000000000000D+00 0.133612010699D-06 0.000000000000D+00  7 -2 2 24 -13 13 -24 21 2 0.29481356D-01 0.19547960D+00 0.87594190D+05 0.87594190D+05 0.87594190D+05 0.11264734D+01  1  2  4  1  7  1       -2 -.788656903302D-04 0.100000000000D+01
  </mgrwgt>
  </event>
  <event>
  9     66 0.27011060E-05 0.24365656E+03 0.75467711E-02 0.10162580E+00
       -2 -1    0    0    0  502 0.00000000E+00 0.00000000E+00 0.52856695E+02 0.52857664E+02 0.32000000E+00 0.0000E+00 0.9000E+01
        2 -1    0    0  501    0 0.00000000E+00 0.00000000E+00 -.25852276E+04 0.25852276E+04 0.32000000E+00 0.0000E+00 0.9000E+01
       25  2    1    2    0    0 0.11300438E+03 0.20634584E+03 -.18645254E+04 0.19029163E+04 0.29880887E+03 0.0000E+00 0.0000E+00
       23  2    1    2    0    0 -.11196700E+03 -.13901081E+03 -.29920137E+03 0.36042359E+03 0.92320569E+02 0.0000E+00 0.0000E+00
       24  1    3    3    0    0 0.49739716E+02 0.15476617E+03 -.16479107E+04 0.16578611E+04 0.80419002E+02 0.0000E+00 0.9000E+01
      -13  1    4    4    0    0 -.22566103E+02 0.11185314E+02 -.50648121E+02 0.56564861E+02 0.10565837E+00 0.0000E+00 0.9000E+01
       13  1    4    4    0    0 -.89400893E+02 -.15019612E+03 -.24855325E+03 0.30385872E+03 0.10565837E+00 0.0000E+00 0.9000E+01
      -24  1    3    3    0    0 0.63264662E+02 0.51579670E+02 -.21661473E+03 0.24505518E+03 0.80419002E+02 0.0000E+00 0.9000E+01
       21  1    1    2  501  502 -.10373825E+01 -.67335029E+02 -.36864408E+03 0.37474539E+03 0.75000000E+00 0.0000E+00 0.9000E+01
#aMCatNLO 2  0  0  1  1 0.67343019D+02 0.00000000D+00  -5  7  0 0.00000000D+00 0.00000000D+00 0.00000000D+00 0.00000000D+00 0.00000000D+00
  <mgrwgt>
 0.2268900710D-03    1    2    0
 0.330325084140746D+03 0.000000000000000D+00 0.000000000000000D+00 0.330325084140746D+03
 0.330325084140746D+03 0.000000000000000D+00 0.000000000000000D+00 -.330325084140746D+03
 0.266709769709912D+03 0.493107260812147D+02 0.126921004399849D+03 -.214770566511849D+03
 0.268021866854684D+02 -.226087441858206D+02 0.841200669700747D+01 0.116807551464930D+02
 0.242398524439448D+03 -.897676085152295D+02 -.173993596241128D+03 0.142916232734275D+03
 0.124739687446664D+03 0.630656266198354D+02 0.386605851442724D+02 0.601735786310814D+02
 0.000000000000000D+00 -.000000000000000D+00 -.000000000000000D+00 -.000000000000000D+00
 0.352372255235125D+03 0.000000000000000D+00 0.000000000000000D+00 0.352372255235125D+03
 0.387790162630223D+03 0.000000000000000D+00 0.000000000000000D+00 -.387790162630223D+03
 0.281105349759519D+03 0.497397165177562D+02 0.154766165779100D+03 -.214770566511849D+03
 0.277629430672407D+02 -.225660145896473D+02 0.111855242390489D+02 0.116807551464930D+02
 0.225779811027568D+03 -.894009811232989D+02 -.150196331722445D+03 0.142916232734275D+03
 0.129425481738903D+03 0.632646617012113D+02 0.515796702542476D+02 0.601735786310814D+02
 0.760888322721167D+02 -.103738250602127D+01 -.673350285499514D+02 -.354179073950981D+02
0.500645332219D-05 0.000000000000D+00 0.000000000000D+00 0.187464021782D-06 0.285291813585D-09  7 -2 2 24 -13 13 -24 21 2 0.81318338D-02 0.39772537D+00 0.79318868D+05 0.79318868D+05 0.79318868D+05 0.11300741D+01  1  2  1  1  7  1       -2 0.226890070957D-03 0.100000000000D+01
  </mgrwgt>
  </event>
  <event>
  8     66 0.27011060E-05 0.15659220E+04 0.75467711E-02 0.82722543E-01
       -2 -1    0    0    0  501 0.00000000E+00 0.00000000E+00 0.12132901E+04 0.12132901E+04 0.32000000E+00 0.0000E+00 0.9000E+01
        2 -1    0    0  501    0 0.00000000E+00 0.00000000E+00 -.23525260E+04 0.23525260E+04 0.32000000E+00 0.0000E+00 0.9000E+01
       25  2    1    2    0    0 0.10331701E+04 0.11585751E+04 0.89451920E+02 0.15838695E+04 0.30150317E+03 0.0000E+00 0.0000E+00
       23  2    1    2    0    0 -.10331701E+04 -.11585751E+04 -.12286879E+04 0.19819467E+04 0.93285284E+02 0.0000E+00 0.0000E+00
       24  1    3    3    0    0 0.48124570E+03 0.72101841E+03 0.11246604E+02 0.87066565E+03 0.80419002E+02 0.0000E+00 0.9000E+01
      -13  1    4    4    0    0 -.59546700E+03 -.66263015E+03 -.64617263E+03 0.11005447E+04 0.10565837E+00 0.0000E+00 0.9000E+01
       13  1    4    4    0    0 -.43770314E+03 -.49594492E+03 -.58251522E+03 0.88140195E+03 0.10565837E+00 0.0000E+00 0.9000E+01
      -24  1    3    3    0    0 0.55192445E+03 0.43755665E+03 0.78205316E+02 0.71320383E+03 0.80419002E+02 0.0000E+00 0.9000E+01
#aMCatNLO 1  0  0  1  1 0.19486109D+03 0.00000000D+00  -5  7  0 0.00000000D+00 0.00000000D+00 0.00000000D+00 0.00000000D+00 0.00000000D+00
  <mgrwgt>
 0.2540245875D-03    4    2    0
 0.168946637578581D+04 0.000000000000000D+00 0.000000000000000D+00 0.168946637578581D+04
 0.168946637578581D+04 0.000000000000000D+00 0.000000000000000D+00 -.168946637578581D+04
 0.922612680647910D+03 0.481245698672742D+03 0.721018412804252D+03 0.305420969228006D+03
 0.943551806253808D+03 -.595467205179329D+03 -.662630358874509D+03 -.310853383669185D+03
 0.733750666629856D+03 -.437702941681608D+03 -.495944706367807D+03 -.317561055308698D+03
 0.779017598040047D+03 0.551924448188195D+03 0.437556652438064D+03 0.322993469749877D+03
 0.000000000000000D+00 -.000000000000000D+00 -.000000000000000D+00 -.000000000000000D+00
 0.175654780928917D+04 0.000000000000000D+00 0.000000000000000D+00 0.175654780928917D+04
 0.183996385284190D+04 0.000000000000000D+00 0.000000000000000D+00 -.183996385284190D+04
 0.967112624309752D+03 0.530371351141599D+03 0.744489001657503D+03 0.305420969228006D+03
 0.897660491917423D+03 -.547602705908431D+03 -.639762306714465D+03 -.310853383669185D+03
 0.699864067135220D+03 -.400434424929247D+03 -.478139059217987D+03 -.317561055308698D+03
 0.819909667340816D+03 0.593490460431355D+03 0.457415498775971D+03 0.322993469749877D+03
 0.211964811427860D+03 -.175824680735275D+03 -.840031345010225D+02 -.834160435527245D+02
0.683325995986D-02 0.000000000000D+00 0.000000000000D+00 0.248038437812D-05 0.000000000000D+00  7 -2 2 24 -13 13 -24 21 0 0.18666002D+00 0.36192709D+00 0.24521118D+07 0.24521118D+07 0.24521118D+07 0.10228776D+01  1  2  2  1  7  1       -2 0.491766843634D-03 0.100000000000D+01
-.376963882849D-03 0.000000000000D+00 -.262415174845D-04 0.248038437812D-05 0.000000000000D+00  7 -2 2 24 -13 13 -24 21 2 0.18666002D+00 0.36192709D+00 0.24521118D+07 0.24521118D+07 0.24521118D+07 0.10228776D+01  1  2  3  1  7  1       -2 -.283843127208D-04 0.100000000000D+01
0.424674681406D-03 0.000000000000D+00 0.000000000000D+00 0.248038437812D-05 0.000000000000D+00  7 -2 2 24 -13 13 -24 21 2 0.18666002D+00 0.36192709D+00 0.24521118D+07 0.24521118D+07 0.24521118D+07 0.10228776D+01  1  2 15  1  7  1       -2 0.319768007230D-04 0.100000000000D+01
-.320509723524D-02 0.000000000000D+00 0.000000000000D+00 0.248038437812D-05 0.000000000000D+00  7 -2 2 24 -13 13 -24 21 2 0.18666002D+00 0.36192709D+00 0.24521118D+07 0.24521118D+07 0.24521118D+07 0.10228776D+01  1  2  4  1  7  1       -2 -.241334744162D-03 0.100000000000D+01
  </mgrwgt>
  </event>
  <event>
  8     66 0.27011060E-05 0.22347633E+03 0.75467711E-02 0.10005543E+00
       -2 -1    0    0    0  501 0.00000000E+00 0.00000000E+00 0.13832775E+03 0.13832812E+03 0.32000000E+00 0.0000E+00 0.9000E+01
        2 -1    0    0  501    0 0.00000000E+00 0.00000000E+00 -.85443127E+03 0.85443133E+03 0.32000000E+00 0.0000E+00 0.9000E+01
       25  2    1    2    0    0 -.12536250E+03 0.12442771E+03 -.71622218E+03 0.79639031E+03 0.30010882E+03 0.0000E+00 0.0000E+00
       23  2    1    2    0    0 0.12536250E+03 -.12442771E+03 0.11866540E+00 0.19636914E+03 0.85806851E+02 0.0000E+00 0.0000E+00
       24  1    3    3    0    0 -.12849121E+03 0.51349501E+02 -.14840700E+03 0.21826272E+03 0.80419002E+02 0.0000E+00 0.9000E+01
      -11  1    4    4    0    0 0.37782800E+02 -.23163488E+02 -.36671947E+02 0.57523203E+02 0.51099893E-03 0.0000E+00 0.9000E+01
       11  1    4    4    0    0 0.87579695E+02 -.10126422E+03 0.36790612E+02 0.13884594E+03 0.51099893E-03 0.0000E+00 0.9000E+01
      -24  1    3    3    0    0 0.31287102E+01 0.73078210E+02 -.56781518E+03 0.57812759E+03 0.80419002E+02 0.0000E+00 0.9000E+01
#aMCatNLO 1  0  0  1  2 0.17101653D+03 0.00000000D+00  -5  7  0 0.00000000D+00 0.00000000D+00 0.00000000D+00 0.00000000D+00 0.00000000D+00
  <mgrwgt>
 0.1197351794D-02    4    2    0
 0.343790301940283D+03 0.000000000000000D+00 0.000000000000000D+00 0.343790301940283D+03
 0.343790301940283D+03 0.000000000000000D+00 0.000000000000000D+00 -.343790301940283D+03
 0.160574052668474D+03 -.128491206055279D+03 0.513495011213855D+02 0.130402889941888D+02
 0.448613488446716D+02 0.377828004861985D+02 -.231634878040671D+02 0.696085054675611D+01
 0.238788741266775D+03 0.875796954061349D+02 -.101264223482528D+03 0.197725610255273D+03
 0.243356461100645D+03 0.312871016294588D+01 0.730782101652099D+02 -.217726749796218D+03
 0.000000000000000D+00 0.000000000000000D+00 0.000000000000000D+00 -.000000000000000D+00
 0.409611689138543D+03 0.000000000000000D+00 0.000000000000000D+00 0.409611689138543D+03
 0.486370381067571D+03 0.000000000000000D+00 0.000000000000000D+00 -.486370381067571D+03
 0.189561113482312D+03 -.167739263120709D+03 0.340542253024928D+02 0.130402889941888D+02
 0.399518897550933D+02 0.282757439255504D+02 -.273529223324595D+02 0.696085054675611D+01
 0.236287044195151D+03 0.343265425075095D+02 -.124731065830214D+03 0.197725610255273D+03
 0.242729231442895D+03 -.513585874409222D+02 0.490675224739954D+02 -.217726749796218D+03
 0.187452791330663D+03 0.156495564128571D+03 0.689622403861849D+02 -.767586919290278D+02
0.214394279393D-04 0.000000000000D+00 0.000000000000D+00 0.131475129651D-06 0.000000000000D+00  7 -2 2 24 -11 11 -24 21 0 0.21281226D-01 0.13145100D+00 0.49941669D+05 0.49941669D+05 0.49941669D+05 0.11473400D+01  1  2  2  1  7  1       -2 0.153234814330D-02 0.100000000000D+01
-.922405626718D-06 0.000000000000D+00 -.823330484181D-07 0.131475129651D-06 0.000000000000D+00  7 -2 2 24 -11 11 -24 21 2 0.21281226D-01 0.13145100D+00 0.49941669D+05 0.49941669D+05 0.49941669D+05 0.11473400D+01  1  2  3  1  7  1       -2 -.867861560636D-04 0.100000000000D+01
0.116712246629D-05 0.000000000000D+00 0.000000000000D+00 0.131475129651D-06 0.000000000000D+00  7 -2 2 24 -11 11 -24 21 2 0.21281226D-01 0.13145100D+00 0.49941669D+05 0.49941669D+05 0.49941669D+05 0.11473400D+01  1  2 15  1  7  1       -2 0.109810770415D-03 0.100000000000D+01
-.380522155566D-05 0.000000000000D+00 0.000000000000D+00 0.131475129651D-06 0.000000000000D+00  7 -2 2 24 -11 11 -24 21 2 0.21281226D-01 0.13145100D+00 0.49941669D+05 0.49941669D+05 0.49941669D+05 0.11473400D+01  1  2  4  1  7  1       -2 -.358020964119D-03 0.100000000000D+01
  </mgrwgt>
  </event>
  <event>
  8     66 0.27011060E-05 0.18859855E+03 0.75467711E-02 0.10502896E+00
       -2 -1    0    0    0  501 0.00000000E+00 0.00000000E+00 0.34529387E+03 0.34529402E+03 0.32000000E+00 0.0000E+00 0.9000E+01
        2 -1    0    0  501    0 0.00000000E+00 0.00000000E+00 -.13407381E+03 0.13407420E+03 0.32000000E+00 0.0000E+00 0.9000E+01
       25  2    1    2    0    0 -.66776021E+02 0.85136867E+01 0.10955296E+03 0.32684610E+03 0.30049127E+03 0.0000E+00 0.0000E+00
       23  2    1    2    0    0 0.66776021E+02 -.85136867E+01 0.10166710E+03 0.15252212E+03 0.91625748E+02 0.0000E+00 0.0000E+00
       24  1    3    3    0    0 0.57567751E+02 0.60012875E+02 -.27159122E+02 0.11882939E+03 0.80419002E+02 0.0000E+00 0.9000E+01
      -11  1    4    4    0    0 0.85353194E+02 -.10715975E+02 0.10247789E+03 0.13379730E+03 0.51099893E-03 0.0000E+00 0.9000E+01
       11  1    4    4    0    0 -.18577173E+02 0.22022883E+01 -.81079025E+00 0.18724818E+02 0.51099893E-03 0.0000E+00 0.9000E+01
      -24  1    3    3    0    0 -.12434377E+03 -.51499188E+02 0.13671208E+03 0.20801670E+03 0.80419002E+02 0.0000E+00 0.9000E+01
#aMCatNLO 1  0  0  2  2 0.55536171D+02 0.00000000D+00  -5  7  0 0.00000000D+00 0.00000000D+00 0.00000000D+00 0.00000000D+00 0.00000000D+00
  <mgrwgt>
 0.2684395958D-03    4    2    0
 0.215162713690635D+03 0.000000000000000D+00 0.000000000000000D+00 0.215162713690635D+03
 0.215162713690635D+03 0.000000000000000D+00 0.000000000000000D+00 -.215162713690635D+03
 0.145702721312935D+03 0.575677503061292D+02 0.600128746599749D+02 -.885803366631758D+02
 0.987457041182987D+02 0.853531944087784D+02 -.107159750142519D+02 0.484841640696197D+02
 0.212567909918226D+02 -.185771727701172D+02 0.220228822910707D+01 -.100940448629466D+02
 0.164620210958213D+03 -.124343771944790D+03 -.514991878748301D+02 0.501902174565027D+02
 0.000000000000000D+00 -.000000000000000D+00 0.000000000000000D+00 0.000000000000000D+00
 0.248951214356723D+03 0.000000000000000D+00 0.000000000000000D+00 0.248951214356723D+03
 0.241039896593052D+03 0.000000000000000D+00 0.000000000000000D+00 -.241039896593052D+03
 0.151619442574752D+03 0.757608272987253D+02 0.541761978728599D+02 -.885803366631758D+02
 0.110475909452056D+03 0.981554183480557D+02 -.148231660804050D+02 0.484841640696197D+02
 0.190633638409938D+02 -.161099914754731D+02 0.141077067559405D+01 -.100940448629466D+02
 0.152735556711659D+03 -.104924843198384D+03 -.577291406580189D+02 0.501902174565027D+02
 0.560968383703140D+02 -.528814109729241D+02 0.169653381899700D+02 0.791131776367136D+01
0.760831806236D-05 0.000000000000D+00 0.000000000000D+00 0.295352212424D-06 0.000000000000D+00  7 -2 2 24 -11 11 -24 21 0 0.53122175D-01 0.20626781D-01 0.35569413D+05 0.35569413D+05 0.35569413D+05 0.11605358D+01  1  2  2  2  7  2        2 0.847823065221D-03 0.100000000000D+01
-.413760405769D-06 0.000000000000D+00 -.292179446756D-07 0.295352212424D-06 0.000000000000D+00  7 -2 2 24 -11 11 -24 21 2 0.53122175D-01 0.20626781D-01 0.35569413D+05 0.35569413D+05 0.35569413D+05 0.11605358D+01  1  2  3  2  7  2        2 -.620987074936D-04 0.100000000000D+01
0.490378567085D-06 0.000000000000D+00 0.000000000000D+00 0.295352212424D-06 0.000000000000D+00  7 -2 2 24 -11 11 -24 21 2 0.53122175D-01 0.20626781D-01 0.35569413D+05 0.35569413D+05 0.35569413D+05 0.11605358D+01  1  2 15  2  7  2        2 0.735978473870D-04 0.100000000000D+01
-.393701959416D-05 0.000000000000D+00 0.000000000000D+00 0.295352212424D-06 0.000000000000D+00  7 -2 2 24 -11 11 -24 21 2 0.53122175D-01 0.20626781D-01 0.35569413D+05 0.35569413D+05 0.35569413D+05 0.11605358D+01  1  2  4  2  7  2        2 -.590882609273D-03 0.100000000000D+01
  </mgrwgt>
  </event>
  <event>
  8     66 0.27011060E-05 0.19442863E+03 0.75467711E-02 0.98420579E-01
       -2 -1    0    0    0  501 0.00000000E+00 0.00000000E+00 0.75396164E+03 0.75396171E+03 0.32000000E+00 0.0000E+00 0.9000E+01
        2 -1    0    0  501    0 0.00000000E+00 0.00000000E+00 -.84548675E+02 0.84549280E+02 0.32000000E+00 0.0000E+00 0.9000E+01
       25  2    1    2    0    0 0.59368437E+02 0.49073781E+02 0.64990384E+03 0.71989140E+03 0.29989295E+03 0.0000E+00 0.0000E+00
       23  2    1    2    0    0 -.59368437E+02 -.49073781E+02 0.19509128E+02 0.11861959E+03 0.88074705E+02 0.0000E+00 0.0000E+00
       24  1    3    3    0    0 0.23246166E+02 -.10346622E+03 0.26274164E+03 0.29452678E+03 0.80419002E+02 0.0000E+00 0.9000E+01
      -13  1    4    4    0    0 -.30634344E+02 -.37951899E+02 0.53734149E+02 0.72568448E+02 0.10565837E+00 0.0000E+00 0.9000E+01
       13  1    4    4    0    0 -.28734093E+02 -.11121882E+02 -.34225022E+02 0.46051142E+02 0.10565837E+00 0.0000E+00 0.9000E+01
      -24  1    3    3    0    0 0.36122271E+02 0.15254000E+03 0.38716220E+03 0.42536462E+03 0.80419002E+02 0.0000E+00 0.9000E+01
#aMCatNLO 1  0  0  2  1 0.26256133D+03 0.00000000D+00  -5  7  0 0.00000000D+00 0.00000000D+00 0.00000000D+00 0.00000000D+00 0.00000000D+00
  <mgrwgt>
 0.1071071175D-02    3    2    0
 0.252481167753520D+03 0.000000000000000D+00 0.000000000000000D+00 0.252481167753520D+03
 0.252481167753520D+03 0.000000000000000D+00 0.000000000000000D+00 -.252481167753520D+03
 0.140765520833587D+03 0.232461664676715D+02 -.103466217712871D+03 0.458483744306230D+02
 0.492691235200790D+02 -.306343461533645D+02 -.379519368559578D+02 -.697379789455010D+01
 0.121840998756065D+03 -.287340914635876D+02 -.111218444816867D+02 -.117880810741031D+03
 0.193086692397308D+03 0.361222711492806D+02 0.152539999050516D+03 0.790062342049582D+02
 0.000000000000000D+00 -.000000000000000D+00 0.000000000000000D+00 0.000000000000000D+00
 0.498923693772774D+03 0.000000000000000D+00 0.000000000000000D+00 0.498923693772774D+03
 0.364975750687913D+03 0.000000000000000D+00 0.000000000000000D+00 -.364975750687913D+03
 0.182359349513534D+03 0.100271210301883D+03 -.120960023756999D+03 0.458483744306230D+02
 0.443688003206566D+02 -.831336175922268D+01 -.430214435029853D+02 -.697379789455010D+01
 0.124038527003811D+03 0.298775568111001D+02 -.244336292701636D+02 -.117880810741031D+03
 0.218377779307260D+03 0.134205309249128D+03 0.130263534678347D+03 0.790062342049582D+02
 0.294754988315425D+03 -.256040714602888D+03 0.581515618518006D+02 0.133947943084860D+03
0.304856841934D-04 0.000000000000D+00 0.000000000000D+00 0.175188915767D-06 0.000000000000D+00  7 -2 2 24 -13 13 -24 21 0 0.11599415D+00 0.13007540D-01 0.37802491D+05 0.37802491D+05 0.37802491D+05 0.11581338D+01  1  2  2  2  7  2        2 0.105621837099D-02 0.100000000000D+01
-.155308027722D-05 0.000000000000D+00 -.117073054367D-06 0.175188915767D-06 0.000000000000D+00  7 -2 2 24 -13 13 -24 21 2 0.11599415D+00 0.13007540D-01 0.37802491D+05 0.37802491D+05 0.37802491D+05 0.11581338D+01  1  2  3  2  7  2        2 -.721720634322D-04 0.100000000000D+01
0.187269974812D-05 0.000000000000D+00 0.000000000000D+00 0.175188915767D-06 0.000000000000D+00  7 -2 2 24 -13 13 -24 21 2 0.11599415D+00 0.13007540D-01 0.37802491D+05 0.37802491D+05 0.37802491D+05 0.11581338D+01  1  2 15  2  7  2        2 0.870248672870D-04 0.100000000000D+01
  </mgrwgt>
  </event>
  <event>
  8     66 0.27011060E-05 0.22952938E+03 0.75467711E-02 0.97355686E-01
       -2 -1    0    0    0  501 0.00000000E+00 0.00000000E+00 0.55002757E+03 0.55002766E+03 0.32000000E+00 0.0000E+00 0.9000E+01
        2 -1    0    0  501    0 0.00000000E+00 0.00000000E+00 -.14517375E+03 0.14517410E+03 0.32000000E+00 0.0000E+00 0.9000E+01
       25  2    1    2    0    0 -.74846039E+02 0.10137746E+03 0.73918074E+02 0.32969654E+03 0.29556151E+03 0.0000E+00 0.0000E+00
       23  2    1    2    0    0 0.74846039E+02 -.10137746E+03 0.33093575E+03 0.36550523E+03 0.90533337E+02 0.0000E+00 0.0000E+00
       24  1    3    3    0    0 0.83468693E+02 0.80053266E+02 0.16325484E+02 0.14180721E+03 0.80419002E+02 0.0000E+00 0.9000E+01
      -11  1    4    4    0    0 0.57826681E+02 -.10683122E+03 0.32452907E+03 0.34651978E+03 0.51099893E-03 0.0000E+00 0.9000E+01
       11  1    4    4    0    0 0.17019358E+02 0.54537590E+01 0.64066734E+01 0.18985455E+02 0.51099893E-03 0.0000E+00 0.9000E+01
      -24  1    3    3    0    0 -.15831473E+03 0.21324197E+02 0.57592590E+02 0.18788932E+03 0.80419002E+02 0.0000E+00 0.9000E+01
#aMCatNLO 1  0  0  2  2 0.25589123D+03 0.00000000D+00  -5  7  0 0.00000000D+00 0.00000000D+00 0.00000000D+00 0.00000000D+00 0.00000000D+00
  <mgrwgt>
 0.1720083988D-02    5    2    0
 0.282576928058780D+03 0.000000000000000D+00 0.000000000000000D+00 0.282576928058780D+03
 0.282576928058780D+03 0.000000000000000D+00 0.000000000000000D+00 -.282576928058780D+03
 0.162743630450357D+03 0.834686933116317D+02 0.800532662491968D+02 -.815029146563227D+02
 0.193777895172371D+03 0.578266811858416D+02 -.106831221900715D+03 0.150973632226510D+03
 0.187647231910902D+02 0.170193581197520D+02 0.545375896997589D+01 -.571951035730132D+01
 0.189867607303741D+03 -.158314732617225D+03 0.213241966815427D+02 -.637512072128865D+02
 0.000000000000000D+00 -.000000000000000D+00 0.000000000000000D+00 -.000000000000000D+00
 0.348315899461657D+03 0.000000000000000D+00 0.000000000000000D+00 0.348315899461657D+03
 0.739597883075733D+03 0.000000000000000D+00 0.000000000000000D+00 -.739597883075733D+03
 0.211223018027992D+03 0.163453538746771D+03 0.691965531234397D+02 -.815029146563227D+02
 0.245166735778386D+03 0.151709166707042D+03 -.119574326013647D+03 0.150973632226510D+03
 0.279024966722653D+02 0.270006502559524D+02 0.409895200926261D+01 -.571951035730132D+01
 0.136094084489036D+03 -.885972975413772D+02 0.118611266666627D+02 -.637512072128865D+02
 0.467527447569710D+03 -.253566058168389D+03 0.344176942142820D+02 -.391281983614076D+03
0.562245182083D-04 0.000000000000D+00 0.000000000000D+00 0.243766366612D-07 0.000000000000D+00  7 -2 2 24 -11 11 -24 21 0 0.84619661D-01 0.22334457D-01 0.52683738D+05 0.52683738D+05 0.52683738D+05 0.11453035D+01  1  2  2  2  7  2        2 0.214906840041D-02 0.100000000000D+01
-.295940204689D-05 0.000000000000D+00 -.215916954176D-06 0.243766366612D-07 0.000000000000D+00  7 -2 2 24 -11 11 -24 21 2 0.84619661D-01 0.22334457D-01 0.52683738D+05 0.52683738D+05 0.52683738D+05 0.11453035D+01  1  2  3  2  7  2        2 -.148378035999D-03 0.100000000000D+01
0.331331342339D-05 0.000000000000D+00 0.000000000000D+00 0.243766366612D-07 0.000000000000D+00  7 -2 2 24 -11 11 -24 21 2 0.84619661D-01 0.22334457D-01 0.52683738D+05 0.52683738D+05 0.52683738D+05 0.11453035D+01  1  2 15  2  7  2        2 0.166122389126D-03 0.100000000000D+01
-.255558466208D-04 0.000000000000D+00 -.199197378749D-04 0.243766366612D-07 0.000000000000D+00  7 -2 2 24 -11 11 -24 21 2 0.84619661D-01 0.69017742D-01 0.52683738D+05 0.52683738D+05 0.52683738D+05 0.11453035D+01  1  2  5  2  7  2        2 -.368473774766D-03 0.100000000000D+01
-.236175612599D-05 0.000000000000D+00 -.257144895936D-05 0.243766366612D-07 0.000000000000D+00  7 -2 21 24 -11 11 -24 -2 2 0.84619661D-01 0.69017742D-01 0.52683738D+05 0.52683738D+05 0.52683738D+05 0.11453035D+01  1  2  5  4  7  2        2 -.782549909133D-04 0.100000000000D+01
  </mgrwgt>
  </event>
  <event>
  8     66 0.27011060E-05 0.32807785E+03 0.75467711E-02 0.93825222E-01
       -2 -1    0    0    0  501 0.00000000E+00 0.00000000E+00 0.22365891E+03 0.22365914E+03 0.32000000E+00 0.0000E+00 0.9000E+01
        2 -1    0    0  501    0 0.00000000E+00 0.00000000E+00 -.22318315E+04 0.22318315E+04 0.32000000E+00 0.0000E+00 0.9000E+01
       25  2    1    2    0    0 -.15442352E+03 0.21478818E+03 -.21162305E+04 0.21534939E+04 0.29853673E+03 0.0000E+00 0.0000E+00
       23  2    1    2    0    0 0.15442352E+03 -.21478818E+03 0.10805788E+03 0.30199671E+03 0.97698110E+02 0.0000E+00 0.0000E+00
       24  1    3    3    0    0 -.12022533E+03 -.52988280E+01 -.51898328E+03 0.53878852E+03 0.80419002E+02 0.0000E+00 0.9000E+01
      -11  1    4    4    0    0 -.69364930E+01 -.22754503E+02 -.86964045E+01 0.25328044E+02 0.51099893E-03 0.0000E+00 0.9000E+01
       11  1    4    4    0    0 0.16136002E+03 -.19203367E+03 0.11675429E+03 0.27666867E+03 0.51099893E-03 0.0000E+00 0.9000E+01
      -24  1    3    3    0    0 -.34198191E+02 0.22008700E+03 -.15972472E+04 0.16147054E+04 0.80419002E+02 0.0000E+00 0.9000E+01
#aMCatNLO 1  0  0  1  2 0.35308534D+03 0.00000000D+00  -5  7  0 0.00000000D+00 0.00000000D+00 0.00000000D+00 0.00000000D+00 0.00000000D+00
  <mgrwgt>
 0.1747025031D-02    3    2    0
 0.706519142925073D+03 0.000000000000000D+00 0.000000000000000D+00 0.706519142925073D+03
 0.706519142925073D+03 0.000000000000000D+00 0.000000000000000D+00 -.706519142925073D+03
 0.198708117056192D+03 -.120225332187773D+03 -.529882798272325D+01 -.136145112846535D+03
 0.316544098616654D+02 -.693649296324764D+01 -.227545030881019D+02 0.208834699768665D+02
 0.646705814810780D+03 0.161360015803373D+03 -.192033673032078D+03 0.596082565280867D+03
 0.535969944121508D+03 -.341981906523525D+02 0.220087004102903D+03 -.480820922411199D+03
 0.000000000000000D+00 0.000000000000000D+00 0.000000000000000D+00 -.000000000000000D+00
 0.759404150102043D+03 0.000000000000000D+00 0.000000000000000D+00 0.759404150102043D+03
 0.172841230000755D+04 0.000000000000000D+00 0.000000000000000D+00 -.172841230000755D+04
 0.228455467629295D+03 -.160071582978499D+03 -.395762720087583D+02 -.136145112846535D+03
 0.376496319783212D+02 -.134012440117255D+02 -.283157576053783D+02 0.208834699768665D+02
 0.667316326287108D+03 0.387867027778642D+02 -.297476463581785D+03 0.596082565280867D+03
 0.523062852077567D+03 -.132985839941375D+03 0.135105655750897D+03 -.480820922411199D+03
 0.103133217213730D+04 0.267671964153735D+03 0.230262837445025D+03 -.969008149905505D+03
0.315147633863D-03 0.000000000000D+00 0.000000000000D+00 0.832575099665D-07 0.000000000000D+00  7 -2 2 24 -11 11 -24 21 0 0.34409082D-01 0.34335871D+00 0.10763507D+06 0.10763507D+06 0.10763507D+06 0.11191093D+01  1  2  2  1  7  1       -2 0.165844166564D-02 0.100000000000D+01
-.498180107293D-05 0.000000000000D+00 -.121024989431D-05 0.832575099665D-07 0.000000000000D+00  7 -2 2 24 -11 11 -24 21 2 0.34409082D-01 0.34335871D+00 0.10763507D+06 0.10763507D+06 0.10763507D+06 0.11191093D+01  1  2  3  1  7  1       -2 -.328335248378D-04 0.100000000000D+01
0.184224750875D-04 0.000000000000D+00 0.000000000000D+00 0.832575099665D-07 0.000000000000D+00  7 -2 2 24 -11 11 -24 21 2 0.34409082D-01 0.34335871D+00 0.10763507D+06 0.10763507D+06 0.10763507D+06 0.11191093D+01  1  2 15  1  7  1       -2 0.121416890097D-03 0.100000000000D+01
  </mgrwgt>
  </event>
  <event>
  7     66 0.27011060E-05 0.33298511E+03 0.75467711E-02 0.88785799E-01
       -2 -1    0    0    0  501 0.00000000E+00 0.00000000E+00 0.23710138E+03 0.23710159E+03 0.32000000E+00 0.0000E+00 0.9000E+01
        2 -1    0    0  501    0 0.00000000E+00 0.00000000E+00 -.40448347E+04 0.40448347E+04 0.32000000E+00 0.0000E+00 0.9000E+01
       23  2    1    2    0    0 -.24899789E+03 0.41896222E+03 -.30456690E+04 0.30858425E+04 0.93782044E+02 0.0000E+00 0.0000E+00
       24  1    1    2    0    0 0.21889055E+03 -.63877225E+03 -.62259744E+03 0.92197497E+03 0.80419002E+02 0.0000E+00 0.9000E+01
      -13  1    3    3    0    0 -.14101671E+03 0.31802246E+03 -.22060794E+04 0.22333406E+04 0.10565837E+00 0.0000E+00 0.9000E+01
       13  1    3    3    0    0 -.10798118E+03 0.10093976E+03 -.83958967E+03 0.85250196E+03 0.10565837E+00 0.0000E+00 0.9000E+01
      -24  1    1    2    0    0 0.30107343E+02 0.21981003E+03 -.13946689E+03 0.27411883E+03 0.80419002E+02 0.0000E+00 0.9000E+01
#aMCatNLO 1  0  0  2  1 0.30369102D+03 0.00000000D+00  -5  7  0 0.00000000D+00 0.00000000D+00 0.00000000D+00 0.00000000D+00 0.00000000D+00
  <mgrwgt>
 0.2639735262D-01    9    2    0
 0.979304027174277D+03 0.000000000000000D+00 0.000000000000000D+00 0.979304027174277D+03
 0.979304027174277D+03 0.000000000000000D+00 0.000000000000000D+00 -.979304027174277D+03
 0.805241817748691D+03 0.218890549327100D+03 -.638772253749915D+03 0.431281931399149D+03
 0.593718137057927D+03 -.141016749325074D+03 0.318022732428000D+03 -.481120613090266D+03
 0.231503512441805D+03 -.107981142724650D+03 0.100939489488439D+03 -.178171738922269D+03
 0.328144587100130D+03 0.301073427226246D+02 0.219810031833476D+03 0.228010420613386D+03
 0.000000000000000D+00 0.000000000000000D+00 0.000000000000000D+00 -.000000000000000D+00
 0.107743047679322D+04 0.000000000000000D+00 0.000000000000000D+00 0.107743047679322D+04
 0.125779564055697D+04 0.000000000000000D+00 0.000000000000000D+00 -.125779564055697D+04
 0.857386345498419D+03 0.124993639252534D+03 -.725959100285816D+03 0.431281931399149D+03
 0.583282829674211D+03 -.207487867987641D+03 0.256301774653132D+03 -.481120613090266D+03
 0.235889597641273D+03 -.134377164274791D+03 0.764297811474203D+02 -.178171738922269D+03
 0.305453775914752D+03 -.567511894289346D+01 0.186584657415609D+03 0.228010420613386D+03
 0.353213568621532D+03 0.222546511952792D+03 0.206642887069655D+03 -.180365163763742D+03
0.686442246924D-01 0.000000000000D+00 0.000000000000D+00 0.593410773588D-10 0.000000000000D+00  7 -2 2 24 -13 13 -24 21 0 0.36477153D-01 0.62228228D+00 0.49821962D+06 0.49821962D+06 0.49821962D+06 0.10686199D+01  1  2  2  2  7  2        2 0.182245260219D-01 0.100000000000D+01
-.331641843033D-02 0.000000000000D+00 -.263611897258D-03 0.593410773588D-10 0.000000000000D+00  7 -2 2 24 -13 13 -24 21 2 0.36477153D-01 0.62228228D+00 0.49821962D+06 0.49821962D+06 0.49821962D+06 0.10686199D+01  1  2  3  2  7  2        2 -.100546758318D-02 0.100000000000D+01
0.417829574614D-02 0.000000000000D+00 0.000000000000D+00 0.593410773588D-10 0.000000000000D+00  7 -2 2 24 -13 13 -24 21 2 0.36477153D-01 0.62228228D+00 0.49821962D+06 0.49821962D+06 0.49821962D+06 0.10686199D+01  1  2 15  2  7  2        2 0.126677046757D-02 0.100000000000D+01
0.254299818899D-01 0.000000000000D+00 0.000000000000D+00 0.593410773588D-10 0.000000000000D+00  7 -2 2 24 -13 13 -24 21 2 0.36477153D-01 0.82362610D+00 0.75023119D+06 0.75023119D+06 0.75023119D+06 0.10562742D+01  1  2 12  2  7  2        2 0.220338092777D-03 0.100000000000D+01
-.338758767286D-01 0.000000000000D+00 0.000000000000D+00 0.593410773588D-10 0.000000000000D+00  7 -2 2 24 -13 13 -24 21 2 0.36477153D-01 0.62228228D+00 0.49821962D+06 0.49821962D+06 0.49821962D+06 0.10686199D+01  1  2  4  2  7  2        2 -.102704458493D-01 0.100000000000D+01
-.527419203257D-01 0.000000000000D+00 -.168354357851D-01 0.593410773588D-10 0.000000000000D+00  7 -2 2 24 -13 13 -24 21 2 0.36477153D-01 0.80675062D+00 0.49821962D+06 0.49821962D+06 0.49821962D+06 0.10686199D+01  1  2  5  2  7  2        2 -.742328474445D-03 0.100000000000D+01
0.616930874886D-01 0.000000000000D+00 0.190481968631D-01 0.593410773588D-10 0.000000000000D+00  7 -2 2 24 -13 13 -24 21 2 0.36477153D-01 0.62228228D+00 0.49821962D+06 0.49821962D+06 0.49821962D+06 0.10686199D+01  1  2  6  2  7  2        2 0.187040329436D-01 0.100000000000D+01
0.935854284433D-03 0.000000000000D+00 0.000000000000D+00 0.593410773588D-10 0.000000000000D+00  7 -2 21 24 -13 13 -24 -2 2 0.36477153D-01 0.82362610D+00 0.75023119D+06 0.75023119D+06 0.75023119D+06 0.10562742D+01  1  2 12  4  7  2        2 0.359083290733D-07 0.100000000000D+01
-.153517980603D-02 0.000000000000D+00 -.585815325005D-03 0.593410773588D-10 0.000000000000D+00  7 -2 21 24 -13 13 -24 -2 2 0.36477153D-01 0.80675062D+00 0.49821962D+06 0.49821962D+06 0.49821962D+06 0.10686199D+01  1  2  5  4  7  2        2 -.108907712057D-06 0.100000000000D+01
  </mgrwgt>
  </event>
  <event>
  8     66 0.27011060E-05 0.21227971E+03 0.75467711E-02 0.95968466E-01
       -2 -1    0    0    0  501 0.00000000E+00 0.00000000E+00 0.97150883E+02 0.97151410E+02 0.32000000E+00 0.0000E+00 0.9000E+01
        2 -1    0    0  501    0 0.00000000E+00 0.00000000E+00 -.19446120E+04 0.19446120E+04 0.32000000E+00 0.0000E+00 0.9000E+01
       25  2    1    2    0    0 -.15359875E+03 0.33376998E+03 -.12258456E+04 0.13142758E+04 0.29938018E+03 0.0000E+00 0.0000E+00
       23  2    1    2    0    0 0.15359875E+03 -.33376998E+03 -.62161549E+03 0.72748760E+03 0.88529202E+02 0.0000E+00 0.0000E+00
       24  1    3    3    0    0 0.62548660E+02 0.79161142E+02 -.38126097E+03 0.40249964E+03 0.80419002E+02 0.0000E+00 0.9000E+01
      -13  1    4    4    0    0 0.94694413E+02 -.22220080E+03 -.48316825E+03 0.54017756E+03 0.10565837E+00 0.0000E+00 0.9000E+01
       13  1    4    4    0    0 0.58904333E+02 -.11156918E+03 -.13844724E+03 0.18731004E+03 0.10565837E+00 0.0000E+00 0.9000E+01
      -24  1    3    3    0    0 -.21614741E+03 0.25460884E+03 -.84458468E+03 0.91177621E+03 0.80419002E+02 0.0000E+00 0.9000E+01
#aMCatNLO 1  0  0  2  1 0.48790715D+02 0.00000000D+00  -5  7  0 0.00000000D+00 0.00000000D+00 0.00000000D+00 0.00000000D+00 0.00000000D+00
  <mgrwgt>
 0.1148578911D-02    6    2    0
 0.434650825475806D+03 0.000000000000000D+00 0.000000000000000D+00 0.434650825475806D+03
 0.434650825475806D+03 0.000000000000000D+00 0.000000000000000D+00 -.434650825475806D+03
 0.135101827720380D+03 0.625486599709903D+02 0.791611423164638D+02 -.400807507664543D+02
 0.241895730989029D+03 0.946944636599174D+02 -.222200959649074D+03 0.131619433940415D+02
 0.145710967123832D+03 0.589042822905994D+02 -.111569021829289D+03 0.728994158827584D+02
 0.346593125118371D+03 -.216147405921507D+03 0.254608839161899D+03 -.459806085103456D+02
 0.000000000000000D+00 0.000000000000000D+00 -.000000000000000D+00 0.000000000000000D+00
 0.464948023234176D+03 0.000000000000000D+00 0.000000000000000D+00 0.464948023234176D+03
 0.455431847486610D+03 0.000000000000000D+00 0.000000000000000D+00 -.455431847486610D+03
 0.131989701997149D+03 0.550654677494062D+02 0.794694479561928D+02 -.400807507664543D+02
 0.236452709128476D+03 0.812924163165220D+02 -.221648798665161D+03 0.131619433940415D+02
 0.142379241863692D+03 0.508327630878379D+02 -.111236477265725D+03 0.728994158827584D+02
 0.359848143341201D+03 -.235940005899251D+03 0.255424289309022D+03 -.459806085103456D+02
 0.497100743902682D+02 0.487493587454846D+02 -.200846133432889D+01 0.951617574756548D+01
0.294499984710D-04 0.000000000000D+00 0.000000000000D+00 0.308511559616D-06 0.000000000000D+00  7 -2 2 24 -13 13 -24 21 0 0.14946332D-01 0.29917112D+00 0.17650523D+06 0.17650523D+06 0.17650523D+06 0.11020181D+01  1  2  2  2  7  2        2 0.894435545045D-03 0.100000000000D+01
-.163381276563D-05 0.000000000000D+00 -.113095748491D-06 0.308511559616D-06 0.000000000000D+00  7 -2 2 24 -13 13 -24 21 2 0.14946332D-01 0.29917112D+00 0.17650523D+06 0.17650523D+06 0.17650523D+06 0.11020181D+01  1  2  3  2  7  2        2 -.602619995003D-04 0.100000000000D+01
0.193851225443D-05 0.000000000000D+00 0.000000000000D+00 0.308511559616D-06 0.000000000000D+00  7 -2 2 24 -13 13 -24 21 2 0.14946332D-01 0.29917112D+00 0.17650523D+06 0.17650523D+06 0.17650523D+06 0.11020181D+01  1  2 15  2  7  2        2 0.715006192663D-04 0.100000000000D+01
0.421516897100D-04 0.000000000000D+00 0.000000000000D+00 0.308511559616D-06 0.000000000000D+00  7 -2 2 24 -13 13 -24 21 2 0.14946332D-01 0.32331939D+00 0.19795075D+06 0.19795075D+06 0.19795075D+06 0.10981691D+01  1  2 12  2  7  2        2 0.126324653293D-02 0.100000000000D+01
-.277443764334D-04 0.000000000000D+00 0.000000000000D+00 0.308511559616D-06 0.000000000000D+00  7 -2 2 24 -13 13 -24 21 2 0.14946332D-01 0.29917112D+00 0.17650523D+06 0.17650523D+06 0.17650523D+06 0.11020181D+01  1  2  4  2  7  2        2 -.102333121270D-02 0.100000000000D+01
0.548114930439D-06 0.000000000000D+00 0.000000000000D+00 0.308511559616D-06 0.000000000000D+00  7 -2 21 24 -13 13 -24 -2 2 0.14946332D-01 0.32331939D+00 0.19795075D+06 0.19795075D+06 0.19795075D+06 0.10981691D+01  1  2 12  4  7  2        2 0.298942577019D-05 0.100000000000D+01
  </mgrwgt>
  </event>
  <event>
  8     66 0.27011060E-05 0.56252690E+03 0.75467711E-02 0.88120792E-01
       -2 -1    0    0    0  501 0.00000000E+00 0.00000000E+00 0.15170629E+03 0.15170662E+03 0.32000000E+00 0.0000E+00 0.9000E+01
        2 -1    0    0  501    0 0.00000000E+00 0.00000000E+00 -.30949150E+04 0.30949150E+04 0.32000000E+00 0.0000E+00 0.9000E+01
       25  2    1    2    0    0 0.18079816E+03 -.49850763E+03 -.24224368E+04 0.24978879E+04 0.30007690E+03 0.0000E+00 0.0000E+00
       23  2    1    2    0    0 -.18079816E+03 0.49850763E+03 -.52077190E+03 0.74873371E+03 0.90559209E+02 0.0000E+00 0.0000E+00
       24  1    3    3    0    0 -.17911339E+02 -.57300962E+02 -.22498455E+03 0.24635235E+03 0.80419002E+02 0.0000E+00 0.9000E+01
      -13  1    4    4    0    0 -.15175258E+03 0.46825876E+03 -.50106863E+03 0.70239938E+03 0.10565837E+00 0.0000E+00 0.9000E+01
       13  1    4    4    0    0 -.29045586E+02 0.30248868E+02 -.19703269E+02 0.46334329E+02 0.10565837E+00 0.0000E+00 0.9000E+01
      -24  1    3    3    0    0 0.19870950E+03 -.44120667E+03 -.21974523E+04 0.22515356E+04 0.80419002E+02 0.0000E+00 0.9000E+01
#aMCatNLO 1  0  0  1  1 0.61546688D+03 0.00000000D+00  -5  7  0 0.00000000D+00 0.00000000D+00 0.00000000D+00 0.00000000D+00 0.00000000D+00
  <mgrwgt>
 0.1521018394D-02    3    2    0
 0.685214300215264D+03 0.000000000000000D+00 0.000000000000000D+00 0.685214300215264D+03
 0.685214300215264D+03 0.000000000000000D+00 0.000000000000000D+00 -.685214300215264D+03
 0.100433091323990D+03 -.179113394664945D+02 -.573009620851533D+02 -.392091075571143D+01
 0.587901080807064D+03 -.151752742490088D+03 0.468259356817332D+03 0.321452890349223D+03
 0.674520592429812D+02 -.290454184685601D+02 0.302482721594813D+02 0.528316760426055D+02
 0.614642369056492D+03 0.198709500425143D+03 -.441206666891660D+03 -.370363655636117D+03
 0.000000000000000D+00 0.000000000000000D+00 -.000000000000000D+00 -.000000000000000D+00
 0.906844394205898D+03 0.000000000000000D+00 0.000000000000000D+00 0.906844394205898D+03
 0.135936648108200D+04 0.000000000000000D+00 0.000000000000000D+00 -.135936648108200D+04
 0.863371211751515D+02 -.254448853523506D+02 -.180018556458428D+02 -.392091075571143D+01
 0.863836480235590D+03 -.210309893461825D+03 0.773725566712138D+03 0.321452890349223D+03
 0.897398224561560D+02 -.353858955597341D+02 0.633236775339775D+02 0.528316760426055D+02
 0.462376172235980D+03 0.155266980913196D+03 -.214586662957369D+03 -.370363655636117D+03
 0.763921279185018D+03 0.115873693460714D+03 -.604460725642904D+03 -.452522086876101D+03
0.498283279058D-03 0.000000000000D+00 0.000000000000D+00 0.120467272041D-04 0.000000000000D+00  7 -2 2 24 -13 13 -24 21 0 0.23339456D-01 0.47614080D+00 0.31643652D+06 0.31643652D+06 0.31643652D+06 0.10828421D+01  1  2  2  1  7  1       -2 0.150047299719D-02 0.100000000000D+01
-.263722959917D-04 0.000000000000D+00 -.191353899258D-05 0.120467272041D-04 0.000000000000D+00  7 -2 2 24 -13 13 -24 21 2 0.23339456D-01 0.47614080D+00 0.31643652D+06 0.31643652D+06 0.31643652D+06 0.10828421D+01  1  2  3  1  7  1       -2 -.931172434205D-04 0.100000000000D+01
0.321910818288D-04 0.000000000000D+00 0.000000000000D+00 0.120467272041D-04 0.000000000000D+00  7 -2 2 24 -13 13 -24 21 2 0.23339456D-01 0.47614080D+00 0.31643652D+06 0.31643652D+06 0.31643652D+06 0.10828421D+01  1  2 15  1  7  1       -2 0.113662640658D-03 0.100000000000D+01
  </mgrwgt>
  </event>
  <event>
  8     66 0.27011060E-05 0.33995116E+03 0.75467711E-02 0.90284209E-01
       -2 -1    0    0    0  501 0.00000000E+00 0.00000000E+00 0.18379173E+04 0.18379173E+04 0.32000000E+00 0.0000E+00 0.9000E+01
        2 -1    0    0  501    0 0.00000000E+00 0.00000000E+00 -.75270470E+02 0.75271150E+02 0.32000000E+00 0.0000E+00 0.9000E+01
       25  2    1    2    0    0 -.26838720E+03 -.51694081E+02 0.67165011E+03 0.78477047E+03 0.30007810E+03 0.0000E+00 0.0000E+00
       23  2    1    2    0    0 0.26838720E+03 0.51694081E+02 0.10909967E+04 0.11284180E+04 0.91374909E+02 0.0000E+00 0.0000E+00
       24  1    3    3    0    0 -.24282628E+03 0.51154218E+02 0.34857557E+03 0.43537742E+03 0.80419002E+02 0.0000E+00 0.9000E+01
      -13  1    4    4    0    0 0.18280327E+02 -.18730958E+02 0.14714751E+03 0.14945708E+03 0.10565837E+00 0.0000E+00 0.9000E+01
       13  1    4    4    0    0 0.25010687E+03 0.70425039E+02 0.94384920E+03 0.97896090E+03 0.10565837E+00 0.0000E+00 0.9000E+01
      -24  1    3    3    0    0 -.25560918E+02 -.10284830E+03 0.32307453E+03 0.34939305E+03 0.80419002E+02 0.0000E+00 0.9000E+01
#aMCatNLO 1  0  0  2  1 0.59192610D+03 0.00000000D+00  -5  7  0 0.00000000D+00 0.00000000D+00 0.00000000D+00 0.00000000D+00 0.00000000D+00
  <mgrwgt>
 0.7419758782D-03    5    2    0
 0.371942972440268D+03 0.000000000000000D+00 0.000000000000000D+00 0.371942972440268D+03
 0.371942972440268D+03 0.000000000000000D+00 0.000000000000000D+00 -.371942972440268D+03
 0.293786221481564D+03 -.242826278161073D+03 0.511542179935826D+02 -.135136126161549D+03
 0.357181564415741D+02 0.182800174886825D+02 -.187310766334635D+02 0.243058517305925D+02
 0.281312169273109D+03 0.250107178959454D+03 0.704251579577313D+02 0.107811097484048D+03
 0.133069397684289D+03 -.255609182870634D+02 -.102848299317850D+03 0.301917694690889D+01
 0.000000000000000D+00 -.000000000000000D+00 -.000000000000000D+00 -.000000000000000D+00
 0.548590912125725D+03 0.000000000000000D+00 0.000000000000000D+00 0.548590912125725D+03
 0.167092319489492D+04 0.000000000000000D+00 0.000000000000000D+00 -.167092319489492D+04
 0.371311852021837D+03 -.190185658015443D+03 0.277439936542666D+03 -.135136126161549D+03
 0.344249320458208D+02 0.238316433676400D+02 0.513364319050840D+01 0.243058517305925D+02
 0.459178890810958D+03 0.308714939480837D+03 0.322361764430910D+03 0.107811097484048D+03
 0.857382101226433D+02 -.824291869210612D+01 -.284035839756635D+02 0.301917694690889D+01
 0.126886022201939D+04 -.134118006140928D+03 -.576531760188421D+03 -.112233228276919D+04
0.288689685026D-03 0.000000000000D+00 0.000000000000D+00 0.241710859855D-05 0.000000000000D+00  7 -2 2 24 -13 13 -24 21 0 0.28275656D+00 0.11580127D-01 0.11556679D+06 0.11556679D+06 0.11556679D+06 0.11166020D+01  1  2  2  2  7  2        2 0.744780134050D-03 0.100000000000D+01
-.158805792624D-04 0.000000000000D+00 -.110864440424D-05 0.241710859855D-05 0.000000000000D+00  7 -2 2 24 -13 13 -24 21 2 0.28275656D+00 0.11580127D-01 0.11556679D+06 0.11556679D+06 0.11556679D+06 0.11166020D+01  1  2  3  2  7  2        2 -.510810713071D-04 0.100000000000D+01
0.179238806365D-04 0.000000000000D+00 0.000000000000D+00 0.241710859855D-05 0.000000000000D+00  7 -2 2 24 -13 13 -24 21 2 0.28275656D+00 0.11580127D-01 0.11556679D+06 0.11556679D+06 0.11556679D+06 0.11166020D+01  1  2 15  2  7  2        2 0.576535030469D-04 0.100000000000D+01
0.101683340120D-05 0.000000000000D+00 -.166958683720D-03 0.241710859855D-05 0.000000000000D+00  7 -2 2 24 -13 13 -24 21 2 0.28275656D+00 0.78796522D-01 0.11556679D+06 0.11556679D+06 0.11556679D+06 0.11166020D+01  1  2  5  2  7  2        2 0.359930041591D-06 0.100000000000D+01
-.145547965001D-04 0.000000000000D+00 -.391712478647D-04 0.241710859855D-05 0.000000000000D+00  7 -2 21 24 -13 13 -24 -2 2 0.28275656D+00 0.78796522D-01 0.11556679D+06 0.11556679D+06 0.11556679D+06 0.11166020D+01  1  2  5  4  7  2        2 -.973661758565D-05 0.100000000000D+01
  </mgrwgt>
  </event>
  <event>
  8     66 0.27011060E-05 0.25201723E+03 0.75467711E-02 0.10007009E+00
       -2 -1    0    0    0  501 0.00000000E+00 0.00000000E+00 0.19739335E+03 0.19739361E+03 0.32000000E+00 0.0000E+00 0.9000E+01
        2 -1    0    0  501    0 0.00000000E+00 0.00000000E+00 -.38131514E+03 0.38131527E+03 0.32000000E+00 0.0000E+00 0.9000E+01
       25  2    1    2    0    0 -.21607331E+02 -.15565989E+03 -.20490726E+03 0.39619411E+03 0.30047613E+03 0.0000E+00 0.0000E+00
       23  2    1    2    0    0 0.21607331E+02 0.15565989E+03 0.20985481E+02 0.18251478E+03 0.90412257E+02 0.0000E+00 0.0000E+00
       24  1    3    3    0    0 0.91486689E+02 0.10083924E+01 -.35344364E+02 0.12683561E+03 0.80419002E+02 0.0000E+00 0.9000E+01
      -13  1    4    4    0    0 0.40396372E+02 0.44115373E+02 -.18648410E+02 0.62656264E+02 0.10565837E+00 0.0000E+00 0.9000E+01
       13  1    4    4    0    0 -.18789041E+02 0.11154452E+03 0.39633891E+02 0.11985852E+03 0.10565837E+00 0.0000E+00 0.9000E+01
      -24  1    3    3    0    0 -.11309402E+03 -.15666828E+03 -.16956290E+03 0.26935850E+03 0.80419002E+02 0.0000E+00 0.9000E+01
#aMCatNLO 1  0  0  2  2 0.12005642D+03 0.00000000D+00  -5  7  0 0.00000000D+00 0.00000000D+00 0.00000000D+00 0.00000000D+00 0.00000000D+00
  <mgrwgt>
 0.7079267873D-03    4    2    0
 0.274352306598064D+03 0.000000000000000D+00 0.000000000000000D+00 0.274352306598064D+03
 0.274352306598064D+03 0.000000000000000D+00 0.000000000000000D+00 -.274352306598064D+03
 0.121924059900341D+03 0.914866887223041D+02 0.100839201095901D+01 0.523730468769570D+01
 0.598315140632181D+02 0.403964517161278D+02 0.441152817574947D+02 0.133367136149759D+01
 0.139697721001874D+03 -.187891205076429D+02 0.111544609886134D+03 0.819769614526955D+02
 0.227251318230696D+03 -.113094019930789D+03 -.156668283654588D+03 -.885479375018888D+02
 0.000000000000000D+00 0.000000000000000D+00 0.000000000000000D+00 0.000000000000000D+00
 0.498629816573549D+03 0.000000000000000D+00 0.000000000000000D+00 0.498629816573549D+03
 0.297388058416026D+03 0.000000000000000D+00 0.000000000000000D+00 -.297388058416026D+03
 0.116424972746805D+03 0.809529777958754D+02 -.225109828819731D+02 0.523730468769570D+01
 0.488248664941513D+02 0.355944397658726D+02 0.333934838946894D+02 0.133367136149759D+01
 0.122408941335792D+03 -.303727874614895D+02 0.856809225659477D+02 0.819769614526955D+02
 0.274026448307724D+03 -.135247728833726D+03 -.206132464758115D+03 -.885479375018888D+02
 0.234332646105104D+03 0.490730987334677D+02 0.109569041179451D+03 0.201241758157523D+03
0.771607254608D-05 0.000000000000D+00 0.000000000000D+00 0.320586478851D-06 0.000000000000D+00  7 -2 2 24 -13 13 -24 21 0 0.30368239D-01 0.58663898D-01 0.63512686D+05 0.63512686D+05 0.63512686D+05 0.11382678D+01  1  2  2  2  7  2        2 0.759376222084D-03 0.100000000000D+01
-.424912493527D-06 0.000000000000D+00 -.296317502655D-07 0.320586478851D-06 0.000000000000D+00  7 -2 2 24 -13 13 -24 21 2 0.30368239D-01 0.58663898D-01 0.63512686D+05 0.63512686D+05 0.63512686D+05 0.11382678D+01  1  2  3  2  7  2        2 -.541812612333D-04 0.100000000000D+01
0.506253598632D-06 0.000000000000D+00 0.000000000000D+00 0.320586478851D-06 0.000000000000D+00  7 -2 2 24 -13 13 -24 21 2 0.30368239D-01 0.58663898D-01 0.63512686D+05 0.63512686D+05 0.63512686D+05 0.11382678D+01  1  2 15  2  7  2        2 0.645531936472D-04 0.100000000000D+01
-.484829453793D-06 0.000000000000D+00 0.000000000000D+00 0.320586478851D-06 0.000000000000D+00  7 -2 2 24 -13 13 -24 21 2 0.30368239D-01 0.58663898D-01 0.63512686D+05 0.63512686D+05 0.63512686D+05 0.11382678D+01  1  2  4  2  7  2        2 -.618213671985D-04 0.100000000000D+01
  </mgrwgt>
  </event>
  <event>
  8     66 0.27011060E-05 0.23252614E+03 0.75467711E-02 0.94284244E-01
       -2 -1    0    0    0  501 0.00000000E+00 0.00000000E+00 0.18126626E+03 0.18126654E+03 0.32000000E+00 0.0000E+00 0.9000E+01
        2 -1    0    0  501    0 0.00000000E+00 0.00000000E+00 -.38811304E+03 0.38811317E+03 0.32000000E+00 0.0000E+00 0.9000E+01
       25  2    1    2    0    0 -.15552931E+03 0.46341303E+02 -.16451385E+03 0.37816766E+03 0.29934776E+03 0.0000E+00 0.0000E+00
       23  2    1    2    0    0 0.15552931E+03 -.46341303E+02 -.42332934E+02 0.19121206E+03 0.91831853E+02 0.0000E+00 0.0000E+00
       24  1    3    3    0    0 0.16998226E+02 -.64452946E+01 -.16067867E+03 0.18059716E+03 0.80419002E+02 0.0000E+00 0.9000E+01
      -13  1    4    4    0    0 0.20799675E+02 0.25078663E+02 -.16600529E+02 0.36567124E+02 0.10565837E+00 0.0000E+00 0.9000E+01
       13  1    4    4    0    0 0.13472964E+03 -.71419966E+02 -.25732405E+02 0.15464493E+03 0.10565837E+00 0.0000E+00 0.9000E+01
      -24  1    3    3    0    0 -.17252754E+03 0.52786598E+02 -.38351804E+01 0.19757050E+03 0.80419002E+02 0.0000E+00 0.9000E+01
#aMCatNLO 1  0  0  1  1 0.41414269D+03 0.00000000D+00  -5  7  0 0.00000000D+00 0.00000000D+00 0.00000000D+00 0.00000000D+00 0.00000000D+00
  <mgrwgt>
 0.6495423982D-03    5    2    0
 0.265239355691462D+03 0.000000000000000D+00 0.000000000000000D+00 0.265239355691462D+03
 0.265239355691462D+03 0.000000000000000D+00 0.000000000000000D+00 -.265239355691462D+03
 0.131188092456758D+03 0.169982247790470D+02 -.644529418723789D+01 -.102042237261211D+03
 0.327755369051974D+02 0.207995255414904D+02 0.250787866681385D+02 -.355949658334469D+01
 0.155951797703592D+03 0.134729792814793D+03 -.714200909413613D+02 0.326805254699632D+02
 0.210563284317377D+03 -.172527543135330D+03 0.527865984604606D+02 0.729212083745929D+02
 0.000000000000000D+00 -.000000000000000D+00 0.000000000000000D+00 0.000000000000000D+00
 0.769257083235598D+03 0.000000000000000D+00 0.000000000000000D+00 0.769257083235598D+03
 0.435578965259552D+03 0.000000000000000D+00 0.000000000000000D+00 -.435578965259552D+03
 0.180620098785494D+03 0.116308083300769D+03 -.470767002299346D+02 -.102042237261211D+03
 0.491958022278985D+02 0.469071209183522D+02 0.143971854218365D+02 -.355949658334469D+01
 0.316312971654891D+03 0.285144530936110D+03 -.132960429336630D+03 0.326805254699632D+02
 0.126865798512650D+03 -.650575169520549D+02 0.881656027621773D+01 0.729212083745929D+02
 0.531841377314216D+03 -.383302218203177D+03 0.156823383868511D+03 0.333678117976046D+03
0.548580556086D-05 0.000000000000D+00 0.000000000000D+00 0.222570380812D-06 0.000000000000D+00  7 -2 2 24 -13 13 -24 21 0 0.27887148D-01 0.59709731D-01 0.54068404D+05 0.54068404D+05 0.54068404D+05 0.11443190D+01  1  2  2  1  7  1       -2 0.613859721070D-03 0.100000000000D+01
-.298346616885D-06 0.000000000000D+00 -.210669377995D-07 0.222570380812D-06 0.000000000000D+00  7 -2 2 24 -13 13 -24 21 2 0.27887148D-01 0.59709731D-01 0.54068404D+05 0.54068404D+05 0.54068404D+05 0.11443190D+01  1  2  3  1  7  1       -2 -.437163691187D-04 0.100000000000D+01
0.352374848546D-06 0.000000000000D+00 0.000000000000D+00 0.222570380812D-06 0.000000000000D+00  7 -2 2 24 -13 13 -24 21 2 0.27887148D-01 0.59709731D-01 0.54068404D+05 0.54068404D+05 0.54068404D+05 0.11443190D+01  1  2 15  1  7  1       -2 0.516330605925D-04 0.100000000000D+01
0.146466193692D-05 0.000000000000D+00 -.201907813877D-05 0.222570380812D-06 0.000000000000D+00  7 -2 2 24 -13 13 -24 21 2 0.12097587D+00 0.59709731D-01 0.54068404D+05 0.54068404D+05 0.54068404D+05 0.11443190D+01  1  2  5  1  7  1       -2 0.105099603088D-04 0.100000000000D+01
0.254510009446D-06 0.000000000000D+00 -.356959517670D-06 0.222570380812D-06 0.000000000000D+00  7 21 2 24 -13 13 -24 2 2 0.12097587D+00 0.59709731D-01 0.54068404D+05 0.54068404D+05 0.54068404D+05 0.11443190D+01  1  2  5  3  7  1       -2 0.172560253029D-04 0.100000000000D+01
  </mgrwgt>
  </event>
  <event>
  9     66 0.27011060E-05 0.15943383E+03 0.75467711E-02 0.10714791E+00
       -2 -1    0    0    0  501 0.00000000E+00 0.00000000E+00 0.29739282E+02 0.29741003E+02 0.32000000E+00 0.0000E+00 0.9000E+01
        2 -1    0    0  502    0 0.00000000E+00 0.00000000E+00 -.35383781E+04 0.35383782E+04 0.32000000E+00 0.0000E+00 0.9000E+01
       25  2    1    2    0    0 0.43329906E+02 -.98852652E+02 -.94847311E+03 0.10005439E+04 0.29972913E+03 0.0000E+00 0.0000E+00
       23  2    1    2    0    0 -.21789375E+01 0.60560175E+02 -.93863291E+03 0.94506822E+03 0.91923524E+02 0.0000E+00 0.0000E+00
       24  1    3    3    0    0 -.27328217E+02 -.10579042E+03 -.18414731E+03 0.22872667E+03 0.80419002E+02 0.0000E+00 0.9000E+01
      -11  1    4    4    0    0 -.20539976E+02 0.62032700E+01 -.47859972E+02 0.52449481E+02 0.51099893E-03 0.0000E+00 0.9000E+01
       11  1    4    4    0    0 0.18361038E+02 0.54356905E+02 -.89077293E+03 0.89261874E+03 0.51099893E-03 0.0000E+00 0.9000E+01
      -24  1    3    3    0    0 0.70658122E+02 0.69377633E+01 -.76432580E+03 0.77181724E+03 0.80419002E+02 0.0000E+00 0.9000E+01
       21  1    1    2  502  501 -.41150968E+02 0.38292477E+02 -.16215329E+04 0.16225070E+04 0.75000000E+00 0.0000E+00 0.9000E+01
#aMCatNLO 2  0  0  2  1 0.56211351D+02 0.00000000D+00  -5  7  0 0.00000000D+00 0.00000000D+00 0.00000000D+00 0.00000000D+00 0.00000000D+00
  <mgrwgt>
 0.7143784041D-04    2    2    0
 0.235094528272275D+03 0.000000000000000D+00 0.000000000000000D+00 0.235094528272275D+03
 0.235094528272275D+03 0.000000000000000D+00 0.000000000000000D+00 -.235094528272275D+03
 0.201156320916851D+03 -.450784218586097D+02 -.892732019704226D+02 0.154902810765712D+03
 0.272492192513149D+02 -.228082612045254D+02 0.831399225722317D+01 0.123766192225183D+02
 0.121297553795143D+03 0.794222231632500D+01 0.640519934523014D+02 -.102700339805427D+03
 0.120485962581240D+03 0.599444607468101D+02 0.169072162608981D+02 -.645790901828041D+02
 0.000000000000000D+00 -.000000000000000D+00 0.000000000000000D+00 -.000000000000000D+00
 0.240710326211319D+03 0.000000000000000D+00 0.000000000000000D+00 0.240710326211319D+03
 0.437169981296777D+03 0.000000000000000D+00 0.000000000000000D+00 -.437169981296777D+03
 0.205913914300118D+03 -.273282167762827D+02 -.105790415126968D+03 0.154902810765712D+03
 0.247699792414614D+02 -.205399758778595D+02 0.620327003927502D+01 0.123766192225183D+02
 0.117639962015888D+03 0.183610383843851D+02 0.543569051399792D+02 -.102700339805427D+03
 0.125213328672921D+03 0.706581224961621D+02 0.693776328948633D+01 -.645790901828041D+02
 0.204343123277708D+03 -.411509682264049D+02 0.382924766582275D+02 -.196459655085458D+03
-.161005263273D-04 0.000000000000D+00 0.000000000000D+00 0.705274443489D-06 0.000000000000D+00  7 -2 2 24 -11 11 -24 21 2 0.44686503D-02 0.54504124D+00 0.35718025D+05 0.35718025D+05 0.35718025D+05 0.11603708D+01  1  2 13  2  7  2        2 -.483332735216D-03 0.100000000000D+01
0.189984253879D-04 0.000000000000D+00 0.000000000000D+00 0.705274443489D-06 0.193072693518D-08  7 -2 2 24 -11 11 -24 21 2 0.45753947D-02 0.54436447D+00 0.35718025D+05 0.35718025D+05 0.35718025D+05 0.11603708D+01  1  2  1  2  7  2        2 0.554770575624D-03 0.100000000000D+01
  </mgrwgt>
  </event>
  <event>
  8     66 0.27011060E-05 0.20831242E+03 0.75467711E-02 0.97266613E-01
       -2 -1    0    0    0  501 0.00000000E+00 0.00000000E+00 0.10505782E+04 0.10505783E+04 0.32000000E+00 0.0000E+00 0.9000E+01
        2 -1    0    0  501    0 0.00000000E+00 0.00000000E+00 -.12658923E+03 0.12658963E+03 0.32000000E+00 0.0000E+00 0.9000E+01
       25  2    1    2    0    0 -.24060933E+03 0.16732978E+03 0.58571131E+03 0.72025259E+03 0.29968977E+03 0.0000E+00 0.0000E+00
       23  2    1    2    0    0 0.24060933E+03 -.16732978E+03 0.33827767E+03 0.45691529E+03 0.91911343E+02 0.0000E+00 0.0000E+00
       24  1    3    3    0    0 -.21149101E+03 0.16349501E+03 0.25313617E+03 0.37683445E+03 0.80419002E+02 0.0000E+00 0.9000E+01
      -11  1    4    4    0    0 0.16426657E+03 -.15525320E+03 0.21854739E+03 0.31440423E+03 0.51099893E-03 0.0000E+00 0.9000E+01
       11  1    4    4    0    0 0.76342756E+02 -.12076587E+02 0.11973029E+03 0.14251106E+03 0.51099893E-03 0.0000E+00 0.9000E+01
      -24  1    3    3    0    0 -.29118317E+02 0.38347691E+01 0.33257514E+03 0.34341814E+03 0.80419002E+02 0.0000E+00 0.9000E+01
#aMCatNLO 1  0  0  2  1 0.11669278D+03 0.00000000D+00  -5  7  0 0.00000000D+00 0.00000000D+00 0.00000000D+00 0.00000000D+00 0.00000000D+00
  <mgrwgt>
 0.6206895897D-03    9    2    0
 0.364680887738273D+03 0.000000000000000D+00 0.000000000000000D+00 0.364680887738273D+03
 0.364680887738273D+03 0.000000000000000D+00 0.000000000000000D+00 -.364680887738273D+03
 0.287514910015302D+03 -.211491013264906D+03 0.163495014033281D+03 -.688370483183114D+02
 0.230573080912949D+03 0.164266574436556D+03 -.155253196369210D+03 -.455728338126167D+02
 0.783287233226837D+02 0.763427561132005D+02 -.120765867254334D+02 0.127015172111447D+02
 0.132945061225611D+03 -.291183172848509D+02 0.383476906136220D+01 0.101708364919783D+03
 0.000000000000000D+00 0.000000000000000D+00 -.000000000000000D+00 -.000000000000000D+00
 0.407925355776940D+03 0.000000000000000D+00 0.000000000000000D+00 0.407925355776940D+03
 0.457498490926120D+03 0.000000000000000D+00 0.000000000000000D+00 -.457498490926120D+03
 0.333610774973308D+03 -.253995313916340D+03 0.188618065177445D+03 -.688370483183114D+02
 0.198241564196977D+03 0.134922325695941D+03 -.137908667683907D+03 -.455728338126167D+02
 0.678268820506133D+02 0.663411703748922D+02 -.616494140542550D+01 0.127015172111447D+02
 0.138958582157522D+03 -.477249769125060D+02 0.148326223205206D+02 0.101708364919783D+03
 0.126786043324639D+03 0.100456794758013D+03 -.593770784086331D+02 -.495731351491792D+02
0.549637130819D-04 0.000000000000D+00 0.000000000000D+00 0.788680133670D-06 0.000000000000D+00  7 -2 2 24 -11 11 -24 21 0 0.16162745D+00 0.19475301D-01 0.11158391D+06 0.11158391D+06 0.11158391D+06 0.11178366D+01  1  2  2  2  7  2        2 0.480086466940D-03 0.100000000000D+01
-.302494759337D-05 0.000000000000D+00 -.211075130513D-06 0.788680133670D-06 0.000000000000D+00  7 -2 2 24 -11 11 -24 21 2 0.16162745D+00 0.19475301D-01 0.11158391D+06 0.11158391D+06 0.11158391D+06 0.11178366D+01  1  2  3  2  7  2        2 -.330155014985D-04 0.100000000000D+01
0.335554138727D-05 0.000000000000D+00 0.000000000000D+00 0.788680133670D-06 0.000000000000D+00  7 -2 2 24 -11 11 -24 21 2 0.16162745D+00 0.19475301D-01 0.11158391D+06 0.11158391D+06 0.11158391D+06 0.11178366D+01  1  2 15  2  7  2        2 0.366237358765D-04 0.100000000000D+01
0.417630840935D-04 0.000000000000D+00 0.000000000000D+00 0.788680133670D-06 0.000000000000D+00  7 -2 2 24 -11 11 -24 21 2 0.16162745D+00 0.25355754D-01 0.15894843D+06 0.15894843D+06 0.15894843D+06 0.11055715D+01  1  2 12  2  7  2        2 0.324311602032D-03 0.100000000000D+01
-.456528945502D-04 0.000000000000D+00 0.000000000000D+00 0.788680133670D-06 0.000000000000D+00  7 -2 2 24 -11 11 -24 21 2 0.16162745D+00 0.19475301D-01 0.11158391D+06 0.11158391D+06 0.11158391D+06 0.11178366D+01  1  2  4  2  7  2        2 -.498274155803D-03 0.100000000000D+01
-.792595134766D-04 0.000000000000D+00 -.286516815675D-04 0.788680133670D-06 0.000000000000D+00  7 -2 2 24 -11 11 -24 21 2 0.16162745D+00 0.27258123D-01 0.11158391D+06 0.11158391D+06 0.11158391D+06 0.11178366D+01  1  2  5  2  7  2        2 -.584178107324D-03 0.100000000000D+01
0.855575713831D-04 0.000000000000D+00 0.271052943849D-04 0.788680133670D-06 0.000000000000D+00  7 -2 2 24 -11 11 -24 21 2 0.16162745D+00 0.19475301D-01 0.11158391D+06 0.11158391D+06 0.11158391D+06 0.11178366D+01  1  2  6  2  7  2        2 0.933809938525D-03 0.100000000000D+01
0.147055884910D-05 0.000000000000D+00 0.000000000000D+00 0.788680133670D-06 0.000000000000D+00  7 -2 21 24 -11 11 -24 -2 2 0.16162745D+00 0.25355754D-01 0.15894843D+06 0.15894843D+06 0.15894843D+06 0.11055715D+01  1  2 12  4  7  2        2 0.667052451588D-04 0.100000000000D+01
-.256232333364D-05 0.000000000000D+00 -.120234910124D-05 0.788680133670D-06 0.000000000000D+00  7 -2 21 24 -11 11 -24 -2 2 0.16162745D+00 0.27258123D-01 0.11158391D+06 0.11158391D+06 0.11158391D+06 0.11178366D+01  1  2  5  4  7  2        2 -.105379634233D-03 0.100000000000D+01
  </mgrwgt>
  </event>
  <event>
  8     66 0.27011060E-05 0.92098423E+02 0.75467711E-02 0.10231529E+00
       -2 -1    0    0    0  501 0.00000000E+00 0.00000000E+00 0.64383783E+02 0.64384578E+02 0.32000000E+00 0.0000E+00 0.9000E+01
        2 -1    0    0  501    0 0.00000000E+00 0.00000000E+00 -.22562761E+04 0.22562762E+04 0.32000000E+00 0.0000E+00 0.9000E+01
       25  2    1    2    0    0 0.30986931E+02 -.15288207E+03 -.41912476E+03 0.53870661E+03 0.30034336E+03 0.0000E+00 0.0000E+00
       23  2    1    2    0    0 -.30986931E+02 0.15288207E+03 -.17727676E+04 0.17819541E+04 0.91227500E+02 0.0000E+00 0.0000E+00
       24  1    3    3    0    0 -.40441207E+02 -.19384986E+03 -.32986262E+03 0.39305193E+03 0.80419002E+02 0.0000E+00 0.9000E+01
      -11  1    4    4    0    0 0.20303641E+02 0.11500213E+03 -.11826708E+04 0.11884225E+04 0.51099893E-03 0.0000E+00 0.9000E+01
       11  1    4    4    0    0 -.51290571E+02 0.37879940E+02 -.59009676E+03 0.59353163E+03 0.51099893E-03 0.0000E+00 0.9000E+01
      -24  1    3    3    0    0 0.71428138E+02 0.40967794E+02 -.89262145E+02 0.14565468E+03 0.80419002E+02 0.0000E+00 0.9000E+01
#aMCatNLO 1  0  0  1  2 0.28677878D+02 0.00000000D+00  -5  7  0 0.00000000D+00 0.00000000D+00 0.00000000D+00 0.00000000D+00 0.00000000D+00
  <mgrwgt>
 0.9651586175D-03    6    2    0
 0.381141105928217D+03 0.000000000000000D+00 0.000000000000000D+00 0.381141105928217D+03
 0.381141105928217D+03 0.000000000000000D+00 0.000000000000000D+00 -.381141105928217D+03
 0.248092947182038D+03 -.404412071186109D+02 -.193849860957253D+03 0.125974738184854D+03
 0.217292579886315D+03 0.203036405250802D+02 0.115002127468540D+03 -.183243930684725D+03
 0.110138972714542D+03 -.512905712661278D+02 0.378799399813417D+02 -.898052379141593D+02
 0.186757712073540D+03 0.714281378596584D+02 0.409677935073710D+02 0.147074430414031D+03
 0.000000000000000D+00 -.000000000000000D+00 0.000000000000000D+00 -.000000000000000D+00
 0.394681624373973D+03 0.000000000000000D+00 0.000000000000000D+00 0.394681624373973D+03
 0.396903678382372D+03 0.000000000000000D+00 0.000000000000000D+00 -.396903678382372D+03
 0.254574395214107D+03 -.371483123459684D+02 -.202709829493692D+03 0.125974738184854D+03
 0.213656935669798D+03 0.231267230835831D+02 0.107406250779157D+03 -.183243930684725D+03
 0.108208847837716D+03 -.498602090041056D+02 0.340313612953436D+02 -.898052379141593D+02
 0.186381288733229D+03 0.738725128201812D+02 0.343908796559416D+02 0.147074430414031D+03
 0.287638353014940D+02 -.999071455369027D+01 0.268813377632496D+02 -.222205400839941D+01
0.137825351210D-04 0.000000000000D+00 0.000000000000D+00 0.183703884841D-05 0.000000000000D+00  7 -2 2 24 -11 11 -24 21 0 0.99052603D-02 0.34711947D+00 0.64864646D+05 0.64864646D+05 0.64864646D+05 0.11374834D+01  1  2  2  1  7  1       -2 0.556459562230D-03 0.100000000000D+01
-.614392082426D-06 0.000000000000D+00 -.529285638896D-07 0.183703884841D-05 0.000000000000D+00  7 -2 2 24 -11 11 -24 21 2 0.99052603D-02 0.34711947D+00 0.64864646D+05 0.64864646D+05 0.64864646D+05 0.11374834D+01  1  2  3  1  7  1       -2 -.320952107979D-04 0.100000000000D+01
0.868871973608D-06 0.000000000000D+00 0.000000000000D+00 0.183703884841D-05 0.000000000000D+00  7 -2 2 24 -11 11 -24 21 2 0.99052603D-02 0.34711947D+00 0.64864646D+05 0.64864646D+05 0.64864646D+05 0.11374834D+01  1  2 15  1  7  1       -2 0.453889787109D-04 0.100000000000D+01
0.227269277037D-04 0.000000000000D+00 0.000000000000D+00 0.183703884841D-05 0.000000000000D+00  7 -2 2 24 -11 11 -24 21 2 0.10454301D-01 0.34711947D+00 0.71454481D+05 0.71454481D+05 0.71454481D+05 0.11339011D+01  1  2 12  1  7  1       -2 0.108279103297D-02 0.100000000000D+01
-.163793698874D-04 0.000000000000D+00 0.000000000000D+00 0.183703884841D-05 0.000000000000D+00  7 -2 2 24 -11 11 -24 21 2 0.99052603D-02 0.34711947D+00 0.64864646D+05 0.64864646D+05 0.64864646D+05 0.11374834D+01  1  2  4  1  7  1       -2 -.855641445113D-03 0.100000000000D+01
0.242457942607D-06 0.000000000000D+00 0.000000000000D+00 0.183703884841D-05 0.000000000000D+00  7 21 2 24 -11 11 -24 2 2 0.10454301D-01 0.34711947D+00 0.71454481D+05 0.71454481D+05 0.71454481D+05 0.11339011D+01  1  2 12  3  7  1       -2 0.168255699539D-03 0.100000000000D+01
  </mgrwgt>
  </event>
  <event>
  8     66 0.27011060E-05 0.14209267E+03 0.75467711E-02 0.10416551E+00
       -2 -1    0    0    0  501 0.00000000E+00 0.00000000E+00 0.87804455E+02 0.87805038E+02 0.32000000E+00 0.0000E+00 0.9000E+01
        2 -1    0    0  501    0 0.00000000E+00 0.00000000E+00 -.77874051E+03 0.77874057E+03 0.32000000E+00 0.0000E+00 0.9000E+01
       25  2    1    2    0    0 -.12711627E+03 0.14501966E+02 -.61010890E+03 0.69082800E+03 0.29772739E+03 0.0000E+00 0.0000E+00
       23  2    1    2    0    0 0.12711627E+03 -.14501966E+02 -.80827149E+02 0.17571761E+03 0.89301728E+02 0.0000E+00 0.0000E+00
       24  1    3    3    0    0 -.16220660E+03 0.83456045E+01 -.56215323E+03 0.59064719E+03 0.80419002E+02 0.0000E+00 0.9000E+01
      -13  1    4    4    0    0 0.10873155E+03 0.24286347E+02 -.46377441E+02 0.12067831E+03 0.10565837E+00 0.0000E+00 0.9000E+01
       13  1    4    4    0    0 0.18384719E+02 -.38788314E+02 -.34449708E+02 0.55039302E+02 0.10565837E+00 0.0000E+00 0.9000E+01
      -24  1    3    3    0    0 0.35090334E+02 0.61563619E+01 -.47955673E+02 0.10018081E+03 0.80419002E+02 0.0000E+00 0.9000E+01
#aMCatNLO 1  0  0  2  1 0.40324788D+02 0.00000000D+00  -5  7  0 0.00000000D+00 0.00000000D+00 0.00000000D+00 0.00000000D+00 0.00000000D+00
  <mgrwgt>
 0.9926390159D-03    9    2    0
 0.261490280944890D+03 0.000000000000000D+00 0.000000000000000D+00 0.261490280944890D+03
 0.261490280944890D+03 0.000000000000000D+00 0.000000000000000D+00 -.261490280944890D+03
 0.235975875844166D+03 -.162206603952701D+03 0.834560465022982D+01 -.151118385854284D+03
 0.138684854328595D+03 0.108731676887759D+03 0.242864320011914D+02 0.825898328002369D+02
 0.456832483004732D+02 0.183845940974651D+02 -.387883986407144D+02 0.156341295262371D+02
 0.102636583416546D+03 0.350903329674767D+02 0.615636198929322D+01 0.528944235278103D+02
 0.000000000000000D+00 0.000000000000000D+00 0.000000000000000D+00 -.000000000000000D+00
 0.276723596767183D+03 0.000000000000000D+00 0.000000000000000D+00 0.276723596767183D+03
 0.290385552519333D+03 0.000000000000000D+00 0.000000000000000D+00 -.290385552519333D+03
 0.248818598292967D+03 -.180511818183315D+03 0.471124771749396D+01 -.151118385854284D+03
 0.130508505693360D+03 0.985672827216929D+02 0.222683711394549D+02 0.825898328002369D+02
 0.450108623317063D+02 0.149601014244991D+02 -.394683048428655D+02 0.156341295262371D+02
 0.100194927422567D+03 0.274316766570114D+02 0.463579575572081D+01 0.528944235278103D+02
 0.425762555459164D+02 0.395527573801116D+02 0.785289023019575D+01 -.136619557521497D+02
0.338138517494D-05 0.000000000000D+00 0.000000000000D+00 0.137120644479D-07 0.000000000000D+00  7 -2 2 24 -13 13 -24 21 0 0.13508428D-01 0.11980628D+00 0.44844957D+05 0.44844957D+05 0.44844957D+05 0.11514754D+01  1  2  2  2  7  2        2 0.563439037145D-03 0.100000000000D+01
-.177694255874D-06 0.000000000000D+00 -.129854094109D-07 0.137120644479D-07 0.000000000000D+00  7 -2 2 24 -13 13 -24 21 2 0.13508428D-01 0.11980628D+00 0.44844957D+05 0.44844957D+05 0.44844957D+05 0.11514754D+01  1  2  3  2  7  2        2 -.392586164842D-04 0.100000000000D+01
0.206869342980D-06 0.000000000000D+00 0.000000000000D+00 0.137120644479D-07 0.000000000000D+00  7 -2 2 24 -13 13 -24 21 2 0.13508428D-01 0.11980628D+00 0.44844957D+05 0.44844957D+05 0.44844957D+05 0.11514754D+01  1  2 15  2  7  2        2 0.457043710190D-04 0.100000000000D+01
0.528893128602D-05 0.000000000000D+00 0.000000000000D+00 0.137120644479D-07 0.000000000000D+00  7 -2 2 24 -13 13 -24 21 2 0.13508428D-01 0.13623259D+00 0.54370852D+05 0.54370852D+05 0.54370852D+05 0.11441077D+01  1  2 12  2  7  2        2 0.981515004678D-03 0.100000000000D+01
-.499196415044D-05 0.000000000000D+00 0.000000000000D+00 0.137120644479D-07 0.000000000000D+00  7 -2 2 24 -13 13 -24 21 2 0.13508428D-01 0.11980628D+00 0.44844957D+05 0.44844957D+05 0.44844957D+05 0.11514754D+01  1  2  4  2  7  2        2 -.110289218479D-02 0.100000000000D+01
-.133598549899D-04 0.000000000000D+00 -.320659183104D-05 0.137120644479D-07 0.000000000000D+00  7 -2 2 24 -13 13 -24 21 2 0.13508428D-01 0.13845391D+00 0.44844957D+05 0.44844957D+05 0.44844957D+05 0.11514754D+01  1  2  5  2  7  2        2 -.245818281132D-02 0.100000000000D+01
0.137132485259D-04 0.000000000000D+00 0.317332988745D-05 0.137120644479D-07 0.000000000000D+00  7 -2 2 24 -13 13 -24 21 2 0.13508428D-01 0.11980628D+00 0.44844957D+05 0.44844957D+05 0.44844957D+05 0.11514754D+01  1  2  6  2  7  2        2 0.302971619418D-02 0.100000000000D+01
0.106252706924D-06 0.000000000000D+00 0.000000000000D+00 0.137120644479D-07 0.000000000000D+00  7 -2 21 24 -13 13 -24 -2 2 0.13508428D-01 0.13623259D+00 0.54370852D+05 0.54370852D+05 0.54370852D+05 0.11441077D+01  1  2 12  4  7  2        2 0.179362998093D-04 0.100000000000D+01
-.275062637096D-06 0.000000000000D+00 -.710240093280D-07 0.137120644479D-07 0.000000000000D+00  7 -2 21 24 -13 13 -24 -2 2 0.13508428D-01 0.13845391D+00 0.44844957D+05 0.44844957D+05 0.44844957D+05 0.11514754D+01  1  2  5  4  7  2        2 -.453382783086D-04 0.100000000000D+01
  </mgrwgt>
  </event>
  <event>
  8     66 -.27011060E-05 0.25318829E+03 0.75467711E-02 0.10304226E+00
       -2 -1    0    0    0  501 0.00000000E+00 0.00000000E+00 0.83630047E+03 0.83630053E+03 0.32000000E+00 0.0000E+00 0.9000E+01
        2 -1    0    0  501    0 0.00000000E+00 0.00000000E+00 -.56014968E+03 0.56014977E+03 0.32000000E+00 0.0000E+00 0.9000E+01
       25  2    1    2    0    0 0.75537382E+02 -.18936385E+03 0.77216725E+03 0.85185105E+03 0.29638385E+03 0.0000E+00 0.0000E+00
       23  2    1    2    0    0 -.75537382E+02 0.18936385E+03 -.49601646E+03 0.54459926E+03 0.94823328E+02 0.0000E+00 0.0000E+00
       24  1    3    3    0    0 0.11178542E+03 -.13554611E+03 0.23217761E+03 0.30206355E+03 0.80419002E+02 0.0000E+00 0.9000E+01
      -13  1    4    4    0    0 -.41854472E+02 0.15918186E+03 -.45381493E+03 0.48274079E+03 0.10565837E+00 0.0000E+00 0.9000E+01
       13  1    4    4    0    0 -.33682910E+02 0.30181989E+02 -.42201523E+02 0.61858472E+02 0.10565837E+00 0.0000E+00 0.9000E+01
      -24  1    3    3    0    0 -.36248038E+02 -.53817737E+02 0.53998964E+03 0.54978750E+03 0.80419002E+02 0.0000E+00 0.9000E+01
#aMCatNLO 1  0  0  2  1 0.40324788D+02 0.00000000D+00  -5  7  0 0.00000000D+00 0.00000000D+00 0.00000000D+00 0.00000000D+00 0.00000000D+00
  <mgrwgt>
 -.2089112646D-03    1    2    0
 0.684436664783412D+03 0.000000000000000D+00 0.000000000000000D+00 0.684436664783412D+03
 0.684436664783412D+03 0.000000000000000D+00 0.000000000000000D+00 -.684436664783412D+03
 0.261310301769904D+03 0.111785420504101D+03 -.135546113171993D+03 0.175917960491231D+03
 0.584017324531049D+03 -.418544821890221D+02 0.159182021760096D+03 -.560344110008718D+03
 0.716175802674699D+02 -.336829000431842D+02 0.301818283587835D+02 -.555301475323926D+02
 0.451928122998401D+03 -.362480382718948D+02 -.538177369468870D+02 0.439956297049880D+03
 0.000000000000000D+00 -.000000000000000D+00 0.000000000000000D+00 0.000000000000000D+00
 0.316149804760129D+04 0.000000000000000D+00 0.000000000000000D+00 0.316149804760129D+04
 0.899158215469326D+03 0.000000000000000D+00 0.000000000000000D+00 -.899158215469326D+03
 0.422896307025347D+03 0.207415280752942D+03 -.313697056135517D+03 0.175917960491231D+03
 0.592137488049953D+03 0.122533758018376D+03 -.147060400103291D+03 -.560344110008718D+03
 0.577856457110022D+02 -.155965321873401D+02 -.351165900927784D+01 -.555301475323926D+02
 0.558020638391900D+03 0.104909994504644D+03 -.316784101015387D+03 0.439956297049880D+03
 0.242981618389242D+04 -.419262501088623D+03 0.781053216263474D+03 0.226233983213197D+04
-.518792895413D-04 0.000000000000D+00 0.000000000000D+00 0.372117381016D-07 0.000000000000D+00  7 -2 2 24 -13 13 -24 21 2 0.12866162D+00 0.86176886D-01 0.64104313D+05 0.64104313D+05 0.64104313D+05 0.11379223D+01  1  2 14  2  7  2        2 -.208911264592D-03 0.100000000000D+01
  </mgrwgt>
  </event>
  <event>
  9     66 0.27011060E-05 0.37303191E+03 0.75467711E-02 0.94922955E-01
       -4 -1    0    0    0  502 0.00000000E+00 0.00000000E+00 0.14040938E+04 0.14040946E+04 0.15500000E+01 0.0000E+00 0.9000E+01
        4 -1    0    0  501    0 0.00000000E+00 0.00000000E+00 -.45113060E+03 0.45113327E+03 0.15500000E+01 0.0000E+00 0.9000E+01
       25  2    1    2    0    0 0.35378211E+03 0.19546890E+03 0.80335266E+03 0.94547733E+03 0.29185959E+03 0.0000E+00 0.0000E+00
       23  2    1    2    0    0 -.32041890E+03 0.99995311E+01 -.27800545E+03 0.43416003E+03 0.91867508E+02 0.0000E+00 0.0000E+00
       24  1    3    3    0    0 0.19705399E+03 0.84602955E+02 0.64348204E+03 0.68302583E+03 0.80419002E+02 0.0000E+00 0.9000E+01
      -13  1    4    4    0    0 -.52508466E+02 0.29551907E+02 -.25286972E+02 0.65344444E+02 0.10565837E+00 0.0000E+00 0.9000E+01
       13  1    4    4    0    0 -.26791043E+03 -.19552376E+02 -.25271848E+03 0.36881559E+03 0.10565837E+00 0.0000E+00 0.9000E+01
      -24  1    3    3    0    0 0.15672812E+03 0.11086594E+03 0.15987063E+03 0.26245151E+03 0.80419002E+02 0.0000E+00 0.9000E+01
       21  1    1    2  501  502 -.33363205E+02 -.20546843E+03 0.42761596E+03 0.47559053E+03 0.75000000E+00 0.0000E+00 0.9000E+01
#aMCatNLO 2  0  0  1  2 0.20815950D+03 0.00000000D+00  -5  7  0 0.00000000D+00 0.00000000D+00 0.00000000D+00 0.00000000D+00 0.00000000D+00
  <mgrwgt>
 0.1103528116D-04    2    2    0
 0.629301038865945D+03 0.000000000000000D+00 0.000000000000000D+00 0.629301038865945D+03
 0.629301038865945D+03 0.000000000000000D+00 0.000000000000000D+00 -.629301038865945D+03
 0.461082086490835D+03 0.184748136833510D+03 0.881695477003993D+01 0.414632200598918D+03
 0.787502340940870D+02 -.546123075134449D+02 0.165936369633978D+02 -.542563033228158D+02
 0.520063654281008D+03 -.281378177896545D+03 -.102492241493243D+03 -.425191563817330D+03
 0.198706102865959D+03 0.151242348576480D+03 0.770816497598051D+02 0.648156665412286D+02
 0.000000000000000D+00 -.000000000000000D+00 -.000000000000000D+00 0.000000000000000D+00
 0.940271710530285D+03 0.000000000000000D+00 0.000000000000000D+00 0.940271710530285D+03
 0.673669299010558D+03 0.000000000000000D+00 0.000000000000000D+00 -.673669299010558D+03
 0.473682395486526D+03 0.197053987808177D+03 0.846029547644586D+02 0.414632200598918D+03
 0.810812836809816D+02 -.525081808839926D+02 0.295519720721366D+02 -.542563033228158D+02
 0.502937687341902D+03 -.267910719194792D+03 -.195524409709528D+02 -.425191563817330D+03
 0.217998272504071D+03 0.156728117497597D+03 0.110865943449124D+03 0.648156665412286D+02
 0.338241370527363D+03 -.333632052269891D+02 -.205468429314767D+03 0.266602411519726D+03
-.396297544645D-03 0.000000000000D+00 0.000000000000D+00 0.463190375458D-07 0.000000000000D+00  7 -4 4 24 -13 13 -24 21 2 0.21909936D+00 0.64833887D-01 0.23726957D+06 0.23726957D+06 0.23726957D+06 0.10921708D+01  1  2 13  1  7  1       -4 -.125279729564D-04 0.100000000000D+01
0.831324897739D-03 0.000000000000D+00 0.000000000000D+00 0.463190375458D-07 0.714886995535D-11  7 -4 4 24 -13 13 -24 21 2 0.21601457D+00 0.69404938D-01 0.23726957D+06 0.23726957D+06 0.23726957D+06 0.10921708D+01  1  2  1  1  7  1       -4 0.235632541124D-04 0.100000000000D+01
  </mgrwgt>
  </event>
  <event>
  8     66 0.27011060E-05 0.39678049E+03 0.75467711E-02 0.96934350E-01
       -2 -1    0    0    0  501 0.00000000E+00 0.00000000E+00 0.78943767E+02 0.78944415E+02 0.32000000E+00 0.0000E+00 0.9000E+01
        2 -1    0    0  501    0 0.00000000E+00 0.00000000E+00 -.34358169E+04 0.34358169E+04 0.32000000E+00 0.0000E+00 0.9000E+01
       25  2    1    2    0    0 -.28702331E+02 -.35314805E+03 -.74954802E+03 0.88190070E+03 0.30064805E+03 0.0000E+00 0.0000E+00
       23  2    1    2    0    0 0.28702331E+02 0.35314805E+03 -.26073251E+04 0.26328606E+04 0.90958537E+02 0.0000E+00 0.0000E+00
       24  1    3    3    0    0 -.79819042E+02 -.67828474E+02 -.39738427E+03 0.41875202E+03 0.80419002E+02 0.0000E+00 0.9000E+01
      -11  1    4    4    0    0 -.14637900E+02 0.20256012E+02 -.32750901E+03 0.32846115E+03 0.51099893E-03 0.0000E+00 0.9000E+01
       11  1    4    4    0    0 0.43340231E+02 0.33289204E+03 -.22798161E+04 0.23043995E+04 0.51099893E-03 0.0000E+00 0.9000E+01
      -24  1    3    3    0    0 0.51116711E+02 -.28531958E+03 -.35216375E+03 0.46314868E+03 0.80419002E+02 0.0000E+00 0.9000E+01
#aMCatNLO 1  0  0  1  2 0.26360996D+02 0.00000000D+00  -5  7  0 0.00000000D+00 0.00000000D+00 0.00000000D+00 0.00000000D+00 0.00000000D+00
  <mgrwgt>
 0.8088550092D-03    4    2    0
 0.520804657851967D+03 0.000000000000000D+00 0.000000000000000D+00 0.520804657851967D+03
 0.520804657851967D+03 0.000000000000000D+00 0.000000000000000D+00 -.520804657851967D+03
 0.132338324369486D+03 -.798190419519394D+02 -.678284744075121D+02 0.862755724274133D+01
 0.528570011482036D+02 -.146378998412621D+02 0.202560117756851D+02 -.465756207211635D+02
 0.428529906320644D+03 0.433402308575287D+02 0.332892040128524D+03 -.266350135384732D+03
 0.427884083865602D+03 0.511167109356728D+02 -.285319577496697D+03 0.304298198863155D+03
 0.000000000000000D+00 0.000000000000000D+00 -.000000000000000D+00 -.000000000000000D+00
 0.526125200845377D+03 0.000000000000000D+00 0.000000000000000D+00 0.526125200845377D+03
 0.554679761200892D+03 0.000000000000000D+00 0.000000000000000D+00 -.554679761200892D+03
 0.132598445987595D+03 -.821920834658128D+02 -.654611227792998D+02 0.862755724274133D+01
 0.534982458603964D+02 -.155905249375427D+02 0.212063527450997D+02 -.465756207211635D+02
 0.433840686276357D+03 0.356159681445117D+02 0.340597782233537D+03 -.266350135384732D+03
 0.422005455559432D+03 0.435042411507346D+02 -.277725360271784D+03 0.304298198863155D+03
 0.388621283624896D+02 0.186623991081092D+02 -.186176519275531D+02 -.285545603555148D+02
0.195509683653D-03 0.000000000000D+00 0.000000000000D+00 0.352952454841D-05 0.000000000000D+00  7 -2 2 24 -11 11 -24 21 0 0.12145246D-01 0.52858726D+00 0.15743476D+06 0.15743476D+06 0.15743476D+06 0.11058978D+01  1  2  2  1  7  1       -2 0.105846745610D-02 0.100000000000D+01
-.988466173176D-05 0.000000000000D+00 -.750808664111D-06 0.352952454841D-05 0.000000000000D+00  7 -2 2 24 -11 11 -24 21 2 0.12145246D-01 0.52858726D+00 0.15743476D+06 0.15743476D+06 0.15743476D+06 0.11058978D+01  1  2  3  1  7  1       -2 -.654486980603D-04 0.100000000000D+01
0.124585699125D-04 0.000000000000D+00 0.000000000000D+00 0.352952454841D-05 0.000000000000D+00  7 -2 2 24 -11 11 -24 21 2 0.12145246D-01 0.52858726D+00 0.15743476D+06 0.15743476D+06 0.15743476D+06 0.11058978D+01  1  2 15  1  7  1       -2 0.824911567636D-04 0.100000000000D+01
-.402726657610D-04 0.000000000000D+00 0.000000000000D+00 0.352952454841D-05 0.000000000000D+00  7 -2 2 24 -11 11 -24 21 2 0.12145246D-01 0.52858726D+00 0.15743476D+06 0.15743476D+06 0.15743476D+06 0.11058978D+01  1  2  4  1  7  1       -2 -.266654905651D-03 0.100000000000D+01
  </mgrwgt>
  </event>
  <event>
  8     66 0.27011060E-05 0.35336219E+03 0.75467711E-02 0.97262162E-01
       -2 -1    0    0    0  501 0.00000000E+00 0.00000000E+00 0.31284375E+03 0.31284391E+03 0.32000000E+00 0.0000E+00 0.9000E+01
        2 -1    0    0  501    0 0.00000000E+00 0.00000000E+00 -.56249479E+03 0.56249488E+03 0.32000000E+00 0.0000E+00 0.9000E+01
       25  2    1    2    0    0 0.15765466E+03 0.23759465E+03 0.89273017E+02 0.42331080E+03 0.29986023E+03 0.0000E+00 0.0000E+00
       23  2    1    2    0    0 -.15765466E+03 -.23759465E+03 -.33892405E+03 0.45202799E+03 0.90297159E+02 0.0000E+00 0.0000E+00
       24  1    3    3    0    0 -.86796803E+01 0.20603242E+03 0.15499039E+02 0.22188314E+03 0.80419002E+02 0.0000E+00 0.9000E+01
      -11  1    4    4    0    0 -.97979984E+01 0.70687254E+01 -.69754745E+01 0.13950803E+02 0.51099893E-03 0.0000E+00 0.9000E+01
       11  1    4    4    0    0 -.14785666E+03 -.24466338E+03 -.33194858E+03 0.43807719E+03 0.51099893E-03 0.0000E+00 0.9000E+01
      -24  1    3    3    0    0 0.16633434E+03 0.31562238E+02 0.73773979E+02 0.20142766E+03 0.80419002E+02 0.0000E+00 0.9000E+01
#aMCatNLO 1  0  0  1  2 0.89855449D+02 0.00000000D+00  -5  7  0 0.00000000D+00 0.00000000D+00 0.00000000D+00 0.00000000D+00 0.00000000D+00
  <mgrwgt>
 0.1076474939D-02    4    2    0
 0.419491466187247D+03 0.000000000000000D+00 0.000000000000000D+00 0.419491466187247D+03
 0.419491466187247D+03 0.000000000000000D+00 0.000000000000000D+00 -.419491466187247D+03
 0.236110016030629D+03 -.867968031588721D+01 0.206032415352072D+03 0.821950770388268D+02
 0.124796869130451D+02 -.979799839161149D+01 0.706872538997909D+01 -.312648913746257D+01
 0.358284579518444D+03 -.147856658778258D+03 -.244663379002324D+03 -.215977034313380D+03
 0.232108649912376D+03 0.166334337485756D+03 0.315622382602726D+02 0.136908446412016D+03
 0.000000000000000D+00 -.000000000000000D+00 -.000000000000000D+00 -.000000000000000D+00
 0.448405303597093D+03 0.000000000000000D+00 0.000000000000000D+00 0.448405303597093D+03
 0.498017785319690D+03 0.000000000000000D+00 0.000000000000000D+00 -.498017785319690D+03
 0.254329458746546D+03 0.736661537571444D+01 0.226728824635132D+03 0.821950770388268D+02
 0.125063804007595D+02 -.898049930169886D+01 0.812313047377768D+01 -.312648913746257D+01
 0.329922201693194D+03 -.125339773257767D+03 -.215621244451870D+03 -.215977034313380D+03
 0.247022951197539D+03 0.182010659931239D+03 0.517814584230125D+02 0.136908446412016D+03
 0.102642096878746D+03 -.550570027474879D+02 -.710121690800518D+02 -.496124817225970D+02
0.598037051260D-04 0.000000000000D+00 0.000000000000D+00 0.368124941274D-05 0.000000000000D+00  7 -2 2 24 -11 11 -24 21 0 0.48129827D-01 0.86537679D-01 0.12486484D+06 0.12486484D+06 0.12486484D+06 0.11138929D+01  1  2  2  1  7  1       -2 0.163120849053D-02 0.100000000000D+01
-.320354591967D-05 0.000000000000D+00 -.229661974361D-06 0.368124941274D-05 0.000000000000D+00  7 -2 2 24 -11 11 -24 21 2 0.48129827D-01 0.86537679D-01 0.12486484D+06 0.12486484D+06 0.12486484D+06 0.11138929D+01  1  2  3  1  7  1       -2 -.108417452927D-03 0.100000000000D+01
0.383555206213D-05 0.000000000000D+00 0.000000000000D+00 0.368124941274D-05 0.000000000000D+00  7 -2 2 24 -11 11 -24 21 2 0.48129827D-01 0.86537679D-01 0.12486484D+06 0.12486484D+06 0.12486484D+06 0.11138929D+01  1  2 15  1  7  1       -2 0.129806406892D-03 0.100000000000D+01
-.170234113680D-04 0.000000000000D+00 0.000000000000D+00 0.368124941274D-05 0.000000000000D+00  7 -2 2 24 -11 11 -24 21 2 0.48129827D-01 0.86537679D-01 0.12486484D+06 0.12486484D+06 0.12486484D+06 0.11138929D+01  1  2  4  1  7  1       -2 -.576122505166D-03 0.100000000000D+01
  </mgrwgt>
  </event>
  <event>
  7     66 0.27011060E-05 0.67601579E+03 0.75467711E-02 0.88744272E-01
       -2 -1    0    0    0  501 0.00000000E+00 0.00000000E+00 0.59569031E+03 0.59569040E+03 0.32000000E+00 0.0000E+00 0.9000E+01
        2 -1    0    0  501    0 0.00000000E+00 0.00000000E+00 -.81238444E+03 0.81238450E+03 0.32000000E+00 0.0000E+00 0.9000E+01
       25  2    1    2    0    0 -.23402405E+03 -.58133418E+03 -.55050762E+02 0.69723126E+03 0.30063959E+03 0.0000E+00 0.0000E+00
       24  1    3    3    0    0 -.26897239E+03 -.49388384E+03 -.70406427E+02 0.57244360E+03 0.80419002E+02 0.0000E+00 0.9000E+01
      -13  1    1    2    0    0 -.18712246E+02 0.21047267E+03 -.15490597E+03 0.26200146E+03 0.10565837E+00 0.0000E+00 0.9000E+01
       13  1    1    2    0    0 0.25273630E+03 0.37086151E+03 -.67373946E+01 0.44884217E+03 0.10565837E+00 0.0000E+00 0.9000E+01
      -24  1    3    3    0    0 0.34948336E+02 -.87450335E+02 0.15355665E+02 0.12478766E+03 0.80419002E+02 0.0000E+00 0.9000E+01
#aMCatNLO 1  0  0  1  2 0.34384715D+03 0.00000000D+00  -5  7  0 0.00000000D+00 0.00000000D+00 0.00000000D+00 0.00000000D+00 0.00000000D+00
  <mgrwgt>
 0.6075320295D-02    3    2    0
 0.695650517270859D+03 0.000000000000000D+00 0.000000000000000D+00 0.695650517270859D+03
 0.695650517270859D+03 0.000000000000000D+00 0.000000000000000D+00 -.695650517270859D+03
 0.568379817615993D+03 -.268972558404169D+03 -.493884263998994D+03 0.179024500699406D+02
 0.241033347452917D+03 -.187114005674373D+02 0.210472760777410D+03 -.115966266836087D+03
 0.453204050419924D+03 0.252735661369687D+03 0.370861933535997D+03 0.630874238100862D+02
 0.128683819052885D+03 0.349482976019196D+02 -.874504303144129D+02 0.349763929560605D+02
 0.000000000000000D+00 -.000000000000000D+00 -.000000000000000D+00 -.000000000000000D+00
 0.740961098288080D+03 0.000000000000000D+00 0.000000000000000D+00 0.740961098288080D+03
 0.192891726802280D+04 0.000000000000000D+00 0.000000000000000D+00 -.192891726802280D+04
 0.512062855567646D+03 -.137660419971405D+03 -.486282081874822D+03 0.179024500699406D+02
 0.246675020200145D+03 0.405624788132890D+02 0.213904361478126D+03 -.115966266836087D+03
 0.534493718454605D+03 0.372776001662819D+03 0.377811546420591D+03 0.630874238100862D+02
 0.139929049903712D+03 0.675942964213828D+02 -.855604235594155D+02 0.349763929560605D+02
 0.123671772218477D+04 -.343272356926086D+03 -.198734024644809D+02 -.118795616973472D+04
0.141873548039D-02 0.000000000000D+00 0.000000000000D+00 0.323459514434D-09 0.000000000000D+00  7 -2 2 24 -13 13 -24 21 0 0.91644675D-01 0.12498223D+00 0.45699735D+06 0.45699735D+06 0.45699735D+06 0.10712817D+01  1  2  2  1  7  1       -2 0.604142771958D-02 0.100000000000D+01
-.787400812097D-04 0.000000000000D+00 -.544831780633D-05 0.323459514434D-09 0.000000000000D+00  7 -2 2 24 -13 13 -24 21 2 0.91644675D-01 0.12498223D+00 0.45699735D+06 0.45699735D+06 0.45699735D+06 0.10712817D+01  1  2  3  1  7  1       -2 -.384805587355D-03 0.100000000000D+01
0.856752824058D-04 0.000000000000D+00 0.000000000000D+00 0.323459514434D-09 0.000000000000D+00  7 -2 2 24 -13 13 -24 21 2 0.91644675D-01 0.12498223D+00 0.45699735D+06 0.45699735D+06 0.45699735D+06 0.10712817D+01  1  2 15  1  7  1       -2 0.418698163140D-03 0.100000000000D+01
  </mgrwgt>
  </event>
  <event>
  8     66 0.27011060E-05 0.34533215E+03 0.75467711E-02 0.96975631E-01
       -2 -1    0    0    0  501 0.00000000E+00 0.00000000E+00 0.59795077E+03 0.59795086E+03 0.32000000E+00 0.0000E+00 0.9000E+01
        2 -1    0    0  501    0 0.00000000E+00 0.00000000E+00 -.65773930E+03 0.65773937E+03 0.32000000E+00 0.0000E+00 0.9000E+01
       25  2    1    2    0    0 -.14379825E+03 -.32163499E+03 -.50267207E+03 0.68280029E+03 0.29901507E+03 0.0000E+00 0.0000E+00
       23  2    1    2    0    0 0.14379825E+03 0.32163499E+03 0.44288355E+03 0.57288994E+03 0.89050811E+02 0.0000E+00 0.0000E+00
       24  1    3    3    0    0 -.16741912E+03 -.74984723E+02 -.19330344E+03 0.27836183E+03 0.80419002E+02 0.0000E+00 0.9000E+01
      -13  1    4    4    0    0 0.44226207E+02 0.53347112E+02 0.44412531E+02 0.82306475E+02 0.10565837E+00 0.0000E+00 0.9000E+01
       13  1    4    4    0    0 0.99572044E+02 0.26828788E+03 0.39847102E+03 0.49058347E+03 0.10565837E+00 0.0000E+00 0.9000E+01
      -24  1    3    3    0    0 0.23620867E+02 -.24665027E+03 -.30936863E+03 0.40443846E+03 0.80419002E+02 0.0000E+00 0.9000E+01
#aMCatNLO 1  0  0  1  1 0.71044324D+00 0.00000000D+00  -5  7  0 0.00000000D+00 0.00000000D+00 0.00000000D+00 0.00000000D+00 0.00000000D+00
  <mgrwgt>
 0.6137471752D-03   10    2    0
 0.627133017156128D+03 0.000000000000000D+00 0.000000000000000D+00 0.627133017156128D+03
 0.627133017156128D+03 0.000000000000000D+00 0.000000000000000D+00 -.627133017156128D+03
 0.269463486530606D+03 -.167419118285665D+03 -.749847230171718D+02 -.180253945214379D+03
 0.845163959049400D+02 0.442261288713243D+02 0.533468098966614D+02 0.483858303190825D+02
 0.510135488310601D+03 0.995721219540989D+02 0.268288181363727D+03 0.422309200354429D+03
 0.390150663566108D+03 0.236208674602416D+02 -.246650268243216D+03 -.290441085459133D+03
 0.000000000000000D+00 -.000000000000000D+00 -.000000000000000D+00 0.000000000000000D+00
 0.628887290420972D+03 0.000000000000000D+00 0.000000000000000D+00 0.628887290420972D+03
 0.627205050472948D+03 0.000000000000000D+00 0.000000000000000D+00 -.627205050472948D+03
 0.269361813923701D+03 -.167270042684325D+03 -.749521107169892D+02 -.180253945214379D+03
 0.845473389666283D+02 0.442729033600491D+02 0.533570424474844D+02 0.483858303190825D+02
 0.510223143131970D+03 0.998544223145982D+02 0.268349938378392D+03 0.422309200354429D+03
 0.390133939495103D+03 0.238367470715355D+02 -.246603041664061D+03 -.290441085459133D+03
 0.182610537651762D+01 -.694030061857625D+00 -.151828444826966D+00 0.168223994802343D+01
0.604358957252D-04 0.000000000000D+00 0.000000000000D+00 0.646249266697D-06 0.000000000000D+00  7 -2 2 24 -13 13 -24 21 0 0.91992439D-01 0.10119067D+00 0.16657213D+06 0.16657213D+06 0.16657213D+06 0.11039782D+01  1  2  2  1  7  1       -2 0.343872727440D-03 0.100000000000D+01
-.260425421681D-05 0.000000000000D+00 -.232089752722D-06 0.646249266697D-06 0.000000000000D+00  7 -2 2 24 -13 13 -24 21 2 0.91992439D-01 0.10119067D+00 0.16657213D+06 0.16657213D+06 0.16657213D+06 0.11039782D+01  1  2  3  1  7  1       -2 -.180595603082D-04 0.100000000000D+01
0.345790370835D-05 0.000000000000D+00 0.000000000000D+00 0.646249266697D-06 0.000000000000D+00  7 -2 2 24 -13 13 -24 21 2 0.91992439D-01 0.10119067D+00 0.16657213D+06 0.16657213D+06 0.16657213D+06 0.11039782D+01  1  2 15  1  7  1       -2 0.239793105287D-04 0.100000000000D+01
-.321345248695D-01 0.000000000000D+00 0.000000000000D+00 0.646249266697D-06 0.000000000000D+00  7 -2 2 24 -13 13 -24 21 2 0.91992439D-01 0.10119067D+00 0.16657213D+06 0.16657213D+06 0.16657213D+06 0.11039782D+01  1  2  4  1  7  1       -2 -.222841297946D+00 0.100000000000D+01
-.561179703885D-01 0.000000000000D+00 -.245826229453D-02 0.646249266697D-06 0.000000000000D+00  7 -2 2 24 -13 13 -24 21 2 0.92255098D-01 0.10119067D+00 0.16657213D+06 0.16657213D+06 0.16657213D+06 0.11039782D+01  1  2  5  1  7  1       -2 -.386572016219D+00 0.100000000000D+01
0.561247611492D-01 0.000000000000D+00 0.245825230284D-02 0.646249266697D-06 0.000000000000D+00  7 -2 2 24 -13 13 -24 21 2 0.91992439D-01 0.10119067D+00 0.16657213D+06 0.16657213D+06 0.16657213D+06 0.11039782D+01  1  2  6  1  7  1       -2 0.389204902582D+00 0.100000000000D+01
0.321346460389D-01 0.000000000000D+00 0.000000000000D+00 0.646249266697D-06 0.832173972083D-05  7 -2 2 24 -13 13 -24 21 2 0.92249768D-01 0.10120230D+00 0.16687533D+06 0.16687533D+06 0.16687533D+06 0.11039165D+01  1  2 11  1  7  1       -2 0.221322702661D+00 0.100000000000D+01
0.444994092569D-11 0.000000000000D+00 0.000000000000D+00 0.646249266697D-06 0.000000000000D+00  7 21 2 24 -13 13 -24 2 2 0.92255044D-01 0.10119067D+00 0.16687533D+06 0.16687533D+06 0.16687533D+06 0.11039165D+01  1  2 12  3  7  1       -2 0.291747106203D-09 0.100000000000D+01
-.298648473954D-04 0.000000000000D+00 -.130856449705D-05 0.646249266697D-06 0.000000000000D+00  7 21 2 24 -13 13 -24 2 2 0.92255098D-01 0.10119067D+00 0.16657213D+06 0.16657213D+06 0.16657213D+06 0.11039782D+01  1  2  5  3  7  1       -2 -.195845131313D-02 0.100000000000D+01
0.169016601761D-04 0.000000000000D+00 0.000000000000D+00 0.646249266697D-06 0.434074361612D-08  7 21 2 24 -13 13 -24 2 2 0.92249768D-01 0.10120230D+00 0.16687533D+06 0.16687533D+06 0.16687533D+06 0.11039165D+01  1  2 11  3  7  1       -2 0.110811464095D-02 0.100000000000D+01
  </mgrwgt>
  </event>
  <event>
  8     66 0.27011060E-05 0.16027832E+03 0.75467711E-02 0.94460106E-01
       -2 -1    0    0    0  501 0.00000000E+00 0.00000000E+00 0.99991053E+03 0.99991058E+03 0.32000000E+00 0.0000E+00 0.9000E+01
        2 -1    0    0  501    0 0.00000000E+00 0.00000000E+00 -.20964236E+03 0.20964260E+03 0.32000000E+00 0.0000E+00 0.9000E+01
       25  2    1    2    0    0 -.20677826E+03 -.34525951E+03 0.38220875E+03 0.62932729E+03 0.29666131E+03 0.0000E+00 0.0000E+00
       23  2    1    2    0    0 0.20677826E+03 0.34525951E+03 0.40805942E+03 0.58022589E+03 0.90488742E+02 0.0000E+00 0.0000E+00
       24  1    3    3    0    0 -.10164067E+03 -.25801199E+03 0.37138976E+03 0.47042383E+03 0.80419002E+02 0.0000E+00 0.9000E+01
      -11  1    4    4    0    0 0.80173645E+02 0.13934518E+03 0.10267840E+03 0.19075572E+03 0.51099893E-03 0.0000E+00 0.9000E+01
       11  1    4    4    0    0 0.12660461E+03 0.20591433E+03 0.30538102E+03 0.38947017E+03 0.51099893E-03 0.0000E+00 0.9000E+01
      -24  1    3    3    0    0 -.10513759E+03 -.87247525E+02 0.10818994E+02 0.15890346E+03 0.80419002E+02 0.0000E+00 0.9000E+01
#aMCatNLO 1  0  0  2  1 0.14915835D+03 0.00000000D+00  -5  7  0 0.00000000D+00 0.00000000D+00 0.00000000D+00 0.00000000D+00 0.00000000D+00
  <mgrwgt>
 0.2957892892D-02    9    2    0
 0.457846894102842D+03 0.000000000000000D+00 0.000000000000000D+00 0.457846894102842D+03
 0.457846894102842D+03 0.000000000000000D+00 0.000000000000000D+00 -.457846894102842D+03
 0.300870376347058D+03 -.101640667187854D+03 -.258011988648669D+03 0.845857901542358D+02
 0.163357801212856D+03 0.801736448529208D+02 0.139345181867184D+03 -.289978995532109D+02
 0.250904808136061D+03 0.126604613004059D+03 0.205914331958002D+03 0.672590708096369D+02
 0.200560802509709D+03 -.105137590669125D+03 -.872475251765166D+02 -.122846961410662D+03
 0.000000000000000D+00 -.000000000000000D+00 0.000000000000000D+00 -.000000000000000D+00
 0.485779673230242D+03 0.000000000000000D+00 0.000000000000000D+00 0.485779673230242D+03
 0.717874813561193D+03 0.000000000000000D+00 0.000000000000000D+00 -.717874813561193D+03
 0.345581465461895D+03 -.979252438686595D+02 -.310185789541796D+03 0.845857901542358D+02
 0.143797743226231D+03 0.819389934815759D+02 0.114555288510331D+03 -.289978995532109D+02
 0.222219713444734D+03 0.129323853273288D+03 0.167729423214394D+03 0.672590708096369D+02
 0.216163615902435D+03 -.102742504876634D+03 -.120880497390965D+03 -.122846961410662D+03
 0.275891948756141D+03 -.105950980095704D+02 0.148781575208036D+03 -.232095140330952D+03
0.517561897888D-03 0.000000000000D+00 0.000000000000D+00 0.897696976454D-07 0.000000000000D+00  7 -2 2 24 -11 11 -24 21 0 0.15383241D+00 0.32252693D-01 0.18052114D+06 0.18052114D+06 0.18052114D+06 0.11012597D+01  1  2  2  2  7  2        2 0.285663845432D-02 0.100000000000D+01
-.285581851614D-04 0.000000000000D+00 -.198757396507D-05 0.897696976454D-07 0.000000000000D+00  7 -2 2 24 -11 11 -24 21 2 0.15383241D+00 0.32252693D-01 0.18052114D+06 0.18052114D+06 0.18052114D+06 0.11012597D+01  1  2  3  2  7  2        2 -.191162663114D-03 0.100000000000D+01
0.326772065465D-04 0.000000000000D+00 0.000000000000D+00 0.897696976454D-07 0.000000000000D+00  7 -2 2 24 -11 11 -24 21 2 0.15383241D+00 0.32252693D-01 0.18052114D+06 0.18052114D+06 0.18052114D+06 0.11012597D+01  1  2 15  2  7  2        2 0.218734551627D-03 0.100000000000D+01
0.814029688755D-03 0.000000000000D+00 0.000000000000D+00 0.897696976454D-07 0.000000000000D+00  7 -2 2 24 -11 11 -24 21 2 0.15383241D+00 0.51093732D-01 0.25742008D+06 0.25742008D+06 0.25742008D+06 0.10895048D+01  1  2 12  2  7  2        2 0.315854999890D-02 0.100000000000D+01
-.882117914240D-03 0.000000000000D+00 0.000000000000D+00 0.897696976454D-07 0.000000000000D+00  7 -2 2 24 -11 11 -24 21 2 0.15383241D+00 0.32252693D-01 0.18052114D+06 0.18052114D+06 0.18052114D+06 0.11012597D+01  1  2  4  2  7  2        2 -.590471728907D-02 0.100000000000D+01
-.101131365271D-02 0.000000000000D+00 -.207786184336D-03 0.897696976454D-07 0.000000000000D+00  7 -2 2 24 -11 11 -24 21 2 0.15383241D+00 0.52788864D-01 0.18052114D+06 0.18052114D+06 0.18052114D+06 0.11012597D+01  1  2  5  2  7  2        2 -.391488253779D-02 0.100000000000D+01
0.101133325320D-02 0.000000000000D+00 0.184887609540D-03 0.897696976454D-07 0.000000000000D+00  7 -2 2 24 -11 11 -24 21 2 0.15383241D+00 0.32252693D-01 0.18052114D+06 0.18052114D+06 0.18052114D+06 0.11012597D+01  1  2  6  2  7  2        2 0.676965839691D-02 0.100000000000D+01
0.430192673091D-04 0.000000000000D+00 0.000000000000D+00 0.897696976454D-07 0.000000000000D+00  7 -2 21 24 -11 11 -24 -2 2 0.15383241D+00 0.51093732D-01 0.25742008D+06 0.25742008D+06 0.25742008D+06 0.10895048D+01  1  2 12  4  7  2        2 0.508189433457D-03 0.100000000000D+01
-.471452380323D-04 0.000000000000D+00 -.115802130937D-04 0.897696976454D-07 0.000000000000D+00  7 -2 21 24 -11 11 -24 -2 2 0.15383241D+00 0.52788864D-01 0.18052114D+06 0.18052114D+06 0.18052114D+06 0.11012597D+01  1  2  5  4  7  2        2 -.543115452912D-03 0.100000000000D+01
  </mgrwgt>
  </event>
  <event>
  8     66 0.27011060E-05 0.19367248E+03 0.75467711E-02 0.99131441E-01
       -2 -1    0    0    0  501 0.00000000E+00 0.00000000E+00 0.31016365E+03 0.31016381E+03 0.32000000E+00 0.0000E+00 0.9000E+01
        2 -1    0    0  501    0 0.00000000E+00 0.00000000E+00 -.40246024E+03 0.40246037E+03 0.32000000E+00 0.0000E+00 0.9000E+01
       25  2    1    2    0    0 -.10209507E+03 0.19028588E+03 -.23522835E+03 0.43804559E+03 0.29986571E+03 0.0000E+00 0.0000E+00
       23  2    1    2    0    0 0.10209507E+03 -.19028588E+03 0.14293175E+03 0.27457859E+03 0.91278680E+02 0.0000E+00 0.0000E+00
       24  1    3    3    0    0 0.27626107E+02 0.10726874E+03 -.22579558E+03 0.26404667E+03 0.80419002E+02 0.0000E+00 0.9000E+01
      -11  1    4    4    0    0 -.11894132E+02 -.33255599E+00 0.13552200E+02 0.18034498E+02 0.51099893E-03 0.0000E+00 0.9000E+01
       11  1    4    4    0    0 0.11398920E+03 -.18995332E+03 0.12937955E+03 0.25654409E+03 0.51099893E-03 0.0000E+00 0.9000E+01
      -24  1    3    3    0    0 -.12972118E+03 0.83017135E+02 -.94327627E+01 0.17399891E+03 0.80419002E+02 0.0000E+00 0.9000E+01
#aMCatNLO 1  0  0  2  1 0.13529403D+03 0.00000000D+00  -5  7  0 0.00000000D+00 0.00000000D+00 0.00000000D+00 0.00000000D+00 0.00000000D+00
  <mgrwgt>
 0.9634004109D-03    9    2    0
 0.353310966410869D+03 0.000000000000000D+00 0.000000000000000D+00 0.353310966410869D+03
 0.353310966410869D+03 0.000000000000000D+00 0.000000000000000D+00 -.353310966410869D+03
 0.236796896836368D+03 0.276261067897390D+02 0.107268743598905D+03 -.193224660091090D+03
 0.199578306044007D+02 -.118941318905245D+02 -.332555980332884D+00 0.160229221905590D+02
 0.275622374100890D+03 0.113989201658732D+03 -.189953322820064D+03 0.163987469520792D+03
 0.174244831280078D+03 -.129721176557946D+03 0.830171352014916D+02 0.132142683797389D+02
 0.000000000000000D+00 0.000000000000000D+00 0.000000000000000D+00 -.000000000000000D+00
 0.401474901282085D+03 0.000000000000000D+00 0.000000000000000D+00 0.401474901282085D+03
 0.469346404886380D+03 0.000000000000000D+00 0.000000000000000D+00 -.469346404886380D+03
 0.221705432970747D+03 0.652651636898529D+00 0.731429274291066D+02 -.193224660091090D+03
 0.217824717870927D+02 -.143496923128599D+02 -.343924005516219D+01 0.160229221905590D+02
 0.295628127880682D+03 0.803828297942318D+02 -.232470859482809D+03 0.163987469520792D+03
 0.180341422837288D+03 -.150581302671748D+03 0.566256764504811D+02 0.132142683797389D+02
 0.151363850692655D+03 0.838955135534780D+02 0.106141495658383D+03 -.678715036042950D+02
0.226667478205D-04 0.000000000000D+00 0.000000000000D+00 0.268311584378D-05 0.000000000000D+00  7 -2 2 24 -11 11 -24 21 0 0.47717506D-01 0.61916982D-01 0.73999118D+05 0.73999118D+05 0.73999118D+05 0.11326141D+01  1  2  2  2  7  2        2 0.917841147506D-03 0.100000000000D+01
-.115460953823D-05 0.000000000000D+00 -.870462799225D-07 0.268311584378D-05 0.000000000000D+00  7 -2 2 24 -11 11 -24 21 2 0.47717506D-01 0.61916982D-01 0.73999118D+05 0.73999118D+05 0.73999118D+05 0.11326141D+01  1  2  3  2  7  2        2 -.599759887544D-04 0.100000000000D+01
0.134963212883D-05 0.000000000000D+00 0.000000000000D+00 0.268311584378D-05 0.000000000000D+00  7 -2 2 24 -11 11 -24 21 2 0.47717506D-01 0.61916982D-01 0.73999118D+05 0.73999118D+05 0.73999118D+05 0.11326141D+01  1  2 15  2  7  2        2 0.701064028149D-04 0.100000000000D+01
0.110795374667D-04 0.000000000000D+00 0.000000000000D+00 0.268311584378D-05 0.000000000000D+00  7 -2 2 24 -11 11 -24 21 2 0.47717506D-01 0.85382179D-01 0.11716622D+06 0.11716622D+06 0.11716622D+06 0.11161194D+01  1  2 12  2  7  2        2 0.389125009033D-03 0.100000000000D+01
-.172914834879D-04 0.000000000000D+00 0.000000000000D+00 0.268311584378D-05 0.000000000000D+00  7 -2 2 24 -11 11 -24 21 2 0.47717506D-01 0.61916982D-01 0.73999118D+05 0.73999118D+05 0.73999118D+05 0.11326141D+01  1  2  4  2  7  2        2 -.898203059023D-03 0.100000000000D+01
-.229771138453D-04 0.000000000000D+00 -.102779005757D-04 0.268311584378D-05 0.000000000000D+00  7 -2 2 24 -11 11 -24 21 2 0.47717506D-01 0.90966809D-01 0.73999118D+05 0.73999118D+05 0.73999118D+05 0.11326141D+01  1  2  5  2  7  2        2 -.778914987174D-03 0.100000000000D+01
0.257204932559D-04 0.000000000000D+00 0.956160058731D-05 0.268311584378D-05 0.000000000000D+00  7 -2 2 24 -11 11 -24 21 2 0.47717506D-01 0.61916982D-01 0.73999118D+05 0.73999118D+05 0.73999118D+05 0.11326141D+01  1  2  6  2  7  2        2 0.133604648428D-02 0.100000000000D+01
0.450047759718D-06 0.000000000000D+00 0.000000000000D+00 0.268311584378D-05 0.000000000000D+00  7 -2 21 24 -11 11 -24 -2 2 0.47717506D-01 0.85382179D-01 0.11716622D+06 0.11716622D+06 0.11716622D+06 0.11161194D+01  1  2 12  4  7  2        2 0.269199434065D-04 0.100000000000D+01
-.730426010690D-06 0.000000000000D+00 -.475470160863D-06 0.268311584378D-05 0.000000000000D+00  7 -2 21 24 -11 11 -24 -2 2 0.47717506D-01 0.90966809D-01 0.73999118D+05 0.73999118D+05 0.73999118D+05 0.11326141D+01  1  2  5  4  7  2        2 -.395445412313D-04 0.100000000000D+01
  </mgrwgt>
  </event>
  <event>
  7     66 0.27011060E-05 0.33271550E+03 0.75467711E-02 0.94716219E-01
       -2 -1    0    0    0  501 0.00000000E+00 0.00000000E+00 0.21783452E+03 0.21783476E+03 0.32000000E+00 0.0000E+00 0.9000E+01
        2 -1    0    0  501    0 0.00000000E+00 0.00000000E+00 -.12990190E+04 0.12990190E+04 0.32000000E+00 0.0000E+00 0.9000E+01
       25  2    1    2    0    0 0.25817275E+03 0.60167982E+02 -.90419706E+03 0.98942459E+03 0.30185318E+03 0.0000E+00 0.0000E+00
       24  1    3    3    0    0 -.70839007E+00 -.55521251E+02 -.32757519E+03 0.34184182E+03 0.80419002E+02 0.0000E+00 0.9000E+01
      -13  1    1    2    0    0 -.14459841E+03 -.66590262E+02 -.31237158E+03 0.35059803E+03 0.10565837E+00 0.0000E+00 0.9000E+01
       13  1    1    2    0    0 -.11357434E+03 0.64222795E+01 0.13538417E+03 0.17683117E+03 0.10565837E+00 0.0000E+00 0.9000E+01
      -24  1    3    3    0    0 0.25888114E+03 0.11568923E+03 -.57662187E+03 0.64758277E+03 0.80419002E+02 0.0000E+00 0.9000E+01
#aMCatNLO 1  0  0  1  2 0.24617996D+03 0.00000000D+00  -5  7  0 0.00000000D+00 0.00000000D+00 0.00000000D+00 0.00000000D+00 0.00000000D+00
  <mgrwgt>
 0.1019868485D-01    4    2    0
 0.531950551090443D+03 0.000000000000000D+00 0.000000000000000D+00 0.531950551090443D+03
 0.531950551090443D+03 0.000000000000000D+00 0.000000000000000D+00 -.531950551090443D+03
 0.154485844720652D+03 -.704932245207047D+00 -.555204455891316D+02 -.119647998131172D+03
 0.182406975636556D+03 -.144597019893869D+03 -.665873513353464D+02 -.890512843300454D+02
 0.389697923442678D+03 -.113586737979050D+03 0.641680387714982D+01 0.372721543674116D+03
 0.337310358381000D+03 0.258888690118126D+03 0.115690993047328D+03 -.164022261212899D+03
 0.000000000000000D+00 0.000000000000000D+00 -.000000000000000D+00 -.000000000000000D+00
 0.597196525157065D+03 0.000000000000000D+00 0.000000000000000D+00 0.597196525157065D+03
 0.841981405803326D+03 0.000000000000000D+00 0.000000000000000D+00 -.841981405803326D+03
 0.153988820847240D+03 -.334541966605361D+02 -.425501381966534D+02 -.119647998131172D+03
 0.212661042670836D+03 -.186539482072310D+03 -.499760888546798D+02 -.890512843300454D+02
 0.424977967902509D+03 -.200076940113933D+03 0.406711460174856D+02 0.372721543674116D+03
 0.300384131372165D+03 0.191187748056391D+03 0.142503870984520D+03 -.164022261212899D+03
 0.347165968167640D+03 0.228882870790388D+03 -.906487899506729D+02 -.244784880646260D+03
0.634068513719D-03 0.000000000000D+00 0.000000000000D+00 0.400297653141D-10 0.000000000000D+00  7 -2 2 24 -13 13 -24 21 0 0.33513025D-01 0.19984910D+00 0.11069960D+06 0.11069960D+06 0.11069960D+06 0.11181173D+01  1  2  2  1  7  1       -2 0.111597744616D-01 0.100000000000D+01
-.257946023700D-04 0.000000000000D+00 -.243499004676D-05 0.400297653141D-10 0.000000000000D+00  7 -2 2 24 -13 13 -24 21 2 0.33513025D-01 0.19984910D+00 0.11069960D+06 0.11069960D+06 0.11069960D+06 0.11181173D+01  1  2  3  1  7  1       -2 -.567574355135D-03 0.100000000000D+01
0.379511488707D-04 0.000000000000D+00 0.000000000000D+00 0.400297653141D-10 0.000000000000D+00  7 -2 2 24 -13 13 -24 21 2 0.33513025D-01 0.19984910D+00 0.11069960D+06 0.11069960D+06 0.11069960D+06 0.11181173D+01  1  2 15  1  7  1       -2 0.835062255970D-03 0.100000000000D+01
-.558352719828D-04 0.000000000000D+00 0.000000000000D+00 0.400297653141D-10 0.000000000000D+00  7 -2 2 24 -13 13 -24 21 2 0.33513025D-01 0.19984910D+00 0.11069960D+06 0.11069960D+06 0.11069960D+06 0.11181173D+01  1  2  4  1  7  1       -2 -.122857751536D-02 0.100000000000D+01
  </mgrwgt>
  </event>
  <event>
  9     66 0.27011060E-05 0.20368686E+03 0.75467711E-02 0.97879885E-01
       -2 -1    0    0    0  501 0.00000000E+00 0.00000000E+00 0.44951801E+03 0.44951812E+03 0.32000000E+00 0.0000E+00 0.9000E+01
       21 -1    0    0  501  502 0.00000000E+00 0.00000000E+00 -.60158760E+03 0.60158807E+03 0.75000000E+00 0.0000E+00 0.9000E+01
       25  2    1    2    0    0 -.31237454E+03 -.72374368E+02 0.14423312E+03 0.46324986E+03 0.30163113E+03 0.0000E+00 0.0000E+00
       23  2    1    2    0    0 0.35849859E+02 0.25716244E+01 -.28558278E+03 0.30245601E+03 0.92899360E+02 0.0000E+00 0.0000E+00
       24  1    3    3    0    0 -.17953226E+03 -.97668683E+02 0.19927889E+03 0.29656415E+03 0.80419002E+02 0.0000E+00 0.9000E+01
      -11  1    4    4    0    0 0.38909049E+02 -.38372027E+02 -.11997336E+03 0.13183297E+03 0.51099893E-03 0.0000E+00 0.9000E+01
       11  1    4    4    0    0 -.30591897E+01 0.40943652E+02 -.16560942E+03 0.17062304E+03 0.51099893E-03 0.0000E+00 0.9000E+01
      -24  1    3    3    0    0 -.13284228E+03 0.25294315E+02 -.55045766E+02 0.16668571E+03 0.80419002E+02 0.0000E+00 0.9000E+01
       -2  1    1    2    0  502 0.27652468E+03 0.69802743E+02 -.10719942E+02 0.28540031E+03 0.32000000E+00 0.0000E+00 0.9000E+01
#aMCatNLO 2  0  0  2  2 0.28519874D+03 0.00000000D+00  -5  7  0 0.00000000D+00 0.00000000D+00 0.00000000D+00 0.00000000D+00 0.00000000D+00
  <mgrwgt>
 0.7311624275D-05    1    2    0
 0.348205197444396D+03 0.000000000000000D+00 0.000000000000000D+00 0.348205197444396D+03
 0.348205197444396D+03 0.000000000000000D+00 0.000000000000000D+00 -.348205197444396D+03
 0.285444147604285D+03 -.603264068509771D+02 -.675777144189204D+02 0.258466869438874D+03
 0.132203554742414D+03 0.854382405948027D+02 -.266267274649836D+02 -.973093228580931D+02
 0.156876270581307D+03 0.540750775242177D+02 0.553659759539000D+02 -.136457535405420D+03
 0.121886421960785D+03 -.791869112680432D+02 0.388384659300040D+02 -.247000111753607D+02
 0.000000000000000D+00 0.000000000000000D+00 0.000000000000000D+00 0.000000000000000D+00
 0.541811244569203D+03 0.000000000000000D+00 0.000000000000000D+00 0.541811244569203D+03
 0.499112326749471D+03 0.000000000000000D+00 0.000000000000000D+00 -.499112326749471D+03
 0.339180396609690D+03 -.179532256891046D+03 -.976686829439806D+02 0.258466869438874D+03
 0.111603901728355D+03 0.389090489965471D+02 -.383720272083182D+02 -.973093228580931D+02
 0.142500527067772D+03 -.305918973539043D+01 0.409436515693723D+02 -.136457535405420D+03
 0.159261358109023D+03 -.132842279793906D+03 0.252943151608132D+02 -.247000111753607D+02
 0.288377387803835D+03 0.276524677423795D+03 0.698027434221133D+02 0.426989178197320D+02
0.326112498184D-06 0.000000000000D+00 0.000000000000D+00 0.725224938139D-07 0.286855923430D-12  7 -2 21 24 -11 11 -24 -2 2 0.69156649D-01 0.92551967D-01 0.14359179D+06 0.14359179D+06 0.14359179D+06 0.11090514D+01  1  2  1  4  7  2        2 0.731162427471D-05 0.100000000000D+01
  </mgrwgt>
  </event>
  <event>
  8     66 0.27011060E-05 0.22903375E+03 0.75467711E-02 0.10198338E+00
       -2 -1    0    0    0  501 0.00000000E+00 0.00000000E+00 0.99889287E+03 0.99889292E+03 0.32000000E+00 0.0000E+00 0.9000E+01
        2 -1    0    0  501    0 0.00000000E+00 0.00000000E+00 -.74174706E+02 0.74175396E+02 0.32000000E+00 0.0000E+00 0.9000E+01
       25  2    1    2    0    0 -.13722197E+03 -.19420243E+02 0.79798933E+03 0.86394202E+03 0.30066896E+03 0.0000E+00 0.0000E+00
       23  2    1    2    0    0 0.13722197E+03 0.19420243E+02 0.12672883E+03 0.20912629E+03 0.92014114E+02 0.0000E+00 0.0000E+00
       24  1    3    3    0    0 -.18729409E+03 0.11453710E+02 0.35162845E+03 0.40659568E+03 0.80419002E+02 0.0000E+00 0.9000E+01
      -11  1    4    4    0    0 0.10567552E+03 -.15963928E+02 0.12089760E+03 0.16136416E+03 0.51099893E-03 0.0000E+00 0.9000E+01
       11  1    4    4    0    0 0.31546447E+02 0.35384172E+02 0.58312223E+01 0.47762130E+02 0.51099893E-03 0.0000E+00 0.9000E+01
      -24  1    3    3    0    0 0.50072127E+02 -.30873954E+02 0.44636088E+03 0.45734633E+03 0.80419002E+02 0.0000E+00 0.9000E+01
#aMCatNLO 1  0  0  2  2 0.89415180D+02 0.00000000D+00  -5  7  0 0.00000000D+00 0.00000000D+00 0.00000000D+00 0.00000000D+00 0.00000000D+00
  <mgrwgt>
 0.4708538786D-03    4    2    0
 0.272200261532156D+03 0.000000000000000D+00 0.000000000000000D+00 0.272200261532156D+03
 0.272200261532156D+03 0.000000000000000D+00 0.000000000000000D+00 -.272200261532156D+03
 0.204165360064451D+03 -.187294094656984D+03 0.114537104959573D+02 0.245212527654480D+01
 0.112708490328397D+03 0.105675520763338D+03 -.159639284736559D+02 -.357916343744137D+02
 0.842390650539427D+02 0.315464467286932D+02 0.353841716994122D+02 -.696347770377893D+02
 0.143287607617521D+03 0.500721271649531D+02 -.308739537217136D+02 0.102974286135658D+03
 0.000000000000000D+00 0.000000000000000D+00 -.000000000000000D+00 0.000000000000000D+00
 0.344924806702982D+03 0.000000000000000D+00 0.000000000000000D+00 0.344924806702982D+03
 0.304782504801676D+03 0.000000000000000D+00 0.000000000000000D+00 -.304782504801676D+03
 0.237166891908467D+03 -.222168994135518D+03 0.203922482721292D+02 0.245212527654480D+01
 0.967543885831354D+02 0.891233725487713D+02 -.117215649312530D+02 -.357916343744137D+02
 0.817915331523426D+02 0.184263985180303D+02 0.387468780673084D+02 -.696347770377893D+02
 0.135981851814835D+03 0.280037324768494D+02 -.252177602264319D+02 0.102974286135658D+03
 0.980126460458789D+02 0.866154905918669D+02 -.221998011817526D+02 0.401423019013063D+02
0.361673226301D-04 0.000000000000D+00 0.000000000000D+00 0.272340788629D-06 0.000000000000D+00  7 -2 2 24 -11 11 -24 21 0 0.15367588D+00 0.11411550D-01 0.52456459D+05 0.52456459D+05 0.52456459D+05 0.11454678D+01  1  2  2  2  7  2        2 0.706377878898D-03 0.100000000000D+01
-.193645862838D-05 0.000000000000D+00 -.138892041975D-06 0.272340788629D-06 0.000000000000D+00  7 -2 2 24 -11 11 -24 21 2 0.15367588D+00 0.11411550D-01 0.52456459D+05 0.52456459D+05 0.52456459D+05 0.11454678D+01  1  2  3  2  7  2        2 -.496243357557D-04 0.100000000000D+01
0.220736984800D-05 0.000000000000D+00 0.000000000000D+00 0.272340788629D-06 0.000000000000D+00  7 -2 2 24 -11 11 -24 21 2 0.15367588D+00 0.11411550D-01 0.52456459D+05 0.52456459D+05 0.52456459D+05 0.11454678D+01  1  2 15  2  7  2        2 0.565667971777D-04 0.100000000000D+01
-.946161323215D-05 0.000000000000D+00 0.000000000000D+00 0.272340788629D-06 0.000000000000D+00  7 -2 2 24 -11 11 -24 21 2 0.15367588D+00 0.11411550D-01 0.52456459D+05 0.52456459D+05 0.52456459D+05 0.11454678D+01  1  2  4  2  7  2        2 -.242466461686D-03 0.100000000000D+01
  </mgrwgt>
  </event>
  <event>
  8     66 0.27011060E-05 0.38566170E+03 0.75467711E-02 0.94756858E-01
       -2 -1    0    0    0  501 0.00000000E+00 0.00000000E+00 0.18496733E+03 0.18496761E+03 0.32000000E+00 0.0000E+00 0.9000E+01
        2 -1    0    0  501    0 0.00000000E+00 0.00000000E+00 -.17025457E+04 0.17025457E+04 0.32000000E+00 0.0000E+00 0.9000E+01
       25  2    1    2    0    0 -.26386884E+02 -.32285592E+03 -.14788560E+04 0.15436415E+04 0.30146613E+03 0.0000E+00 0.0000E+00
       23  2    1    2    0    0 0.26386884E+02 0.32285592E+03 -.38722356E+02 0.34387182E+03 0.10870232E+03 0.0000E+00 0.0000E+00
       24  1    3    3    0    0 0.10153388E+03 -.11306425E+03 -.77398206E+03 0.79284810E+03 0.80419002E+02 0.0000E+00 0.9000E+01
      -11  1    4    4    0    0 -.11225864E+02 0.29196425E+03 -.41538358E+02 0.29511791E+03 0.51099893E-03 0.0000E+00 0.9000E+01
       11  1    4    4    0    0 0.37612748E+02 0.30891669E+02 0.28160026E+01 0.48753911E+02 0.51099893E-03 0.0000E+00 0.9000E+01
      -24  1    3    3    0    0 -.12792076E+03 -.20979167E+03 -.70487390E+03 0.75079338E+03 0.80419002E+02 0.0000E+00 0.9000E+01
#aMCatNLO 1  0  0  1  2 0.21055917D+03 0.00000000D+00  -5  7  0 0.00000000D+00 0.00000000D+00 0.00000000D+00 0.00000000D+00 0.00000000D+00
  <mgrwgt>
 0.1019540889D-02    4    2    0
 0.561173431613982D+03 0.000000000000000D+00 0.000000000000000D+00 0.561173431613982D+03
 0.561173431613982D+03 0.000000000000000D+00 0.000000000000000D+00 -.561173431613982D+03
 0.286839063875010D+03 0.101533878784040D+03 -.113064251221932D+03 -.229601348351906D+03
 0.440150259208527D+03 -.112258637704463D+02 0.291964251648358D+03 0.329185519765611D+03
 0.857998215420813D+02 0.376127477938774D+02 0.308916689361175D+02 0.706583000813669D+02
 0.309557718602345D+03 -.127920762807471D+03 -.209791669362543D+03 -.170242471495072D+03
 0.000000000000000D+00 0.000000000000000D+00 0.000000000000000D+00 -.000000000000000D+00
 0.612135714028279D+03 0.000000000000000D+00 0.000000000000000D+00 0.612135714028279D+03
 0.840169736021064D+03 0.000000000000000D+00 0.000000000000000D+00 -.840169736021064D+03
 0.295569290501684D+03 0.663130871002762D+02 -.154206954601652D+03 -.229601348351906D+03
 0.407588743050493D+03 -.624923653176659D+02 0.232077963872334D+03 0.329185519765611D+03
 0.783051816158076D+02 0.276885973467686D+02 0.192989034523893D+02 0.706583000813669D+02
 0.360463948412438D+03 -.168439916387936D+03 -.257123584327048D+03 -.170242471495072D+03
 0.310378286468921D+03 0.136930597258557D+03 0.159953671603977D+03 -.228034021992785D+03
0.795903467562D-04 0.000000000000D+00 0.000000000000D+00 0.701333679276D-08 0.000000000000D+00  7 -2 2 24 -11 11 -24 21 0 0.28456537D-01 0.26193012D+00 0.14873495D+06 0.14873495D+06 0.14873495D+06 0.11078423D+01  1  2  2  1  7  1       -2 0.111836286409D-02 0.100000000000D+01
-.366538829677D-05 0.000000000000D+00 -.305647888163D-06 0.701333679276D-08 0.000000000000D+00  7 -2 2 24 -11 11 -24 21 2 0.28456537D-01 0.26193012D+00 0.14873495D+06 0.14873495D+06 0.14873495D+06 0.11078423D+01  1  2  3  1  7  1       -2 -.632118062039D-04 0.100000000000D+01
0.448898308260D-05 0.000000000000D+00 0.000000000000D+00 0.701333679276D-08 0.000000000000D+00  7 -2 2 24 -11 11 -24 21 2 0.28456537D-01 0.26193012D+00 0.14873495D+06 0.14873495D+06 0.14873495D+06 0.11078423D+01  1  2 15  1  7  1       -2 0.774151892502D-04 0.100000000000D+01
-.655386786090D-05 0.000000000000D+00 0.000000000000D+00 0.701333679276D-08 0.000000000000D+00  7 -2 2 24 -11 11 -24 21 2 0.28456537D-01 0.26193012D+00 0.14873495D+06 0.14873495D+06 0.14873495D+06 0.11078423D+01  1  2  4  1  7  1       -2 -.113025358180D-03 0.100000000000D+01
  </mgrwgt>
  </event>
  <event>
  8     66 0.27011060E-05 0.26538008E+03 0.75467711E-02 0.95075115E-01
       -2 -1    0    0    0  501 0.00000000E+00 0.00000000E+00 0.69088782E+03 0.69088789E+03 0.32000000E+00 0.0000E+00 0.9000E+01
        2 -1    0    0  501    0 0.00000000E+00 0.00000000E+00 -.12170006E+03 0.12170048E+03 0.32000000E+00 0.0000E+00 0.9000E+01
       25  2    1    2    0    0 -.15017359E+03 -.13175663E+03 0.33781165E+03 0.49364665E+03 0.29943010E+03 0.0000E+00 0.0000E+00
       23  2    1    2    0    0 0.15017359E+03 0.13175663E+03 0.23137610E+03 0.31894172E+03 0.90978049E+02 0.0000E+00 0.0000E+00
       24  1    3    3    0    0 -.56044264E+02 -.16301762E+03 0.30882727E+03 0.36270815E+03 0.80419002E+02 0.0000E+00 0.9000E+01
      -13  1    4    4    0    0 0.10070142E+03 0.12852072E+03 0.20715286E+03 0.26376252E+03 0.10565837E+00 0.0000E+00 0.9000E+01
       13  1    4    4    0    0 0.49472176E+02 0.32359011E+01 0.24223248E+02 0.55179200E+02 0.10565837E+00 0.0000E+00 0.9000E+01
      -24  1    3    3    0    0 -.94129328E+02 0.31260994E+02 0.28984381E+02 0.13093850E+03 0.80419002E+02 0.0000E+00 0.9000E+01
#aMCatNLO 1  0  0  1  2 0.33589940D+03 0.00000000D+00  -5  7  0 0.00000000D+00 0.00000000D+00 0.00000000D+00 0.00000000D+00 0.00000000D+00
  <mgrwgt>
 0.7208766750D-03    3    2    0
 0.289967741100472D+03 0.000000000000000D+00 0.000000000000000D+00 0.289967741100472D+03
 0.289967741100472D+03 0.000000000000000D+00 0.000000000000000D+00 -.289967741100472D+03
 0.205111998106524D+03 -.560442646521248D+02 -.163017619613917D+03 0.767333819657072D+02
 0.166262596581856D+03 0.100701486925956D+03 0.128520892900377D+03 0.313821866850081D+02
 0.535409762239778D+02 0.494721062702508D+02 0.323573316314409D+01 -.202157578907765D+02
 0.155019911288586D+03 -.941293285440816D+02 0.312609935503962D+02 -.878998107599387D+02
 0.000000000000000D+00 0.000000000000000D+00 -.000000000000000D+00 -.000000000000000D+00
 0.491168788689265D+03 0.000000000000000D+00 0.000000000000000D+00 0.491168788689265D+03
 0.515823409573852D+03 0.000000000000000D+00 0.000000000000000D+00 -.515823409573852D+03
 0.157688408014958D+03 -.868174319020696D+02 -.705204911919636D+02 0.767333819657072D+02
 0.244358059505320D+03 0.658721484995218D+02 0.233209947592571D+03 0.313821866850081D+02
 0.546060916315071D+02 0.402989417683523D+02 0.308081753520233D+02 -.202157578907765D+02
 0.213536645330407D+03 -.125390739409488D+03 0.125225671023565D+03 -.878998107599387D+02
 0.336802993780925D+03 0.106037081043684D+03 -.318723302776196D+03 -.246546208845867D+02
0.258921968526D-04 0.000000000000D+00 0.000000000000D+00 0.488805068029D-06 0.000000000000D+00  7 -2 2 24 -13 13 -24 21 0 0.10629047D+00 0.18723124D-01 0.70426587D+05 0.70426587D+05 0.70426587D+05 0.11344354D+01  1  2  2  1  7  1       -2 0.712683551034D-03 0.100000000000D+01
-.142472412778D-05 0.000000000000D+00 -.994328534862D-07 0.488805068029D-06 0.000000000000D+00  7 -2 2 24 -13 13 -24 21 2 0.10629047D+00 0.18723124D-01 0.70426587D+05 0.70426587D+05 0.70426587D+05 0.11344354D+01  1  2  3  1  7  1       -2 -.504682377243D-04 0.100000000000D+01
0.165601695466D-05 0.000000000000D+00 0.000000000000D+00 0.488805068029D-06 0.000000000000D+00  7 -2 2 24 -13 13 -24 21 2 0.10629047D+00 0.18723124D-01 0.70426587D+05 0.70426587D+05 0.70426587D+05 0.11344354D+01  1  2 15  1  7  1       -2 0.586613616722D-04 0.100000000000D+01
  </mgrwgt>
  </event>
  <event>
  8     66 0.27011060E-05 0.22544679E+03 0.75467711E-02 0.90706411E-01
       -2 -1    0    0    0  501 0.00000000E+00 0.00000000E+00 0.27074228E+03 0.27074247E+03 0.32000000E+00 0.0000E+00 0.9000E+01
        2 -1    0    0  501    0 0.00000000E+00 0.00000000E+00 -.33674534E+03 0.33674549E+03 0.32000000E+00 0.0000E+00 0.9000E+01
       25  2    1    2    0    0 0.40102947E+02 0.12723197E+03 -.20569362E+03 0.39335752E+03 0.30761022E+03 0.0000E+00 0.0000E+00
       23  2    1    2    0    0 -.40102947E+02 -.12723197E+03 0.13969055E+03 0.21413044E+03 0.92423888E+02 0.0000E+00 0.0000E+00
       24  1    3    3    0    0 -.76183359E+02 0.10980305E+03 -.16955364E+02 0.15689268E+03 0.80419002E+02 0.0000E+00 0.9000E+01
      -13  1    4    4    0    0 0.17620323E+02 -.66009259E+02 0.99962216E+02 0.12107912E+03 0.10565837E+00 0.0000E+00 0.9000E+01
       13  1    4    4    0    0 -.57723269E+02 -.61222715E+02 0.39728338E+02 0.93051322E+02 0.10565837E+00 0.0000E+00 0.9000E+01
      -24  1    3    3    0    0 0.11628631E+03 0.17428926E+02 -.18873826E+03 0.23646483E+03 0.80419002E+02 0.0000E+00 0.9000E+01
#aMCatNLO 1  0  0  2  2 0.65594846D+03 0.00000000D+00  -5  7  0 0.00000000D+00 0.00000000D+00 0.00000000D+00 0.00000000D+00 0.00000000D+00
  <mgrwgt>
 0.7121537557D-03    3    2    0
 0.301945862935346D+03 0.000000000000000D+00 0.000000000000000D+00 0.301945862935346D+03
 0.301945862935346D+03 0.000000000000000D+00 0.000000000000000D+00 -.301945862935346D+03
 0.155973836684384D+03 -.761833591761182D+02 0.109803047314915D+03 0.914367410173043D-01
 0.132725694632766D+03 0.176204172961304D+02 -.660092661896748D+02 0.113791070331380D+03
 0.979475616900881D+02 -.577233642191361D+02 -.612227082931778D+02 0.501349982896880D+02
 0.217244632863454D+03 0.116286306099124D+03 0.174289271679377D+02 -.164017505362086D+03
 0.000000000000000D+00 -.000000000000000D+00 -.000000000000000D+00 0.000000000000000D+00
 0.153192990351319D+04 0.000000000000000D+00 0.000000000000000D+00 0.153192990351319D+04
 0.544837974665284D+03 0.000000000000000D+00 0.000000000000000D+00 -.544837974665284D+03
 0.245357708958975D+03 0.572436285539687D+02 0.224624905165309D+03 0.914367410173043D-01
 0.163698567641915D+03 0.116169850638135D+03 0.187983819401268D+02 0.113791070331380D+03
 0.537109078050127D+02 -.730287530379785D+01 -.178328790729017D+02 0.501349982896880D+02
 0.428834520176623D+03 0.331082267595628D+03 0.202273625960676D+03 -.164017505362086D+03
 0.118516617359595D+04 -.497192871483933D+03 -.427864033993210D+03 0.987091928847907D+03
0.110411215991D-04 0.000000000000D+00 0.000000000000D+00 0.404510029068D-08 0.000000000000D+00  7 -2 2 24 -13 13 -24 21 0 0.41652684D-01 0.51807002D-01 0.50826254D+05 0.50826254D+05 0.50826254D+05 0.11466698D+01  1  2  2  2  7  2        2 0.703247647439D-03 0.100000000000D+01
-.549734512668D-06 0.000000000000D+00 -.424008141347D-07 0.404510029068D-08 0.000000000000D+00  7 -2 2 24 -13 13 -24 21 2 0.41652684D-01 0.51807002D-01 0.50826254D+05 0.50826254D+05 0.50826254D+05 0.11466698D+01  1  2  3  2  7  2        2 -.460388911137D-04 0.100000000000D+01
0.656079278532D-06 0.000000000000D+00 0.000000000000D+00 0.404510029068D-08 0.000000000000D+00  7 -2 2 24 -13 13 -24 21 2 0.41652684D-01 0.51807002D-01 0.50826254D+05 0.50826254D+05 0.50826254D+05 0.11466698D+01  1  2 15  2  7  2        2 0.549449993957D-04 0.100000000000D+01
  </mgrwgt>
  </event>
  <event>
  8     66 0.27011060E-05 0.36737775E+03 0.75467711E-02 0.95018676E-01
       -2 -1    0    0    0  501 0.00000000E+00 0.00000000E+00 0.20096278E+03 0.20096304E+03 0.32000000E+00 0.0000E+00 0.9000E+01
        2 -1    0    0  501    0 0.00000000E+00 0.00000000E+00 -.13929792E+04 0.13929793E+04 0.32000000E+00 0.0000E+00 0.9000E+01
       25  2    1    2    0    0 0.32432690E+03 0.29344655E+03 -.94461803E+03 0.10831979E+04 0.29952556E+03 0.0000E+00 0.0000E+00
       23  2    1    2    0    0 -.32432690E+03 -.29344655E+03 -.24739844E+03 0.51074447E+03 0.91406269E+02 0.0000E+00 0.0000E+00
       24  1    3    3    0    0 0.27153035E+03 0.89411852E+02 -.44468346E+03 0.53472779E+03 0.80419002E+02 0.0000E+00 0.9000E+01
      -11  1    4    4    0    0 -.30814985E+03 -.28856614E+03 -.25390212E+03 0.49263885E+03 0.51099893E-03 0.0000E+00 0.9000E+01
       11  1    4    4    0    0 -.16177053E+02 -.48804054E+01 0.65036851E+01 0.18105616E+02 0.51099893E-03 0.0000E+00 0.9000E+01
      -24  1    3    3    0    0 0.52796559E+02 0.20403469E+03 -.49993457E+03 0.54847007E+03 0.80419002E+02 0.0000E+00 0.9000E+01
#aMCatNLO 1  0  0  2  1 0.44141910D+01 0.00000000D+00  -5  7  0 0.00000000D+00 0.00000000D+00 0.00000000D+00 0.00000000D+00 0.00000000D+00
  <mgrwgt>
 0.2157347699D-02   10    2    0
 0.529090935649437D+03 0.000000000000000D+00 0.000000000000000D+00 0.529090935649437D+03
 0.529090935649437D+03 0.000000000000000D+00 0.000000000000000D+00 -.529090935649437D+03
 0.304536723925735D+03 0.271530345450444D+03 0.894118518964710D+02 -.674699377875425D+02
 0.456048637092018D+03 -.308149850720345D+03 -.288566140186682D+03 0.172492352387800D+03
 0.345987855649517D+02 -.161770534562955D+02 -.488040539509205D+01 0.301920609965803D+02
 0.262997724716170D+03 0.527965587261970D+02 0.204034693685303D+03 -.135214475596838D+03
 0.000000000000000D+00 0.000000000000000D+00 0.000000000000000D+00 -.000000000000000D+00
 0.530429242068548D+03 0.000000000000000D+00 0.000000000000000D+00 0.530429242068548D+03
 0.532747979344026D+03 0.000000000000000D+00 0.000000000000000D+00 -.532747979344026D+03
 0.303531197768331D+03 0.270723783456728D+03 0.884330969158435D+02 -.674699377875425D+02
 0.457799054019667D+03 -.309362009410844D+03 -.290037082736518D+03 0.172492352387800D+03
 0.346577135826658D+02 -.162689176346830D+02 -.499188166454023D+01 0.301920609965803D+02
 0.262203112756485D+03 0.520999144542993D+02 0.203189322770037D+03 -.135214475596838D+03
 0.498614328542466D+01 0.280722913449986D+01 0.340654471517782D+01 -.231873727547876D+01
0.393051117736D-04 0.000000000000D+00 0.000000000000D+00 0.456662683846D-05 0.000000000000D+00  7 -2 2 24 -11 11 -24 21 0 0.30917374D-01 0.21430452D+00 0.23117428D+06 0.23117428D+06 0.23117428D+06 0.10930262D+01  1  2  2  2  7  2        2 0.692980107694D-03 0.100000000000D+01
-.215930355055D-05 0.000000000000D+00 -.150941978484D-06 0.456662683846D-05 0.000000000000D+00  7 -2 2 24 -11 11 -24 21 2 0.30917374D-01 0.21430452D+00 0.23117428D+06 0.23117428D+06 0.23117428D+06 0.10930262D+01  1  2  3  2  7  2        2 -.454827360608D-04 0.100000000000D+01
0.245548491741D-05 0.000000000000D+00 0.000000000000D+00 0.456662683846D-05 0.000000000000D+00  7 -2 2 24 -11 11 -24 21 2 0.30917374D-01 0.21430452D+00 0.23117428D+06 0.23117428D+06 0.23117428D+06 0.10930262D+01  1  2 15  2  7  2        2 0.517213859864D-04 0.100000000000D+01
-.908532331791D-03 0.000000000000D+00 0.000000000000D+00 0.456662683846D-05 0.000000000000D+00  7 -2 2 24 -11 11 -24 21 2 0.30917374D-01 0.21430452D+00 0.23117428D+06 0.23117428D+06 0.23117428D+06 0.10930262D+01  1  2  4  2  7  2        2 -.191369741596D-01 0.100000000000D+01
-.572446479238D-02 0.000000000000D+00 -.541124375397D-03 0.456662683846D-05 0.000000000000D+00  7 -2 2 24 -11 11 -24 21 2 0.30917374D-01 0.21607539D+00 0.23117428D+06 0.23117428D+06 0.23117428D+06 0.10930262D+01  1  2  5  2  7  2        2 -.118818417190D+00 0.100000000000D+01
0.572874225138D-02 0.000000000000D+00 0.541106052694D-03 0.456662683846D-05 0.000000000000D+00  7 -2 2 24 -11 11 -24 21 2 0.30917374D-01 0.21430452D+00 0.23117428D+06 0.23117428D+06 0.23117428D+06 0.10930262D+01  1  2  6  2  7  2        2 0.120668014330D+00 0.100000000000D+01
0.908574937675D-03 0.000000000000D+00 0.000000000000D+00 0.456662683846D-05 0.149255798828D-05  7 -2 2 24 -11 11 -24 21 2 0.30995577D-01 0.21578578D+00 0.23332685D+06 0.23332685D+06 0.23332685D+06 0.10927213D+01  1  2 11  2  7  2        2 0.188030908674D-01 0.100000000000D+01
0.340516104552D-06 0.000000000000D+00 0.000000000000D+00 0.456662683846D-05 0.000000000000D+00  7 -2 21 24 -11 11 -24 -2 2 0.30917374D-01 0.21605553D+00 0.23332685D+06 0.23332685D+06 0.23332685D+06 0.10927213D+01  1  2 12  4  7  2        2 0.281668819239D-05 0.100000000000D+01
-.871126367176D-05 0.000000000000D+00 -.824747356348D-06 0.456662683846D-05 0.000000000000D+00  7 -2 21 24 -11 11 -24 -2 2 0.30917374D-01 0.21607539D+00 0.23117428D+06 0.23117428D+06 0.23117428D+06 0.10930262D+01  1  2  5  4  7  2        2 -.721267362399D-04 0.100000000000D+01
0.141754456034D-05 0.000000000000D+00 0.000000000000D+00 0.456662683846D-05 0.190545706493D-08  7 -2 21 24 -11 11 -24 -2 2 0.30995577D-01 0.21578578D+00 0.23332685D+06 0.23332685D+06 0.23332685D+06 0.10927213D+01  1  2 11  4  7  2        2 0.117251418078D-04 0.100000000000D+01
  </mgrwgt>
  </event>
  <event>
  8     66 0.27011060E-05 0.27334182E+03 0.75467711E-02 0.96624475E-01
       -2 -1    0    0    0  501 0.00000000E+00 0.00000000E+00 0.91133767E+03 0.91133773E+03 0.32000000E+00 0.0000E+00 0.9000E+01
        2 -1    0    0  501    0 0.00000000E+00 0.00000000E+00 -.10178423E+03 0.10178473E+03 0.32000000E+00 0.0000E+00 0.9000E+01
       25  2    1    2    0    0 0.32427257E+02 0.17608998E+03 0.28353254E+03 0.44945596E+03 0.29926703E+03 0.0000E+00 0.0000E+00
       23  2    1    2    0    0 -.32427257E+02 -.17608998E+03 0.52602091E+03 0.56366650E+03 0.94671648E+02 0.0000E+00 0.0000E+00
       24  1    3    3    0    0 -.51084694E+02 0.20763618E+03 0.19177100E+03 0.29827129E+03 0.80419002E+02 0.0000E+00 0.9000E+01
      -13  1    4    4    0    0 0.28961718E+02 -.48476638E+02 0.10152320E+03 0.11617115E+03 0.10565837E+00 0.0000E+00 0.9000E+01
       13  1    4    4    0    0 -.61388975E+02 -.12761334E+03 0.42449771E+03 0.44749535E+03 0.10565837E+00 0.0000E+00 0.9000E+01
      -24  1    3    3    0    0 0.83511951E+02 -.31546203E+02 0.91761536E+02 0.15118467E+03 0.80419002E+02 0.0000E+00 0.9000E+01
#aMCatNLO 1  0  0  2  1 0.24550458D+03 0.00000000D+00  -5  7  0 0.00000000D+00 0.00000000D+00 0.00000000D+00 0.00000000D+00 0.00000000D+00
  <mgrwgt>
 0.7388916297D-03    3    2    0
 0.304565405744822D+03 0.000000000000000D+00 0.000000000000000D+00 0.304565405744822D+03
 0.304565405744822D+03 0.000000000000000D+00 0.000000000000000D+00 -.304565405744822D+03
 0.241223185900435D+03 -.510846927527033D+02 0.207636189147541D+03 -.774530605220608D+02
 0.582913424968101D+02 0.289618150441207D+02 -.484765395985680D+02 0.144609469945444D+02
 0.180115827621225D+03 -.613890739413412D+02 -.127613449722223D+03 0.111300945235416D+03
 0.129500455471173D+03 0.835119516499238D+02 -.315461998267499D+02 -.483088317079001D+02
 0.000000000000000D+00 -.000000000000000D+00 0.000000000000000D+00 0.000000000000000D+00
 0.860837896504886D+03 0.000000000000000D+00 0.000000000000000D+00 0.860837896504886D+03
 0.356670827313074D+03 0.000000000000000D+00 0.000000000000000D+00 -.356670827313074D+03
 0.224957934053032D+03 0.378902528902619D+02 0.191583423841197D+03 -.774530605220608D+02
 0.778040938362178D+02 0.549368782367173D+02 -.531629329448635D+02 0.144609469945444D+02
 0.178977703716085D+03 0.714722249783399D+01 -.139978695620983D+03 0.111300945235416D+03
 0.175004393975369D+03 0.141629497101421D+03 -.420317057247509D+02 -.483088317079001D+02
 0.560764598237257D+03 -.241603850726234D+03 0.435899104494000D+02 0.504167069191812D+03
0.431975036511D-04 0.000000000000D+00 0.000000000000D+00 0.459081240865D-07 0.000000000000D+00  7 -2 2 24 -13 13 -24 21 0 0.14020584D+00 0.15659155D-01 0.74715752D+05 0.74715752D+05 0.74715752D+05 0.11322605D+01  1  2  2  2  7  2        2 0.728624009108D-03 0.100000000000D+01
-.236572449082D-05 0.000000000000D+00 -.165889788184D-06 0.459081240865D-07 0.000000000000D+00  7 -2 2 24 -13 13 -24 21 2 0.14020584D+00 0.15659155D-01 0.74715752D+05 0.74715752D+05 0.74715752D+05 0.11322605D+01  1  2  3  2  7  2        2 -.511566013548D-04 0.100000000000D+01
0.284054808811D-05 0.000000000000D+00 0.000000000000D+00 0.459081240865D-07 0.000000000000D+00  7 -2 2 24 -13 13 -24 21 2 0.14020584D+00 0.15659155D-01 0.74715752D+05 0.74715752D+05 0.74715752D+05 0.11322605D+01  1  2 15  2  7  2        2 0.614242219400D-04 0.100000000000D+01
  </mgrwgt>
  </event>
  <event>
  9     66 0.27011060E-05 0.23194397E+03 0.75467711E-02 0.10226686E+00
       -2 -1    0    0    0  501 0.00000000E+00 0.00000000E+00 0.90243869E+03 0.90243875E+03 0.32000000E+00 0.0000E+00 0.9000E+01
        2 -1    0    0  502    0 0.00000000E+00 0.00000000E+00 -.11690028E+03 0.11690072E+03 0.32000000E+00 0.0000E+00 0.9000E+01
       25  2    1    2    0    0 -.16330979E+03 -.66390520E+02 0.22651016E+03 0.41809965E+03 0.30401098E+03 0.0000E+00 0.0000E+00
       23  2    1    2    0    0 0.11022011E+03 0.21492265E+02 0.44306929E+03 0.46603105E+03 0.90907384E+02 0.0000E+00 0.0000E+00
       24  1    3    3    0    0 0.34687012E+02 -.76421379E+02 0.15244097E+03 0.19169998E+03 0.80419002E+02 0.0000E+00 0.9000E+01
      -13  1    4    4    0    0 0.81332219E+02 -.22362791E+02 0.34059185E+03 0.35088152E+03 0.10565837E+00 0.0000E+00 0.9000E+01
       13  1    4    4    0    0 0.28887889E+02 0.43855056E+02 0.10247744E+03 0.11514952E+03 0.10565837E+00 0.0000E+00 0.9000E+01
      -24  1    3    3    0    0 -.19799680E+03 0.10030860E+02 0.74069190E+02 0.22639968E+03 0.80419002E+02 0.0000E+00 0.9000E+01
       21  1    1    2  502  501 0.53089683E+02 0.44898255E+02 0.11595896E+03 0.13520877E+03 0.75000000E+00 0.0000E+00 0.9000E+01
#aMCatNLO 2  0  0  2  1 0.69529617D+02 0.00000000D+00  -5  7  0 0.00000000D+00 0.00000000D+00 0.00000000D+00 0.00000000D+00 0.00000000D+00
  <mgrwgt>
 0.2612118098D-03    1    2    0
 0.286581615146416D+03 0.000000000000000D+00 0.000000000000000D+00 0.286581615146416D+03
 0.286581615146416D+03 0.000000000000000D+00 0.000000000000000D+00 -.286581615146416D+03
 0.114848313619486D+03 0.453745539666914D+02 -.673828628606333D+02 0.111184005998249D+02
 0.149147287703063D+03 0.947817849490705D+02 -.109885632744526D+02 0.114632360824558D+03
 0.640184817476132D+02 0.344944870108345D+02 0.485967370532653D+02 0.233848993776891D+02
 0.245149147222670D+03 -.174650825926596D+03 0.297746890818206D+02 -.149135660802072D+03
 0.000000000000000D+00 0.000000000000000D+00 0.000000000000000D+00 0.000000000000000D+00
 0.335348012156389D+03 0.000000000000000D+00 0.000000000000000D+00 0.335348012156389D+03
 0.314581615177248D+03 0.000000000000000D+00 0.000000000000000D+00 -.314581615177248D+03
 0.116765794710985D+03 0.346870122007374D+02 -.764213792914328D+02 0.111184005998249D+02
 0.142322232931477D+03 0.813322904526490D+02 -.223628792447632D+02 0.114632360824558D+03
 0.574859397656836D+02 0.288878182762227D+02 0.438551445907899D+02 0.233848993776891D+02
 0.260791130472674D+03 -.197996803803005D+03 0.100308593733649D+02 -.149135660802072D+03
 0.725645294528181D+02 0.530896828733964D+02 0.448982545720412D+02 0.207663969791416D+02
0.138634512278D-04 0.000000000000D+00 0.000000000000D+00 0.244250438850D-07 0.352793475241D-10  7 -2 2 24 -13 13 -24 21 2 0.13883592D+00 0.17984588D-01 0.71977028D+05 0.71977028D+05 0.71977028D+05 0.11336328D+01  1  2  1  2  7  2        2 0.261211809802D-03 0.100000000000D+01
  </mgrwgt>
  </event>
  <event>
  7     66 0.27011060E-05 0.17331005E+03 0.75467711E-02 0.92106997E-01
       -2 -1    0    0    0  501 0.00000000E+00 0.00000000E+00 0.33199716E+03 0.33199732E+03 0.32000000E+00 0.0000E+00 0.9000E+01
        2 -1    0    0  501    0 0.00000000E+00 0.00000000E+00 -.47140504E+03 0.47140515E+03 0.32000000E+00 0.0000E+00 0.9000E+01
       25  2    1    2    0    0 0.12705311E+03 -.17161628E+02 -.37677414E+03 0.49757198E+03 0.29863374E+03 0.0000E+00 0.0000E+00
       24  1    3    3    0    0 0.35308654E+02 -.94660433E+01 0.12807936E+02 0.89261224E+02 0.80419002E+02 0.0000E+00 0.9000E+01
      -13  1    1    2    0    0 -.52248876E+02 -.15376355E+02 -.39351106E+00 0.54465984E+02 0.10565837E+00 0.0000E+00 0.9000E+01
       13  1    1    2    0    0 -.74804229E+02 0.32537983E+02 0.23775977E+03 0.25136450E+03 0.10565837E+00 0.0000E+00 0.9000E+01
      -24  1    3    3    0    0 0.91744452E+02 -.76955848E+01 -.38958207E+03 0.40831076E+03 0.80419002E+02 0.0000E+00 0.9000E+01
#aMCatNLO 1  0  0  1  1 0.57316157D+03 0.00000000D+00  -5  7  0 0.00000000D+00 0.00000000D+00 0.00000000D+00 0.00000000D+00 0.00000000D+00
  <mgrwgt>
 0.1525762059D-02    3    2    0
 0.395607432948202D+03 0.000000000000000D+00 0.000000000000000D+00 0.395607432948202D+03
 0.395607432948202D+03 0.000000000000000D+00 0.000000000000000D+00 -.395607432948202D+03
 0.928928577338264D+02 0.353086731018267D+02 -.946604595964260D+01 0.287325362831870D+02
 0.552353207317073D+02 -.522486677878884D+02 -.153762605993587D+02 0.919717242994037D+01
 0.297128578886895D+03 -.748045297798814D+02 0.325379012159027D+02 0.285711322317162D+03
 0.345958108543975D+03 0.917445244659431D+02 -.769559465690136D+01 -.323641031030289D+03
 0.000000000000000D+00 -.000000000000000D+00 -.000000000000000D+00 -.000000000000000D+00
 0.683313221804995D+03 0.000000000000000D+00 0.000000000000000D+00 0.683313221804995D+03
 0.910080813011190D+03 0.000000000000000D+00 0.000000000000000D+00 -.910080813011190D+03
 0.134080421008120D+03 0.100289322359712D+03 0.250367035112287D+02 0.287325362831870D+02
 0.295525359003292D+02 -.279745770064874D+02 -.248745627947532D+01 0.919717242994037D+01
 0.330091618792405D+03 0.104763637445647D+03 0.127883139490420D+03 0.285711322317162D+03
 0.483278571590639D+03 0.329148408140126D+03 0.118358650958814D+03 -.323641031030289D+03
 0.616390887524692D+03 -.506226790938998D+03 -.268791037680987D+03 -.226767591206195D+03
0.476122239009D-04 0.000000000000D+00 0.000000000000D+00 0.530686958079D-09 0.000000000000D+00  7 -2 2 24 -13 13 -24 21 0 0.51076507D-01 0.72523873D-01 0.30036372D+05 0.30036372D+05 0.30036372D+05 0.11672871D+01  1  2  2  1  7  1       -2 0.143732226605D-02 0.100000000000D+01
-.454370172855D-06 0.000000000000D+00 -.182843476366D-06 0.530686958079D-09 0.000000000000D+00  7 -2 2 24 -13 13 -24 21 2 0.51076507D-01 0.72523873D-01 0.30036372D+05 0.30036372D+05 0.30036372D+05 0.11672871D+01  1  2  3  1  7  1       -2 -.186896371979D-04 0.100000000000D+01
0.260446028977D-05 0.000000000000D+00 0.000000000000D+00 0.530686958079D-09 0.000000000000D+00  7 -2 2 24 -13 13 -24 21 2 0.51076507D-01 0.72523873D-01 0.30036372D+05 0.30036372D+05 0.30036372D+05 0.11672871D+01  1  2 15  1  7  1       -2 0.107129430628D-03 0.100000000000D+01
  </mgrwgt>
  </event>
  <event>
  8     66 0.27011060E-05 0.30952615E+03 0.75467711E-02 0.98086270E-01
       -2 -1    0    0    0  501 0.00000000E+00 0.00000000E+00 0.12727530E+03 0.12727570E+03 0.32000000E+00 0.0000E+00 0.9000E+01
        2 -1    0    0  501    0 0.00000000E+00 0.00000000E+00 -.15640585E+04 0.15640585E+04 0.32000000E+00 0.0000E+00 0.9000E+01
       25  2    1    2    0    0 -.20053489E+03 -.19447555E+03 -.27694589E+03 0.49483260E+03 0.30020876E+03 0.0000E+00 0.0000E+00
       23  2    1    2    0    0 0.20053489E+03 0.19447555E+03 -.11598373E+04 0.11965016E+04 0.91425260E+02 0.0000E+00 0.0000E+00
       24  1    3    3    0    0 -.14258599E+03 -.16429725E+03 -.30901361E+03 0.38636897E+03 0.80419002E+02 0.0000E+00 0.9000E+01
      -11  1    4    4    0    0 0.40451688E+01 0.21033658E+02 -.31276590E+02 0.37907825E+02 0.51099893E-03 0.0000E+00 0.9000E+01
       11  1    4    4    0    0 0.19648972E+03 0.17344189E+03 -.11285607E+04 0.11585938E+04 0.51099893E-03 0.0000E+00 0.9000E+01
      -24  1    3    3    0    0 -.57948899E+02 -.30178300E+02 0.32067726E+02 0.10846363E+03 0.80419002E+02 0.0000E+00 0.9000E+01
#aMCatNLO 1  0  0  2  1 0.11199015D+03 0.00000000D+00  -5  7  0 0.00000000D+00 0.00000000D+00 0.00000000D+00 0.00000000D+00 0.00000000D+00
  <mgrwgt>
 0.1246481774D-02    4    2    0
 0.446168552132648D+03 0.000000000000000D+00 0.000000000000000D+00 0.446168552132648D+03
 0.446168552132648D+03 0.000000000000000D+00 0.000000000000000D+00 -.446168552132648D+03
 0.234769449806344D+03 -.142585988684299D+03 -.164297248306135D+03 0.364023163817391D+02
 0.214908955372976D+02 0.404516883913118D+01 0.210336575783926D+02 0.175512077444480D+01
 0.378861608072770D+03 0.196489718669061D+03 0.173441891072484D+03 -.273579639136466D+03
 0.257215150848885D+03 -.579488988238936D+02 -.301783003447415D+02 0.235422201980282D+03
 0.000000000000000D+00 0.000000000000000D+00 -.000000000000000D+00 0.000000000000000D+00
 0.676888556857942D+03 0.000000000000000D+00 0.000000000000000D+00 0.676888556857942D+03
 0.463467748366048D+03 0.000000000000000D+00 0.000000000000000D+00 -.463467748366048D+03
 0.216919817644490D+03 -.144009287811662D+03 -.136099918143143D+03 0.364023163817391D+02
 0.242703012469042D+02 0.390097264908748D+01 0.238903638748694D+02 0.175512077444480D+01
 0.402330112130672D+03 0.194028138167174D+03 0.222208869706905D+03 -.273579639136466D+03
 0.255816914578433D+03 -.595654926720337D+02 0.184843922048506D+01 0.235422201980282D+03
 0.241019159623490D+03 0.564566966743422D+01 -.111847754659116D+03 0.213420808491894D+03
0.418890428419D-04 0.000000000000D+00 0.000000000000D+00 0.673954072153D-05 0.000000000000D+00  7 -2 2 24 -11 11 -24 21 0 0.19580849D-01 0.24062441D+00 0.95806440D+05 0.95806440D+05 0.95806440D+05 0.11232520D+01  1  2  2  2  7  2        2 0.133451246332D-02 0.100000000000D+01
-.194885664099D-05 0.000000000000D+00 -.160864954151D-06 0.673954072153D-05 0.000000000000D+00  7 -2 2 24 -11 11 -24 21 2 0.19580849D-01 0.24062441D+00 0.95806440D+05 0.95806440D+05 0.95806440D+05 0.11232520D+01  1  2  3  2  7  2        2 -.783351200622D-04 0.100000000000D+01
0.257370091028D-05 0.000000000000D+00 0.000000000000D+00 0.673954072153D-05 0.000000000000D+00  7 -2 2 24 -11 11 -24 21 2 0.19580849D-01 0.24062441D+00 0.95806440D+05 0.95806440D+05 0.95806440D+05 0.11232520D+01  1  2 15  2  7  2        2 0.103451000741D-03 0.100000000000D+01
-.281491167026D-05 0.000000000000D+00 0.000000000000D+00 0.673954072153D-05 0.000000000000D+00  7 -2 2 24 -11 11 -24 21 2 0.19580849D-01 0.24062441D+00 0.95806440D+05 0.95806440D+05 0.95806440D+05 0.11232520D+01  1  2  4  2  7  2        2 -.113146569643D-03 0.100000000000D+01
  </mgrwgt>
  </event>
  <event>
  8     66 0.27011060E-05 0.20037363E+03 0.75467711E-02 0.99300931E-01
       -2 -1    0    0    0  501 0.00000000E+00 0.00000000E+00 0.11798069E+03 0.11798112E+03 0.32000000E+00 0.0000E+00 0.9000E+01
        2 -1    0    0  501    0 0.00000000E+00 0.00000000E+00 -.55873100E+03 0.55873109E+03 0.32000000E+00 0.0000E+00 0.9000E+01
       25  2    1    2    0    0 0.65828620E+02 0.99133718E+01 -.10897807E+03 0.32626219E+03 0.30023177E+03 0.0000E+00 0.0000E+00
       23  2    1    2    0    0 -.65828620E+02 -.99133718E+01 -.33177224E+03 0.35045001E+03 0.91163100E+02 0.0000E+00 0.0000E+00
       24  1    3    3    0    0 0.80140278E+02 0.11047966E+03 -.11625919E+03 0.19649844E+03 0.80419002E+02 0.0000E+00 0.9000E+01
      -11  1    4    4    0    0 -.38369896E+02 -.50713292E+02 -.17938884E+03 0.19032720E+03 0.51099893E-03 0.0000E+00 0.9000E+01
       11  1    4    4    0    0 -.27458724E+02 0.40799921E+02 -.15238340E+03 0.16012281E+03 0.51099893E-03 0.0000E+00 0.9000E+01
      -24  1    3    3    0    0 -.14311658E+02 -.10056629E+03 0.72811217E+01 0.12976376E+03 0.80419002E+02 0.0000E+00 0.9000E+01
#aMCatNLO 1  0  0  1  2 0.22263975D+03 0.00000000D+00  -5  7  0 0.00000000D+00 0.00000000D+00 0.00000000D+00 0.00000000D+00 0.00000000D+00
  <mgrwgt>
 0.6430342593D-03    3    2    0
 0.256748212059644D+03 0.000000000000000D+00 0.000000000000000D+00 0.256748212059644D+03
 0.256748212059644D+03 0.000000000000000D+00 0.000000000000000D+00 -.256748212059644D+03
 0.159166865120912D+03 0.801402782239119D+02 0.110479661829052D+03 0.154484667970738D+02
 0.968479049868106D+02 -.383698959554642D+02 -.507132924948358D+02 -.730440261009370D+02
 0.802226277050390D+02 -.274587243601493D+02 0.407999206949241D+02 -.633802407987106D+02
 0.177259026306526D+03 -.143116579082984D+02 -.100566290029140D+03 0.120975800102574D+03
 0.000000000000000D+00 0.000000000000000D+00 -.000000000000000D+00 -.000000000000000D+00
 0.372946974519444D+03 0.000000000000000D+00 0.000000000000000D+00 0.372946974519444D+03
 0.412941243307305D+03 0.000000000000000D+00 0.000000000000000D+00 -.412941243307305D+03
 0.189007045947856D+03 0.348448728368130D+02 0.166744196823069D+03 0.154484667970738D+02
 0.988640703918908D+02 -.638308882414064D+02 -.190864447116650D+02 -.730440261009370D+02
 0.108683807693021D+03 -.520343553869580D+02 0.713270004305161D+02 -.633802407987106D+02
 0.163129842204722D+03 -.585942744350367D+02 -.455598096609361D+02 0.120975800102574D+03
 0.226203451589259D+03 0.139614645226588D+03 -.173424942880984D+03 -.399942687878608D+02
0.414521194394D-05 0.000000000000D+00 0.000000000000D+00 0.685995093723D-06 0.000000000000D+00  7 -2 2 24 -11 11 -24 21 0 0.18150915D-01 0.85958655D-01 0.40149593D+05 0.40149593D+05 0.40149593D+05 0.11557725D+01  1  2  2  1  7  1       -2 0.635370780311D-03 0.100000000000D+01
-.213080729411D-06 0.000000000000D+00 -.159187053241D-07 0.685995093723D-06 0.000000000000D+00  7 -2 2 24 -11 11 -24 21 2 0.18150915D-01 0.85958655D-01 0.40149593D+05 0.40149593D+05 0.40149593D+05 0.11557725D+01  1  2  3  1  7  1       -2 -.436284082442D-04 0.100000000000D+01
0.250509087670D-06 0.000000000000D+00 0.000000000000D+00 0.685995093723D-06 0.000000000000D+00  7 -2 2 24 -11 11 -24 21 2 0.18150915D-01 0.85958655D-01 0.40149593D+05 0.40149593D+05 0.40149593D+05 0.11557725D+01  1  2 15  1  7  1       -2 0.512918872390D-04 0.100000000000D+01
  </mgrwgt>
  </event>
  <event>
  8     66 0.27011060E-05 0.48282550E+03 0.75467711E-02 0.88600567E-01
       -2 -1    0    0    0  501 0.00000000E+00 0.00000000E+00 0.11418329E+04 0.11418330E+04 0.32000000E+00 0.0000E+00 0.9000E+01
        2 -1    0    0  501    0 0.00000000E+00 0.00000000E+00 -.21062611E+04 0.21062611E+04 0.32000000E+00 0.0000E+00 0.9000E+01
       25  2    1    2    0    0 0.24588418E+03 0.66562791E+03 -.19117882E+04 0.20609500E+04 0.29843085E+03 0.0000E+00 0.0000E+00
       23  2    1    2    0    0 -.24588418E+03 -.66562791E+03 0.94736008E+03 0.11871441E+04 0.91106541E+02 0.0000E+00 0.0000E+00
       24  1    3    3    0    0 0.19016736E+03 0.38992808E+03 -.14375713E+04 0.15037573E+04 0.80419002E+02 0.0000E+00 0.9000E+01
      -11  1    4    4    0    0 -.44608004E+02 -.46855354E+02 0.89155565E+02 0.11015450E+03 0.51099893E-03 0.0000E+00 0.9000E+01
       11  1    4    4    0    0 -.20127618E+03 -.61877256E+03 0.85820451E+03 0.10769896E+04 0.51099893E-03 0.0000E+00 0.9000E+01
      -24  1    3    3    0    0 0.55716824E+02 0.27569983E+03 -.47421692E+03 0.55719266E+03 0.80419002E+02 0.0000E+00 0.9000E+01
#aMCatNLO 1  0  0  1  2 0.30445912D+03 0.00000000D+00  -5  7  0 0.00000000D+00 0.00000000D+00 0.00000000D+00 0.00000000D+00 0.00000000D+00
  <mgrwgt>
 0.6566933817D-03    9    2    0
 0.155080570065278D+04 0.000000000000000D+00 0.000000000000000D+00 0.155080570065278D+04
 0.155080570065278D+04 0.000000000000000D+00 0.000000000000000D+00 -.155080570065278D+04
 0.112777213733869D+04 0.190167355898999D+03 0.389928083904112D+03 -.103788016838957D+04
 0.143079272194521D+03 -.446080043816068D+02 -.468553540454154D+02 0.127618101670895D+03
 0.139470729781507D+04 -.201276175225698D+03 -.618772555433810D+03 0.123361941963761D+04
 0.436052693957285D+03 0.557168237083060D+02 0.275699825575113D+03 -.323357352918941D+03
 0.000000000000000D+00 0.000000000000000D+00 0.000000000000000D+00 0.000000000000000D+00
 0.188916405009424D+04 0.000000000000000D+00 0.000000000000000D+00 0.188916405009424D+04
 0.162829109637779D+04 0.000000000000000D+00 0.000000000000000D+00 -.162829109637779D+04
 0.109269211614202D+04 0.175044471459408D+03 0.282264120638278D+03 -.103788016838957D+04
 0.148930720048012D+03 -.465967926996207D+02 -.610140837024113D+02 0.127618101670895D+03
 0.146430814977511D+04 -.220748031238304D+03 -.757398040461676D+03 0.123361941963761D+04
 0.410587687508268D+03 0.499506220544290D+02 0.234648654052495D+03 -.323357352918941D+03
 0.400936472998612D+03 0.423497304240880D+02 0.301499349473315D+03 0.260872953716443D+03
0.470688559952D-02 0.000000000000D+00 0.000000000000D+00 0.879279071763D-05 0.000000000000D+00  7 -2 2 24 -11 11 -24 21 0 0.17566661D+00 0.32404017D+00 0.52500381D+06 0.52500381D+06 0.52500381D+06 0.10670158D+01  1  2  2  1  7  1       -2 0.639804494153D-03 0.100000000000D+01
-.773934313376D-04 0.000000000000D+00 -.180756800536D-04 0.879279071763D-05 0.000000000000D+00  7 -2 2 24 -11 11 -24 21 2 0.17566661D+00 0.32404017D+00 0.52500381D+06 0.52500381D+06 0.52500381D+06 0.10670158D+01  1  2  3  1  7  1       -2 -.119773152896D-04 0.100000000000D+01
0.252242454250D-03 0.000000000000D+00 0.000000000000D+00 0.879279071763D-05 0.000000000000D+00  7 -2 2 24 -11 11 -24 21 2 0.17566661D+00 0.32404017D+00 0.52500381D+06 0.52500381D+06 0.52500381D+06 0.10670158D+01  1  2 15  1  7  1       -2 0.390367419011D-04 0.100000000000D+01
0.536830541264D-02 0.000000000000D+00 0.000000000000D+00 0.879279071763D-05 0.000000000000D+00  7 -2 2 24 -11 11 -24 21 2 0.21769724D+00 0.32404017D+00 0.77871913D+06 0.77871913D+06 0.77871913D+06 0.10551718D+01  1  2 12  1  7  1       -2 0.400680393247D-03 0.100000000000D+01
-.702742033405D-02 0.000000000000D+00 0.000000000000D+00 0.879279071763D-05 0.000000000000D+00  7 -2 2 24 -11 11 -24 21 2 0.17566661D+00 0.32404017D+00 0.52500381D+06 0.52500381D+06 0.52500381D+06 0.10670158D+01  1  2  4  1  7  1       -2 -.108755520409D-02 0.100000000000D+01
-.846667102359D-02 0.000000000000D+00 -.255640108353D-02 0.879279071763D-05 0.000000000000D+00  7 -2 2 24 -11 11 -24 21 2 0.21912441D+00 0.32404017D+00 0.52500381D+06 0.52500381D+06 0.52500381D+06 0.10670158D+01  1  2  5  1  7  1       -2 -.654786846023D-03 0.100000000000D+01
0.887525483669D-02 0.000000000000D+00 0.249519011445D-02 0.879279071763D-05 0.000000000000D+00  7 -2 2 24 -11 11 -24 21 2 0.17566661D+00 0.32404017D+00 0.52500381D+06 0.52500381D+06 0.52500381D+06 0.10670158D+01  1  2  6  1  7  1       -2 0.137352387169D-02 0.100000000000D+01
0.162049382915D-03 0.000000000000D+00 0.000000000000D+00 0.879279071763D-05 0.000000000000D+00  7 21 2 24 -11 11 -24 2 2 0.21769724D+00 0.32404017D+00 0.77871913D+06 0.77871913D+06 0.77871913D+06 0.10551718D+01  1  2 12  3  7  1       -2 0.902636592388D-04 0.100000000000D+01
-.226520335943D-03 0.000000000000D+00 -.789365174650D-04 0.879279071763D-05 0.000000000000D+00  7 21 2 24 -11 11 -24 2 2 0.21912441D+00 0.32404017D+00 0.52500381D+06 0.52500381D+06 0.52500381D+06 0.10670158D+01  1  2  5  3  7  1       -2 -.132296413096D-03 0.100000000000D+01
  </mgrwgt>
  </event>
  <event>
  8     66 0.27011060E-05 0.37420071E+03 0.75467711E-02 0.97670910E-01
       -2 -1    0    0    0  501 0.00000000E+00 0.00000000E+00 0.19403304E+03 0.19403331E+03 0.32000000E+00 0.0000E+00 0.9000E+01
        2 -1    0    0  501    0 0.00000000E+00 0.00000000E+00 -.75951709E+03 0.75951716E+03 0.32000000E+00 0.0000E+00 0.9000E+01
       25  2    1    2    0    0 -.27007493E+03 0.16051211E+03 -.38479566E+03 0.57983529E+03 0.29905961E+03 0.0000E+00 0.0000E+00
       23  2    1    2    0    0 0.27007493E+03 -.16051211E+03 -.18068839E+03 0.37371518E+03 0.91159932E+02 0.0000E+00 0.0000E+00
       24  1    3    3    0    0 0.29387411E+02 0.50369532E+02 -.53216473E+02 0.11269392E+03 0.80419002E+02 0.0000E+00 0.9000E+01
      -11  1    4    4    0    0 0.16380022E+03 -.13092281E+03 -.15413418E+03 0.26024727E+03 0.51099893E-03 0.0000E+00 0.9000E+01
       11  1    4    4    0    0 0.10627471E+03 -.29589299E+02 -.26554212E+02 0.11346791E+03 0.51099893E-03 0.0000E+00 0.9000E+01
      -24  1    3    3    0    0 -.29946235E+03 0.11014258E+03 -.33157919E+03 0.46714137E+03 0.80419002E+02 0.0000E+00 0.9000E+01
#aMCatNLO 1  0  0  1  2 0.22455065D+02 0.00000000D+00  -5  7  0 0.00000000D+00 0.00000000D+00 0.00000000D+00 0.00000000D+00 0.00000000D+00
  <mgrwgt>
 0.5097856059D-03    4    2    0
 0.383890048752361D+03 0.000000000000000D+00 0.000000000000000D+00 0.383890048752361D+03
 0.383890048752361D+03 0.000000000000000D+00 0.000000000000000D+00 -.383890048752361D+03
 0.100766182235213D+03 0.293874113289917D+02 0.503695323394757D+02 0.169085125062142D+02
 0.209693486377989D+03 0.163800223927318D+03 -.130922813167184D+03 0.248722952958932D+00
 0.121364693495225D+03 0.106274710325643D+03 -.295892994446334D+02 0.505919769406798D+02
 0.335955735396294D+03 -.299462345581952D+03 0.110142580272342D+03 -.677492123998530D+02
 0.000000000000000D+00 0.000000000000000D+00 0.000000000000000D+00 -.000000000000000D+00
 0.386817134914808D+03 0.000000000000000D+00 0.000000000000000D+00 0.386817134914808D+03
 0.429678652388178D+03 0.000000000000000D+00 0.000000000000000D+00 -.429678652388178D+03
 0.995715600214255D+02 0.265756694775367D+02 0.495491231746609D+02 0.169085125062142D+02
 0.206256813398972D+03 0.157962358067225D+03 -.132626183856104D+03 0.248722952958932D+00
 0.118675213614376D+03 0.102905748265689D+03 -.305722941489548D+02 0.505919769406798D+02
 0.343604809011554D+03 -.308999983381930D+03 0.107359691274998D+03 -.677492123998530D+02
 0.483873912566575D+02 0.215562075714797D+02 0.628966355540020D+01 -.428615174733700D+02
0.133848819683D-04 0.000000000000D+00 0.000000000000D+00 0.487101557087D-06 0.000000000000D+00  7 -2 2 24 -11 11 -24 21 0 0.29851263D-01 0.11684881D+00 0.14002617D+06 0.14002617D+06 0.14002617D+06 0.11099178D+01  1  2  2  1  7  1       -2 0.616835008397D-03 0.100000000000D+01
-.743013704325D-06 0.000000000000D+00 -.514014710787D-07 0.487101557087D-06 0.000000000000D+00  7 -2 2 24 -11 11 -24 21 2 0.29851263D-01 0.11684881D+00 0.14002617D+06 0.14002617D+06 0.14002617D+06 0.11099178D+01  1  2  3  1  7  1       -2 -.421825563050D-04 0.100000000000D+01
0.851295849968D-06 0.000000000000D+00 0.000000000000D+00 0.487101557087D-06 0.000000000000D+00  7 -2 2 24 -11 11 -24 21 2 0.29851263D-01 0.11684881D+00 0.14002617D+06 0.14002617D+06 0.14002617D+06 0.11099178D+01  1  2 15  1  7  1       -2 0.483299768422D-04 0.100000000000D+01
-.199387609809D-05 0.000000000000D+00 0.000000000000D+00 0.487101557087D-06 0.000000000000D+00  7 -2 2 24 -11 11 -24 21 2 0.29851263D-01 0.11684881D+00 0.14002617D+06 0.14002617D+06 0.14002617D+06 0.11099178D+01  1  2  4  1  7  1       -2 -.113196822997D-03 0.100000000000D+01
  </mgrwgt>
  </event>
  <event>
  8     66 0.27011060E-05 0.22731584E+03 0.75467711E-02 0.94195570E-01
       -2 -1    0    0    0  501 0.00000000E+00 0.00000000E+00 0.77386077E+02 0.77386739E+02 0.32000000E+00 0.0000E+00 0.9000E+01
        2 -1    0    0  501    0 0.00000000E+00 0.00000000E+00 -.82033275E+03 0.82033281E+03 0.32000000E+00 0.0000E+00 0.9000E+01
       25  2    1    2    0    0 -.14352120E+03 0.19698664E+02 -.47951014E+03 0.58372597E+03 0.29969929E+03 0.0000E+00 0.0000E+00
       23  2    1    2    0    0 0.14352120E+03 -.19698664E+02 -.26343653E+03 0.31399358E+03 0.90591335E+02 0.0000E+00 0.0000E+00
       24  1    3    3    0    0 0.30206149E+02 -.47217511E+02 -.29017079E+03 0.30628126E+03 0.80419002E+02 0.0000E+00 0.9000E+01
      -13  1    4    4    0    0 0.71171843E+02 0.16276946E+02 -.19460604E+03 0.20785065E+03 0.10565837E+00 0.0000E+00 0.9000E+01
       13  1    4    4    0    0 0.72349353E+02 -.35975610E+02 -.68830485E+02 0.10614292E+03 0.10565837E+00 0.0000E+00 0.9000E+01
      -24  1    3    3    0    0 -.17372734E+03 0.66916175E+02 -.18933935E+03 0.27744472E+03 0.80419002E+02 0.0000E+00 0.9000E+01
#aMCatNLO 1  0  0  1  2 0.42892677D+03 0.00000000D+00  -5  7  0 0.00000000D+00 0.00000000D+00 0.00000000D+00 0.00000000D+00 0.00000000D+00
  <mgrwgt>
 0.8292750867D-03    5    2    0
 0.251957652000947D+03 0.000000000000000D+00 0.000000000000000D+00 0.251957652000947D+03
 0.251957652000947D+03 0.000000000000000D+00 0.000000000000000D+00 -.251957652000947D+03
 0.117823865103775D+03 0.302061475368254D+02 -.472175105489779D+02 -.653708083334042D+02
 0.833665460631650D+02 0.711718435636626D+02 0.162770144295341D+02 -.402443596981253D+02
 0.876123427665544D+02 0.723493562284980D+02 -.359756792350500D+02 0.338709870234528D+02
 0.215112550068400D+03 -.173727347328986D+03 0.669161753544939D+02 0.717441810080767D+02
 0.000000000000000D+00 0.000000000000000D+00 -.000000000000000D+00 0.000000000000000D+00
 0.637062906301273D+03 0.000000000000000D+00 0.000000000000000D+00 0.637062906301273D+03
 0.481089320982662D+03 0.000000000000000D+00 0.000000000000000D+00 -.481089320982662D+03
 0.107539701653117D+03 -.243121680607981D+02 0.152691643285339D+02 -.653708083334042D+02
 0.800902335252305D+02 0.316295678337778D+02 0.615987618159839D+02 -.402443596981253D+02
 0.514928310155421D+02 0.386980439305545D+02 0.259408558092071D+01 0.338709870234528D+02
 0.422624016381904D+03 -.328003940916042D+03 0.243741729097476D+03 0.717441810080767D+02
 0.456405444708141D+03 0.281988497212508D+03 -.323203740822914D+03 0.155973585318612D+03
0.380707820727D-05 0.000000000000D+00 0.000000000000D+00 0.430290153469D-06 0.000000000000D+00  7 -2 2 24 -13 13 -24 21 0 0.11905606D-01 0.12620509D+00 0.51672490D+05 0.51672490D+05 0.51672490D+05 0.11460406D+01  1  2  2  1  7  1       -2 0.724816513170D-03 0.100000000000D+01
-.208780354242D-06 0.000000000000D+00 -.146201827426D-07 0.430290153469D-06 0.000000000000D+00  7 -2 2 24 -13 13 -24 21 2 0.11905606D-01 0.12620509D+00 0.51672490D+05 0.51672490D+05 0.51672490D+05 0.11460406D+01  1  2  3  1  7  1       -2 -.522066626478D-04 0.100000000000D+01
0.240264064912D-06 0.000000000000D+00 0.000000000000D+00 0.430290153469D-06 0.000000000000D+00  7 -2 2 24 -13 13 -24 21 2 0.11905606D-01 0.12620509D+00 0.51672490D+05 0.51672490D+05 0.51672490D+05 0.11460406D+01  1  2 15  1  7  1       -2 0.600793356672D-04 0.100000000000D+01
0.202111681896D-05 0.000000000000D+00 -.151773323269D-05 0.430290153469D-06 0.000000000000D+00  7 -2 2 24 -13 13 -24 21 2 0.57155003D-01 0.12620509D+00 0.51672490D+05 0.51672490D+05 0.51672490D+05 0.11460406D+01  1  2  5  1  7  1       -2 0.335340498844D-04 0.100000000000D+01
0.353987700121D-06 0.000000000000D+00 -.289417981489D-06 0.430290153469D-06 0.000000000000D+00  7 21 2 24 -13 13 -24 2 2 0.57155003D-01 0.12620509D+00 0.51672490D+05 0.51672490D+05 0.51672490D+05 0.11460406D+01  1  2  5  3  7  1       -2 0.630518506583D-04 0.100000000000D+01
  </mgrwgt>
  </event>
  <event>
  8     66 0.27011060E-05 0.26153703E+03 0.75467711E-02 0.10060051E+00
       -2 -1    0    0    0  501 0.00000000E+00 0.00000000E+00 0.35329398E+02 0.35330847E+02 0.32000000E+00 0.0000E+00 0.9000E+01
        2 -1    0    0  501    0 0.00000000E+00 0.00000000E+00 -.24964086E+04 0.24964086E+04 0.32000000E+00 0.0000E+00 0.9000E+01
       25  2    1    2    0    0 0.90352442E+02 -.13402377E+03 -.95801263E+03 0.10170910E+04 0.30093183E+03 0.0000E+00 0.0000E+00
       23  2    1    2    0    0 -.90352442E+02 0.13402377E+03 -.15030665E+04 0.15146484E+04 0.93941049E+02 0.0000E+00 0.0000E+00
       24  1    3    3    0    0 -.84521061E+02 -.53641694E+02 -.44891132E+03 0.46691522E+03 0.80419002E+02 0.0000E+00 0.9000E+01
      -13  1    4    4    0    0 -.75115345E+02 0.14763568E+03 -.12865045E+04 0.12971247E+04 0.10565837E+00 0.0000E+00 0.9000E+01
       13  1    4    4    0    0 -.15237097E+02 -.13611907E+02 -.21656207E+03 0.21752378E+03 0.10565837E+00 0.0000E+00 0.9000E+01
      -24  1    3    3    0    0 0.17487350E+03 -.80382079E+02 -.50910131E+03 0.55017577E+03 0.80419002E+02 0.0000E+00 0.9000E+01
#aMCatNLO 1  0  0  1  2 0.82399059D+02 0.00000000D+00  -5  7  0 0.00000000D+00 0.00000000D+00 0.00000000D+00 0.00000000D+00 0.00000000D+00
  <mgrwgt>
 0.1129809240D-02    4    2    0
 0.296982274858053D+03 0.000000000000000D+00 0.000000000000000D+00 0.296982274858053D+03
 0.296982274858053D+03 0.000000000000000D+00 0.000000000000000D+00 -.296982274858053D+03
 0.130144799934106D+03 -.845210597817576D+02 -.536416962241521D+02 0.211946190124382D+02
 0.198315567075771D+03 -.751154249419670D+02 0.147635879311675D+03 -.109043038385039D+03
 0.298620517612092D+02 -.152370202106526D+02 -.136121002508452D+02 -.217781100477117D+02
 0.235642130945018D+03 0.174873504934377D+03 -.803820828366775D+02 0.109626529420312D+03
 0.000000000000000D+00 -.000000000000000D+00 0.000000000000000D+00 -.000000000000000D+00
 0.323115831123749D+03 0.000000000000000D+00 0.000000000000000D+00 0.323115831123749D+03
 0.372709316251215D+03 0.000000000000000D+00 0.000000000000000D+00 -.372709316251215D+03
 0.130837155128997D+03 -.742678680992450D+02 -.684559500758657D+02 0.211946190124382D+02
 0.177443491241265D+03 -.603529880124351D+02 0.126306473316370D+03 -.109043038385039D+03
 0.304978090139280D+02 -.128656638373447D+02 -.170383382823626D+02 -.217781100477117D+02
 0.260874353529068D+03 0.194380135910489D+03 -.108566105141135D+03 0.109626529420312D+03
 0.961723384617060D+02 -.468936159614640D+02 0.677539201829940D+02 -.495934851274655D+02
0.193574201230D-04 0.000000000000D+00 0.000000000000D+00 0.630885507906D-07 0.000000000000D+00  7 -2 2 24 -13 13 -24 21 0 0.54354050D-02 0.38406297D+00 0.68401618D+05 0.68401618D+05 0.68401618D+05 0.11355134D+01  1  2  2  1  7  1       -2 0.141789598784D-02 0.100000000000D+01
-.105429075667D-05 0.000000000000D+00 -.743375901982D-07 0.630885507906D-07 0.000000000000D+00  7 -2 2 24 -13 13 -24 21 2 0.54354050D-02 0.38406297D+00 0.68401618D+05 0.68401618D+05 0.68401618D+05 0.11355134D+01  1  2  3  1  7  1       -2 -.995730531184D-04 0.100000000000D+01
0.118485648886D-05 0.000000000000D+00 0.000000000000D+00 0.630885507906D-07 0.000000000000D+00  7 -2 2 24 -13 13 -24 21 2 0.54354050D-02 0.38406297D+00 0.68401618D+05 0.68401618D+05 0.68401618D+05 0.11355134D+01  1  2 15  1  7  1       -2 0.111904403369D-03 0.100000000000D+01
-.318086082657D-05 0.000000000000D+00 0.000000000000D+00 0.630885507906D-07 0.000000000000D+00  7 -2 2 24 -13 13 -24 21 2 0.54354050D-02 0.38406297D+00 0.68401618D+05 0.68401618D+05 0.68401618D+05 0.11355134D+01  1  2  4  1  7  1       -2 -.300418098178D-03 0.100000000000D+01
  </mgrwgt>
  </event>
  <event>
  7     66 0.27011060E-05 0.18026785E+03 0.75467711E-02 0.10477654E+00
       -2 -1    0    0    0  501 0.00000000E+00 0.00000000E+00 0.66904291E+02 0.66905056E+02 0.32000000E+00 0.0000E+00 0.9000E+01
        2 -1    0    0  501    0 0.00000000E+00 0.00000000E+00 -.13041570E+04 0.13041570E+04 0.32000000E+00 0.0000E+00 0.9000E+01
       23  2    1    2    0    0 -.85135609E+02 -.34293468E+02 -.68146688E+02 0.15029410E+03 0.97571673E+02 0.0000E+00 0.0000E+00
       24  1    1    2    0    0 -.10220844E+03 -.36952056E+02 -.42969498E+03 0.45046311E+03 0.80419002E+02 0.0000E+00 0.9000E+01
      -13  1    3    3    0    0 -.94433043E+01 -.87227557E+01 -.69208227E+02 0.70392133E+02 0.10565837E+00 0.0000E+00 0.9000E+01
       13  1    3    3    0    0 -.75692304E+02 -.25570712E+02 0.10615393E+01 0.79901967E+02 0.10565837E+00 0.0000E+00 0.9000E+01
      -24  1    1    2    0    0 0.18734405E+03 0.71245524E+02 -.73941104E+03 0.77030489E+03 0.80419002E+02 0.0000E+00 0.9000E+01
#aMCatNLO 1  0  0  2  1 0.27970412D+01 0.00000000D+00  -5  7  0 0.00000000D+00 0.00000000D+00 0.00000000D+00 0.00000000D+00 0.00000000D+00
  <mgrwgt>
 0.5726054828D-03    7    2    0
 0.295388304772531D+03 0.000000000000000D+00 0.000000000000000D+00 0.295388304772531D+03
 0.295388304772531D+03 0.000000000000000D+00 0.000000000000000D+00 -.295388304772531D+03
 0.145519659175335D+03 -.102203244909216D+03 -.369500950423142D+02 -.538325408886291D+02
 0.184227231493474D+02 -.944344957587455D+01 -.872282359424115D+01 -.131958454404849D+02
 0.187663015680268D+03 -.756946622540359D+02 -.255716525965556D+02 0.169805230025288D+03
 0.239171211540111D+03 0.187341356739126D+03 0.712445712331109D+02 -.102776843696174D+03
 0.000000000000000D+00 -.000000000000000D+00 -.000000000000000D+00 0.000000000000000D+00
 0.297039344218300D+03 0.000000000000000D+00 0.000000000000000D+00 0.297039344218300D+03
 0.296578618931779D+03 0.000000000000000D+00 0.000000000000000D+00 -.296578618931779D+03
 0.145027065072456D+03 -.101516902455567D+03 -.369054156792834D+02 -.538325408886291D+02
 0.183756311478100D+02 -.935652285920295D+01 -.871716485885243D+01 -.131958454404849D+02
 0.187299633630351D+03 -.748089087304993D+02 -.255139920176078D+02 0.169805230025288D+03
 0.240080900975309D+03 0.188473467492300D+03 0.713182691182748D+02 -.102776843696174D+03
 0.283473232415464D+01 -.279113344703035D+01 -.181696562531171D+00 0.460725286521155D+00
0.590322112006D-05 0.000000000000D+00 0.000000000000D+00 0.204351184684D-10 0.000000000000D+00  7 -2 2 24 -13 13 -24 21 0 0.10293030D-01 0.20063960D+00 0.49264401D+05 0.49264401D+05 0.49264401D+05 0.11478620D+01  1  2  2  2  7  2        2 0.727568752785D-03 0.100000000000D+01
-.295383576783D-06 0.000000000000D+00 -.226699234548D-07 0.204351184684D-10 0.000000000000D+00  7 -2 2 24 -13 13 -24 21 2 0.10293030D-01 0.20063960D+00 0.49264401D+05 0.49264401D+05 0.49264401D+05 0.11478620D+01  1  2  3  2  7  2        2 -.479678979704D-04 0.100000000000D+01
0.326743485788D-06 0.000000000000D+00 0.000000000000D+00 0.204351184684D-10 0.000000000000D+00  7 -2 2 24 -13 13 -24 21 2 0.10293030D-01 0.20063960D+00 0.49264401D+05 0.49264401D+05 0.49264401D+05 0.11478620D+01  1  2 15  2  7  2        2 0.530604929342D-04 0.100000000000D+01
-.665365947995D-04 0.000000000000D+00 0.000000000000D+00 0.204351184684D-10 0.000000000000D+00  7 -2 2 24 -13 13 -24 21 2 0.10293030D-01 0.20063960D+00 0.49264401D+05 0.49264401D+05 0.49264401D+05 0.11478620D+01  1  2  4  2  7  2        2 -.108050035327D-01 0.100000000000D+01
0.665377756180D-04 0.000000000000D+00 0.000000000000D+00 0.204351184684D-10 0.183425525253D-10  7 -2 2 24 -13 13 -24 21 2 0.10350561D-01 0.20144811D+00 0.49787121D+05 0.49787121D+05 0.49787121D+05 0.11474584D+01  1  2 11  2  7  2        2 0.106345846871D-01 0.100000000000D+01
0.134246901034D-08 0.000000000000D+00 0.000000000000D+00 0.204351184684D-10 0.000000000000D+00  7 -2 21 24 -13 13 -24 -2 2 0.10293030D-01 0.20200615D+00 0.49787121D+05 0.49787121D+05 0.49787121D+05 0.11474584D+01  1  2 12  4  7  2        2 0.104390648228D-06 0.100000000000D+01
0.131828116177D-06 0.000000000000D+00 0.000000000000D+00 0.204351184684D-10 0.138090478891D-13  7 -2 21 24 -13 13 -24 -2 2 0.10350561D-01 0.20144811D+00 0.49787121D+05 0.49787121D+05 0.49787121D+05 0.11474584D+01  1  2 11  4  7  2        2 0.102585899260D-04 0.100000000000D+01
  </mgrwgt>
  </event>
  <event>
  8     66 0.27011060E-05 0.22755319E+03 0.75467711E-02 0.86033345E-01
       -2 -1    0    0    0  501 0.00000000E+00 0.00000000E+00 0.10014863E+04 0.10014864E+04 0.32000000E+00 0.0000E+00 0.9000E+01
        2 -1    0    0  501    0 0.00000000E+00 0.00000000E+00 -.96161180E+02 0.96161712E+02 0.32000000E+00 0.0000E+00 0.9000E+01
       25  2    1    2    0    0 -.11388579E+03 0.28911870E+02 0.88820273E+03 0.94487656E+03 0.30013623E+03 0.0000E+00 0.0000E+00
       23  2    1    2    0    0 0.11388579E+03 -.28911870E+02 0.17122393E+02 0.15277151E+03 0.96125370E+02 0.0000E+00 0.0000E+00
       24  1    3    3    0    0 0.39849548E+02 0.86693530E+02 0.22913466E+03 0.26090930E+03 0.80419002E+02 0.0000E+00 0.9000E+01
      -11  1    4    4    0    0 0.12485511E+03 -.40730294E+02 0.26699520E+02 0.13401724E+03 0.51099893E-03 0.0000E+00 0.9000E+01
       11  1    4    4    0    0 -.10969320E+02 0.11818424E+02 -.95771279E+01 0.18754267E+02 0.51099893E-03 0.0000E+00 0.9000E+01
      -24  1    3    3    0    0 -.15373534E+03 -.57781660E+02 0.65906807E+03 0.68396726E+03 0.80419002E+02 0.0000E+00 0.9000E+01
#aMCatNLO 1  0  0  1  2 0.11139721D+04 0.00000000D+00  -5  7  0 0.00000000D+00 0.00000000D+00 0.00000000D+00 0.00000000D+00 0.00000000D+00
  <mgrwgt>
 0.5509792697D-03    5    2    0
 0.310329542934960D+03 0.000000000000000D+00 0.000000000000000D+00 0.310329542934960D+03
 0.310329542934960D+03 0.000000000000000D+00 0.000000000000000D+00 -.310329542934960D+03
 0.127195793205680D+03 0.398495478016221D+02 0.866935297866805D+02 0.246535857023631D+02
 0.198066894649799D+03 0.124855113240287D+03 -.407302939744172D+02 -.148265770178849D+03
 0.471369867827135D+02 -.109693200510413D+02 0.118184243505165D+02 -.442932769892075D+02
 0.248259411231727D+03 -.153735340990868D+03 -.577816601627797D+02 0.167905461465693D+03
 0.000000000000000D+00 -.000000000000000D+00 0.000000000000000D+00 0.000000000000000D+00
 0.164439661869692D+04 0.000000000000000D+00 0.000000000000000D+00 0.164439661869692D+04
 0.945743355706154D+03 0.000000000000000D+00 0.000000000000000D+00 -.945743355706154D+03
 0.260190507558448D+03 0.246026302193856D+03 -.975415859959809D+01 0.246535857023631D+02
 0.640905294379152D+03 0.571377260817877D+03 -.249609462113837D+03 -.148265770178849D+03
 0.700264948217486D+02 0.513880382831413D+02 -.173518042862444D+02 -.442932769892075D+02
 0.304084153716056D+03 0.140235827596503D+03 -.195298810173426D+03 0.167905461465693D+03
 0.131493352392767D+04 -.100902742889138D+04 0.472014235173106D+03 0.698653262990768D+03
0.384893595968D-04 0.000000000000D+00 0.000000000000D+00 0.110692452915D-06 0.000000000000D+00  7 -2 2 24 -11 11 -24 21 0 0.15407486D+00 0.14794073D-01 0.51780453D+05 0.51780453D+05 0.51780453D+05 0.11459612D+01  1  2  2  1  7  1       -2 0.542075570215D-03 0.100000000000D+01
-.188804697797D-05 0.000000000000D+00 -.147809275333D-06 0.110692452915D-06 0.000000000000D+00  7 -2 2 24 -11 11 -24 21 2 0.15407486D+00 0.14794073D-01 0.51780453D+05 0.51780453D+05 0.51780453D+05 0.11459612D+01  1  2  3  1  7  1       -2 -.349197998630D-04 0.100000000000D+01
0.236505863235D-05 0.000000000000D+00 0.000000000000D+00 0.110692452915D-06 0.000000000000D+00  7 -2 2 24 -11 11 -24 21 2 0.15407486D+00 0.14794073D-01 0.51780453D+05 0.51780453D+05 0.51780453D+05 0.11459612D+01  1  2 15  1  7  1       -2 0.437422241446D-04 0.100000000000D+01
0.290131699021D-04 0.000000000000D+00 -.150459077973D-04 0.110692452915D-06 0.000000000000D+00  7 -2 2 24 -11 11 -24 21 2 0.89867387D+00 0.14794073D-01 0.51780453D+05 0.51780453D+05 0.51780453D+05 0.11459612D+01  1  2  5  1  7  1       -2 0.811297811311D-07 0.100000000000D+01
0.539127633822D-05 0.000000000000D+00 -.325115169526D-05 0.110692452915D-06 0.000000000000D+00  7 21 2 24 -11 11 -24 2 2 0.89867387D+00 0.14794073D-01 0.51780453D+05 0.51780453D+05 0.51780453D+05 0.11459612D+01  1  2  5  3  7  1       -2 0.145398687014D-09 0.100000000000D+01
  </mgrwgt>
  </event>
  <event>
  8     66 0.27011060E-05 0.22687178E+03 0.75467711E-02 0.97306080E-01
       -2 -1    0    0    0  501 0.00000000E+00 0.00000000E+00 0.25989979E+03 0.25989998E+03 0.32000000E+00 0.0000E+00 0.9000E+01
        2 -1    0    0  501    0 0.00000000E+00 0.00000000E+00 -.22779883E+03 0.22779905E+03 0.32000000E+00 0.0000E+00 0.9000E+01
       25  2    1    2    0    0 0.20537785E+02 -.12293430E+03 -.20914971E+02 0.32670501E+03 0.30127078E+03 0.0000E+00 0.0000E+00
       23  2    1    2    0    0 -.20537785E+02 0.12293430E+03 0.53015931E+02 0.16099403E+03 0.87027270E+02 0.0000E+00 0.0000E+00
       24  1    3    3    0    0 0.10005598E+02 -.19798170E+03 -.29132020E+02 0.21589988E+03 0.80419002E+02 0.0000E+00 0.9000E+01
      -13  1    4    4    0    0 -.14570823E+02 0.13954885E+02 -.20999676E+02 0.29121217E+02 0.10565837E+00 0.0000E+00 0.9000E+01
       13  1    4    4    0    0 -.59669615E+01 0.10897941E+03 0.74015607E+02 0.13187281E+03 0.10565837E+00 0.0000E+00 0.9000E+01
      -24  1    3    3    0    0 0.10532186E+02 0.75047408E+02 0.82170496E+01 0.11080513E+03 0.80419002E+02 0.0000E+00 0.9000E+01
#aMCatNLO 1  0  0  2  2 0.27201572D+03 0.00000000D+00  -5  7  0 0.00000000D+00 0.00000000D+00 0.00000000D+00 0.00000000D+00 0.00000000D+00
  <mgrwgt>
 0.1049933642D-02    5    2    0
 0.243320711891838D+03 0.000000000000000D+00 0.000000000000000D+00 0.243320711891838D+03
 0.243320711891838D+03 0.000000000000000D+00 0.000000000000000D+00 -.243320711891838D+03
 0.218290762698292D+03 0.100056015485407D+02 -.197981702156829D+03 -.434370196234479D+02
 0.305695918114544D+02 -.145708360354142D+02 0.139547505489513D+02 -.229664019355353D+02
 0.127277181792538D+03 -.596695276703170D+01 0.108979571443891D+03 0.654777022171115D+02
 0.110503887481391D+03 0.105321872539052D+02 0.750473801639876D+02 0.925719341871620D+00
 0.000000000000000D+00 -.000000000000000D+00 0.000000000000000D+00 -.000000000000000D+00
 0.413870224838333D+03 0.000000000000000D+00 0.000000000000000D+00 0.413870224838333D+03
 0.415656902558924D+03 0.000000000000000D+00 0.000000000000000D+00 -.415656902558924D+03
 0.272608882253979D+03 0.136373450759154D+03 -.217632474561280D+03 -.434370196234479D+02
 0.257746636418255D+02 -.666446997357486D-01 0.116992831604624D+02 -.229664019355353D+02
 0.133155227958171D+03 0.610738035735724D+02 0.985544304535131D+02 0.654777022171115D+02
 0.125966766148651D+03 0.714046857531895D+02 0.655814311811413D+02 0.925719341871620D+00
 0.272021587394631D+03 -.268785295386180D+03 0.417973297661629D+02 -.178667772059108D+01
0.931076582262D-05 0.000000000000D+00 0.000000000000D+00 0.933181365813D-08 0.000000000000D+00  7 -2 2 24 -13 13 -24 21 0 0.39984615D-01 0.35046006D-01 0.51470806D+05 0.51470806D+05 0.51470806D+05 0.11461895D+01  1  2  2  2  7  2        2 0.979199768419D-03 0.100000000000D+01
-.514183476482D-06 0.000000000000D+00 -.357557923398D-07 0.933181365813D-08 0.000000000000D+00  7 -2 2 24 -13 13 -24 21 2 0.39984615D-01 0.35046006D-01 0.51470806D+05 0.51470806D+05 0.51470806D+05 0.11461895D+01  1  2  3  2  7  2        2 -.710422805481D-04 0.100000000000D+01
0.596136544703D-06 0.000000000000D+00 0.000000000000D+00 0.933181365813D-08 0.000000000000D+00  7 -2 2 24 -13 13 -24 21 2 0.39984615D-01 0.35046006D-01 0.51470806D+05 0.51470806D+05 0.51470806D+05 0.11461895D+01  1  2 15  2  7  2        2 0.823653454280D-04 0.100000000000D+01
0.869638126828D-06 0.000000000000D+00 -.315222980444D-05 0.933181365813D-08 0.000000000000D+00  7 -2 2 24 -13 13 -24 21 2 0.39984615D-01 0.95717769D-01 0.51470806D+05 0.51470806D+05 0.51470806D+05 0.11461895D+01  1  2  5  2  7  2        2 0.399796774030D-04 0.100000000000D+01
0.278917020978D-06 0.000000000000D+00 -.354030896420D-06 0.933181365813D-08 0.000000000000D+00  7 -2 21 24 -13 13 -24 -2 2 0.39984615D-01 0.95717769D-01 0.51470806D+05 0.51470806D+05 0.51470806D+05 0.11461895D+01  1  2  5  4  7  2        2 0.194311317794D-04 0.100000000000D+01
  </mgrwgt>
  </event>
  <event>
  9     66 0.27011060E-05 0.23782563E+03 0.75467711E-02 0.98857314E-01
       21 -1    0    0  502  501 0.00000000E+00 0.00000000E+00 0.50487997E+03 0.50488053E+03 0.75000000E+00 0.0000E+00 0.9000E+01
        2 -1    0    0  501    0 0.00000000E+00 0.00000000E+00 -.85303217E+03 0.85303223E+03 0.32000000E+00 0.0000E+00 0.9000E+01
       25  2    1    2    0    0 0.93991670E+02 -.72137383E+02 -.68493084E+03 0.75696960E+03 0.29972400E+03 0.0000E+00 0.0000E+00
       23  2    1    2    0    0 0.35261543E+02 0.19973872E+03 0.49188401E+01 0.22263175E+03 0.91661150E+02 0.0000E+00 0.0000E+00
       24  1    3    3    0    0 0.16533731E+03 -.90663148E+02 -.36075682E+03 0.41493244E+03 0.80419002E+02 0.0000E+00 0.9000E+01
      -13  1    4    4    0    0 0.19566614E+02 0.51830012E+02 0.41785340E+02 0.69391846E+02 0.10565837E+00 0.0000E+00 0.9000E+01
       13  1    4    4    0    0 0.15694929E+02 0.14790871E+03 -.36866500E+02 0.15323990E+03 0.10565837E+00 0.0000E+00 0.9000E+01
      -24  1    3    3    0    0 -.71345635E+02 0.18525766E+02 -.32417403E+03 0.34203716E+03 0.80419002E+02 0.0000E+00 0.9000E+01
        2  1    1    2  502    0 -.12925321E+03 -.12760134E+03 0.33185980E+03 0.37831141E+03 0.32000000E+00 0.0000E+00 0.9000E+01
#aMCatNLO 2  0  0  1  2 0.18162735D+03 0.00000000D+00  -5  7  0 0.00000000D+00 0.00000000D+00 0.00000000D+00 0.00000000D+00 0.00000000D+00
  <mgrwgt>
 0.4607065230D-03    2    2    0
 0.340666251844686D+03 0.000000000000000D+00 0.000000000000000D+00 0.340666251844686D+03
 0.340666251844686D+03 0.000000000000000D+00 0.000000000000000D+00 -.340666251844686D+03
 0.222134963499828D+03 0.123322933411238D+03 -.132140571581092D+03 -.101029943540363D+03
 0.128055287439669D+03 -.511533169770636D+01 0.274633727776823D+02 0.124971009352381D+03
 0.152851075301704D+03 -.150869419969150D+02 0.117520369702604D+03 0.965649942113195D+02
 0.178291177448170D+03 -.103120659716617D+03 -.128431708991943D+02 -.120506060023337D+03
 0.000000000000000D+00 -.000000000000000D+00 -.000000000000000D+00 0.000000000000000D+00
 0.118830698869279D+04 0.000000000000000D+00 0.000000000000000D+00 0.118830698869279D+04
 0.362430931045061D+03 0.000000000000000D+00 0.000000000000000D+00 -.362430931045061D+03
 0.228539923038576D+03 0.165337305286856D+03 -.906631482842945D+02 -.101029943540363D+03
 0.136700192848092D+03 0.195666187219335D+02 0.518298849887120D+02 0.124971009352381D+03
 0.177336272958026D+03 0.156949241615539D+02 0.147908840017000D+03 0.965649942113195D+02
 0.162549469582255D+03 -.713456349206833D+02 0.185257653693028D+02 -.120506060023337D+03
 0.845612061310899D+03 -.129253213249660D+03 -.127601342090721D+03 0.825876057647727D+03
-.698906282360D-06 0.000000000000D+00 0.000000000000D+00 0.171853527939D-05 0.000000000000D+00  7 21 2 24 -13 13 -24 2 2 0.76161506D-01 0.12335479D+00 0.12244856D+06 0.12244856D+06 0.12244856D+06 0.11145751D+01  1  2 13  3  7  1       -2 -.597224025212D-04 0.100000000000D+01
0.690941237967D-05 0.000000000000D+00 0.000000000000D+00 0.171853527939D-05 0.985846196232D-10  7 21 2 24 -13 13 -24 2 2 0.77673883D-01 0.13123576D+00 0.12244856D+06 0.12244856D+06 0.12244856D+06 0.11145751D+01  1  2  1  3  7  1       -2 0.520428925515D-03 0.100000000000D+01
  </mgrwgt>
  </event>
  <event>
  8     66 0.27011060E-05 0.17328563E+03 0.75467711E-02 0.86690038E-01
       -2 -1    0    0    0  501 0.00000000E+00 0.00000000E+00 0.24141336E+03 0.24141357E+03 0.32000000E+00 0.0000E+00 0.9000E+01
        2 -1    0    0  501    0 0.00000000E+00 0.00000000E+00 -.90278226E+03 0.90278231E+03 0.32000000E+00 0.0000E+00 0.9000E+01
       25  2    1    2    0    0 0.80040388E+02 0.57945458E+02 0.13208815E+03 0.33903841E+03 0.29620200E+03 0.0000E+00 0.0000E+00
       23  2    1    2    0    0 -.80040388E+02 -.57945458E+02 -.79345705E+03 0.80515747E+03 0.94553277E+02 0.0000E+00 0.0000E+00
       24  1    3    3    0    0 0.23061809E+02 -.24433473E+02 -.61529056E+02 0.10668590E+03 0.80419002E+02 0.0000E+00 0.9000E+01
      -11  1    4    4    0    0 -.37651816E+02 0.19705037E+02 -.15977820E+03 0.16533306E+03 0.51099893E-03 0.0000E+00 0.9000E+01
       11  1    4    4    0    0 -.42388572E+02 -.77650494E+02 -.63367885E+03 0.63982441E+03 0.51099893E-03 0.0000E+00 0.9000E+01
      -24  1    3    3    0    0 0.56978579E+02 0.82378931E+02 0.19361721E+03 0.23235251E+03 0.80419002E+02 0.0000E+00 0.9000E+01
#aMCatNLO 1  0  0  1  2 0.10495221D+04 0.00000000D+00  -5  7  0 0.00000000D+00 0.00000000D+00 0.00000000D+00 0.00000000D+00 0.00000000D+00
  <mgrwgt>
 0.3355246192D-02    5    2    0
 0.466844567010561D+03 0.000000000000000D+00 0.000000000000000D+00 0.466844567010561D+03
 0.466844567010561D+03 0.000000000000000D+00 0.000000000000000D+00 -.466844567010561D+03
 0.871555278819417D+02 0.230618089118878D+02 -.244334733485532D+02 0.168629316841930D+00
 0.894313445092243D+02 -.376518164761446D+02 0.197050368159160D+02 -.786893742563612D+02
 0.335217539803933D+03 -.423885718052070D+02 -.776504944827126D+02 -.323333278026105D+03
 0.421884721826024D+03 0.569785793694639D+02 0.823789310153499D+02 0.401854022965624D+03
 0.000000000000000D+00 -.000000000000000D+00 0.000000000000000D+00 0.000000000000000D+00
 0.289048927225386D+04 0.000000000000000D+00 0.000000000000000D+00 0.289048927225386D+04
 0.828215475323176D+03 0.000000000000000D+00 0.000000000000000D+00 -.828215475323176D+03
 0.166340153767690D+03 0.659844295999014D+02 -.129799296668423D+03 0.168629316841930D+00
 0.980692992075788D+02 -.590366614615880D+01 -.582298596275368D+02 -.786893742563612D+02
 0.567191904301613D+03 0.110410000630277D+03 -.452738201819777D+03 -.323333278026105D+03
 0.573130652160199D+03 0.225457455216282D+03 -.331200556468352D+03 0.401854022965624D+03
 0.231397273813995D+04 -.395948219300301D+03 0.971967914584089D+03 0.206227379693068D+04
0.116930267376D-03 0.000000000000D+00 0.000000000000D+00 0.179279830614D-07 0.000000000000D+00  7 -2 2 24 -11 11 -24 21 0 0.37140537D-01 0.13888960D+00 0.30027911D+05 0.30027911D+05 0.30027911D+05 0.11672984D+01  1  2  2  1  7  1       -2 0.300738486003D-02 0.100000000000D+01
0.126154790975D-05 0.000000000000D+00 -.449043015170D-06 0.179279830614D-07 0.000000000000D+00  7 -2 2 24 -11 11 -24 21 2 0.37140537D-01 0.13888960D+00 0.30027911D+05 0.30027911D+05 0.30027911D+05 0.11672984D+01  1  2  3  1  7  1       -2 0.442109280454D-04 0.100000000000D+01
0.695456738154D-05 0.000000000000D+00 0.000000000000D+00 0.179279830614D-07 0.000000000000D+00  7 -2 2 24 -11 11 -24 21 2 0.37140537D-01 0.13888960D+00 0.30027911D+05 0.30027911D+05 0.30027911D+05 0.11672984D+01  1  2 15  1  7  1       -2 0.243722712167D-03 0.100000000000D+01
0.161608483859D-03 0.000000000000D+00 -.694864346455D-04 0.179279830614D-07 0.000000000000D+00  7 -2 2 24 -11 11 -24 21 2 0.31228743D+00 0.13888960D+00 0.30027911D+05 0.30027911D+05 0.30027911D+05 0.11672984D+01  1  2  5  1  7  1       -2 0.230264986650D-04 0.100000000000D+01
0.326640992756D-04 0.000000000000D+00 -.178938480040D-04 0.179279830614D-07 0.000000000000D+00  7 21 2 24 -11 11 -24 2 2 0.31228743D+00 0.13888960D+00 0.30027911D+05 0.30027911D+05 0.30027911D+05 0.11672984D+01  1  2  5  3  7  1       -2 0.369011931139D-04 0.100000000000D+01
  </mgrwgt>
  </event>
  <event>
  8     66 0.27011060E-05 0.45744467E+03 0.75467711E-02 0.88053917E-01
       -2 -1    0    0    0  501 0.00000000E+00 0.00000000E+00 0.15228160E+03 0.15228194E+03 0.32000000E+00 0.0000E+00 0.9000E+01
        2 -1    0    0  501    0 0.00000000E+00 0.00000000E+00 -.15660253E+04 0.15660254E+04 0.32000000E+00 0.0000E+00 0.9000E+01
       25  2    1    2    0    0 -.21618254E+03 0.36217288E+03 -.97441911E+03 0.11031996E+04 0.29942040E+03 0.0000E+00 0.0000E+00
       23  2    1    2    0    0 0.21618254E+03 -.36217288E+03 -.43932462E+03 0.61510774E+03 0.86297912E+02 0.0000E+00 0.0000E+00
       24  1    3    3    0    0 -.22947920E+03 0.27368580E+03 -.87001901E+03 0.94390938E+03 0.80419002E+02 0.0000E+00 0.9000E+01
      -11  1    4    4    0    0 0.10902035E+03 -.11189991E+03 -.18959159E+03 0.24566644E+03 0.51099893E-03 0.0000E+00 0.9000E+01
       11  1    4    4    0    0 0.10716219E+03 -.25027296E+03 -.24973303E+03 0.36944130E+03 0.51099893E-03 0.0000E+00 0.9000E+01
      -24  1    3    3    0    0 0.13296658E+02 0.88487078E+02 -.10440010E+03 0.15929018E+03 0.80419002E+02 0.0000E+00 0.9000E+01
#aMCatNLO 1  0  0  1  2 0.71019841D+03 0.00000000D+00  -5  7  0 0.00000000D+00 0.00000000D+00 0.00000000D+00 0.00000000D+00 0.00000000D+00
  <mgrwgt>
 0.7516332294D-03    3    2    0
 0.488341234158516D+03 0.000000000000000D+00 0.000000000000000D+00 0.488341234158516D+03
 0.488341234158516D+03 0.000000000000000D+00 0.000000000000000D+00 -.488341234158516D+03
 0.401299775102944D+03 -.229479201949736D+03 0.273685796586933D+03 -.164346202153842D+03
 0.157775446211116D+03 0.109020353922250D+03 -.111899911474512D+03 0.220468516976997D+02
 0.288481870911107D+03 0.107162190221072D+03 -.250272963530436D+03 0.954017743917206D+02
 0.129125376091865D+03 0.132966578064140D+02 0.884870784180149D+02 0.468975760644218D+02
 0.000000000000000D+00 0.000000000000000D+00 0.000000000000000D+00 -.000000000000000D+00
 0.901850899435608D+03 0.000000000000000D+00 0.000000000000000D+00 0.901850899435608D+03
 0.102686315015053D+04 0.000000000000000D+00 0.000000000000000D+00 -.102686315015053D+04
 0.472304357764157D+03 -.429438841430631D+03 0.719499667614121D+02 -.164346202153842D+03
 0.197060735649874D+03 0.278017420472822D+02 -.193839967509865D+03 0.220468516976997D+02
 0.431082849280070D+03 -.575392994117477D+02 -.416437454378854D+03 0.954017743917206D+02
 0.107149022537618D+03 -.407842946422211D+02 0.339257386981445D+02 0.468975760644218D+02
 0.721117084354420D+03 0.499960693437318D+03 0.504401716429162D+03 -.125012250714924D+03
0.322534791959D-04 0.000000000000D+00 0.000000000000D+00 0.515572287665D-07 0.000000000000D+00  7 -2 2 24 -11 11 -24 21 0 0.23427967D-01 0.24092700D+00 0.20925563D+06 0.20925563D+06 0.20925563D+06 0.10963196D+01  1  2  2  1  7  1       -2 0.742956884168D-03 0.100000000000D+01
-.178255339380D-05 0.000000000000D+00 -.123861852648D-06 0.515572287665D-07 0.000000000000D+00  7 -2 2 24 -11 11 -24 21 2 0.23427967D-01 0.24092700D+00 0.20925563D+06 0.20925563D+06 0.20925563D+06 0.10963196D+01  1  2  3  1  7  1       -2 -.493519089028D-04 0.100000000000D+01
0.209593638007D-05 0.000000000000D+00 0.000000000000D+00 0.515572287665D-07 0.000000000000D+00  7 -2 2 24 -11 11 -24 21 2 0.23427967D-01 0.24092700D+00 0.20925563D+06 0.20925563D+06 0.20925563D+06 0.10963196D+01  1  2 15  1  7  1       -2 0.580282541073D-04 0.100000000000D+01
  </mgrwgt>
  </event>
  <event>
  8     66 0.27011060E-05 0.23300680E+03 0.75467711E-02 0.95079021E-01
       -2 -1    0    0    0  501 0.00000000E+00 0.00000000E+00 0.18858617E+03 0.18858644E+03 0.32000000E+00 0.0000E+00 0.9000E+01
        2 -1    0    0  501    0 0.00000000E+00 0.00000000E+00 -.10961990E+04 0.10961990E+04 0.32000000E+00 0.0000E+00 0.9000E+01
       25  2    1    2    0    0 0.11805809E+02 -.19004480E+03 -.99303215E+03 0.10545098E+04 0.29936875E+03 0.0000E+00 0.0000E+00
       23  2    1    2    0    0 -.11805809E+02 0.19004480E+03 0.85419373E+02 0.23027564E+03 0.97334454E+02 0.0000E+00 0.0000E+00
       24  1    3    3    0    0 -.62178867E+01 -.21273123E+02 -.70965792E+03 0.71454376E+03 0.80419002E+02 0.0000E+00 0.9000E+01
      -11  1    4    4    0    0 0.15230748E+02 0.81909889E+02 0.84702693E+02 0.11880973E+03 0.51099893E-03 0.0000E+00 0.9000E+01
       11  1    4    4    0    0 -.27036557E+02 0.10813492E+03 0.71667928E+00 0.11146591E+03 0.51099893E-03 0.0000E+00 0.9000E+01
      -24  1    3    3    0    0 0.18023696E+02 -.16877168E+03 -.28337424E+03 0.33996604E+03 0.80419002E+02 0.0000E+00 0.9000E+01
#aMCatNLO 1  0  0  2  2 0.35477519D+03 0.00000000D+00  -5  7  0 0.00000000D+00 0.00000000D+00 0.00000000D+00 0.00000000D+00 0.00000000D+00
  <mgrwgt>
 0.8986311862D-03    3    2    0
 0.454673691291995D+03 0.000000000000000D+00 0.000000000000000D+00 0.454673691291995D+03
 0.454673691291995D+03 0.000000000000000D+00 0.000000000000000D+00 -.454673691291995D+03
 0.301249913207061D+03 -.621788673851639D+01 -.212731228026243D+02 -.289470354930557D+03
 0.252403275402246D+03 0.152307476623535D+02 0.819098887569665D+02 0.238256600922722D+03
 0.158201638160691D+03 -.270365571087537D+02 0.108134916047878D+03 0.112265857800801D+03
 0.197492555813991D+03 0.180236961849166D+02 -.168771682002220D+03 -.610521037929660D+02
 0.000000000000000D+00 0.000000000000000D+00 -.000000000000000D+00 0.000000000000000D+00
 0.770342802639764D+03 0.000000000000000D+00 0.000000000000000D+00 0.770342802639764D+03
 0.599519556028735D+03 0.000000000000000D+00 0.000000000000000D+00 -.599519556028735D+03
 0.324908653870940D+03 -.123391373671189D+03 -.893867583985517D+01 -.289470354930557D+03
 0.268368421810712D+03 -.822216212208898D+02 0.921683619564305D+02 0.238256600922722D+03
 0.184722125597904D+03 -.912081188573695D+02 0.114890033998419D+03 0.112265857800801D+03
 0.198104326714968D+03 -.560046228108992D+02 -.160978977369973D+03 -.610521037929660D+02
 0.393758830673975D+03 0.352825736560348D+03 -.371407427450217D+02 0.170823246611030D+03
0.285096224159D-04 0.000000000000D+00 0.000000000000D+00 0.976867027852D-07 0.000000000000D+00  7 -2 2 24 -11 11 -24 21 0 0.29013281D-01 0.16864602D+00 0.54292169D+05 0.54292169D+05 0.54292169D+05 0.11441626D+01  1  2  2  2  7  2        2 0.858240474448D-03 0.100000000000D+01
-.723232237025D-06 0.000000000000D+00 -.109484456833D-06 0.976867027852D-07 0.000000000000D+00  7 -2 2 24 -11 11 -24 21 2 0.29013281D-01 0.16864602D+00 0.54292169D+05 0.54292169D+05 0.54292169D+05 0.11441626D+01  1  2  3  2  7  2        2 -.285016997109D-04 0.100000000000D+01
0.174814882590D-05 0.000000000000D+00 0.000000000000D+00 0.976867027852D-07 0.000000000000D+00  7 -2 2 24 -11 11 -24 21 2 0.29013281D-01 0.16864602D+00 0.54292169D+05 0.54292169D+05 0.54292169D+05 0.11441626D+01  1  2 15  2  7  2        2 0.688924115036D-04 0.100000000000D+01
  </mgrwgt>
  </event>
  <event>
  8     66 0.27011060E-05 0.12705155E+03 0.75467711E-02 0.98934699E-01
       -2 -1    0    0    0  501 0.00000000E+00 0.00000000E+00 0.53567057E+02 0.53568013E+02 0.32000000E+00 0.0000E+00 0.9000E+01
        2 -1    0    0  501    0 0.00000000E+00 0.00000000E+00 -.30291324E+04 0.30291324E+04 0.32000000E+00 0.0000E+00 0.9000E+01
       25  2    1    2    0    0 -.25693317E+03 0.15202887E+02 -.25287574E+04 0.25594354E+04 0.29974986E+03 0.0000E+00 0.0000E+00
       23  2    1    2    0    0 0.25693317E+03 -.15202887E+02 -.44680795E+03 0.52326500E+03 0.89011986E+02 0.0000E+00 0.0000E+00
       24  1    3    3    0    0 -.25865652E+03 -.10138452E+02 -.13092194E+04 0.13369849E+04 0.80419002E+02 0.0000E+00 0.9000E+01
      -13  1    4    4    0    0 0.96995835E+02 -.12616649E+02 -.25734984E+03 0.27531132E+03 0.10565837E+00 0.0000E+00 0.9000E+01
       13  1    4    4    0    0 0.15993734E+03 -.25862377E+01 -.18945811E+03 0.24795368E+03 0.10565837E+00 0.0000E+00 0.9000E+01
      -24  1    3    3    0    0 0.17233449E+01 0.25341339E+02 -.12195380E+04 0.12224505E+04 0.80419002E+02 0.0000E+00 0.9000E+01
#aMCatNLO 1  0  0  1  2 0.81946029D+02 0.00000000D+00  -5  7  0 0.00000000D+00 0.00000000D+00 0.00000000D+00 0.00000000D+00 0.00000000D+00
  <mgrwgt>
 0.1324534102D-02    6    2    0
 0.402819076534371D+03 0.000000000000000D+00 0.000000000000000D+00 0.402819076534371D+03
 0.402819076534371D+03 0.000000000000000D+00 0.000000000000000D+00 -.402819076534371D+03
 0.280344307390709D+03 -.258656518764210D+03 -.101384524289650D+02 -.715523012567114D+02
 0.102950555226275D+03 0.969957464168216D+02 -.126166631439243D+02 0.321163791476360D+02
 0.249022587752141D+03 0.159937427439251D+03 -.258622367516259D+01 0.190854866225593D+03
 0.173320702699617D+03 0.172334490813792D+01 0.253413392480519D+02 -.151418944116518D+03
 0.000000000000000D+00 0.000000000000000D+00 0.000000000000000D+00 -.000000000000000D+00
 0.442326966149103D+03 0.000000000000000D+00 0.000000000000000D+00 0.442326966149103D+03
 0.449749570052205D+03 0.000000000000000D+00 0.000000000000000D+00 -.449749570052205D+03
 0.291783067183069D+03 -.268610545307113D+03 -.374003405742971D+02 -.715523012567114D+02
 0.101303399146707D+03 0.934420809680463D+02 -.223493707625841D+02 0.321163791476360D+02
 0.244974952973526D+03 0.151342724841468D+03 -.261252226775528D+02 0.190854866225593D+03
 0.171733607491461D+03 -.428000314865373D+01 0.889949006105618D+01 -.151418944116518D+03
 0.822815094065446D+02 0.281057426462517D+02 0.769754439533778D+02 -.742260390310231D+01
0.588280567921D-04 0.000000000000D+00 0.000000000000D+00 0.746286086237D-06 0.000000000000D+00  7 -2 2 24 -13 13 -24 21 0 0.82411606D-02 0.46602044D+00 0.93992970D+05 0.93992970D+05 0.93992970D+05 0.11239366D+01  1  2  2  1  7  1       -2 0.110259447684D-02 0.100000000000D+01
-.297207081609D-05 0.000000000000D+00 -.225915227865D-06 0.746286086237D-06 0.000000000000D+00  7 -2 2 24 -13 13 -24 21 2 0.82411606D-02 0.46602044D+00 0.93992970D+05 0.93992970D+05 0.93992970D+05 0.11239366D+01  1  2  3  1  7  1       -2 -.703678174982D-04 0.100000000000D+01
0.351854328254D-05 0.000000000000D+00 0.000000000000D+00 0.746286086237D-06 0.000000000000D+00  7 -2 2 24 -13 13 -24 21 2 0.82411606D-02 0.46602044D+00 0.93992970D+05 0.93992970D+05 0.93992970D+05 0.11239366D+01  1  2 15  1  7  1       -2 0.833062961438D-04 0.100000000000D+01
0.349504839276D-04 0.000000000000D+00 0.000000000000D+00 0.746286086237D-06 0.000000000000D+00  7 -2 2 24 -13 13 -24 21 2 0.94813753D-02 0.46602044D+00 0.12093065D+06 0.12093065D+06 0.12093065D+06 0.11150113D+01  1  2 12  1  7  1       -2 0.650075041159D-03 0.100000000000D+01
-.273188103895D-04 0.000000000000D+00 0.000000000000D+00 0.746286086237D-06 0.000000000000D+00  7 -2 2 24 -13 13 -24 21 2 0.82411606D-02 0.46602044D+00 0.93992970D+05 0.93992970D+05 0.93992970D+05 0.11239366D+01  1  2  4  1  7  1       -2 -.646809979543D-03 0.100000000000D+01
0.754517498321D-06 0.000000000000D+00 0.000000000000D+00 0.746286086237D-06 0.000000000000D+00  7 21 2 24 -13 13 -24 2 2 0.94813753D-02 0.46602044D+00 0.12093065D+06 0.12093065D+06 0.12093065D+06 0.11150113D+01  1  2 12  3  7  1       -2 0.205736084657D-03 0.100000000000D+01
  </mgrwgt>
  </event>
  <event>
  8     66 0.27011060E-05 0.11493868E+03 0.75467711E-02 0.10333904E+00
       -2 -1    0    0    0  501 0.00000000E+00 0.00000000E+00 0.64545194E+02 0.64545987E+02 0.32000000E+00 0.0000E+00 0.9000E+01
        2 -1    0    0  501    0 0.00000000E+00 0.00000000E+00 -.13674908E+04 0.13674908E+04 0.32000000E+00 0.0000E+00 0.9000E+01
       25  2    1    2    0    0 -.42384284E+02 0.21146380E+02 -.31812464E+03 0.44194771E+03 0.30310212E+03 0.0000E+00 0.0000E+00
       23  2    1    2    0    0 0.42384284E+02 -.21146380E+02 -.98482096E+03 0.99008911E+03 0.90335615E+02 0.0000E+00 0.0000E+00
       24  1    3    3    0    0 -.72359352E+02 -.92067578E+02 -.75709292E+02 0.16097027E+03 0.80419002E+02 0.0000E+00 0.9000E+01
      -11  1    4    4    0    0 0.60965606E+02 0.18762112E+01 -.84361121E+03 0.84581333E+03 0.51099893E-03 0.0000E+00 0.9000E+01
       11  1    4    4    0    0 -.18581322E+02 -.23022591E+02 -.14120975E+03 0.14427578E+03 0.51099893E-03 0.0000E+00 0.9000E+01
      -24  1    3    3    0    0 0.29975068E+02 0.11321396E+03 -.24241535E+03 0.28097744E+03 0.80419002E+02 0.0000E+00 0.9000E+01
#aMCatNLO 1  0  0  1  2 0.11531027D+03 0.00000000D+00  -5  7  0 0.00000000D+00 0.00000000D+00 0.00000000D+00 0.00000000D+00 0.00000000D+00
  <mgrwgt>
 0.9864981843D-03    9    2    0
 0.297095191967270D+03 0.000000000000000D+00 0.000000000000000D+00 0.297095191967270D+03
 0.297095191967270D+03 0.000000000000000D+00 0.000000000000000D+00 -.297095191967270D+03
 0.221932678213797D+03 -.723593522307781D+02 -.920675778772753D+02 0.170512706134565D+03
 0.188586565292606D+03 0.609656062966364D+02 0.187621119726319D+01 -.178450461723384D+03
 0.380679285085257D+02 -.185813220299531D+02 -.230225913591363D+02 -.239554156645135D+02
 0.145603211919611D+03 0.299750679640948D+02 0.113213958039149D+03 0.318931712533332D+02
 0.000000000000000D+00 0.000000000000000D+00 -.000000000000000D+00 0.000000000000000D+00
 0.365493647911862D+03 0.000000000000000D+00 0.000000000000000D+00 0.365493647911862D+03
 0.355522621191077D+03 0.000000000000000D+00 0.000000000000000D+00 -.355522621191077D+03
 0.214706805210977D+03 -.879638622301541D+02 -.530996444221228D+02 0.170512706134565D+03
 0.188044682633787D+03 0.475056552444604D+02 0.354887037991954D+02 -.178450461723384D+03
 0.359709890560881D+02 -.212273058984253D+02 -.164149809109931D+02 -.239554156645135D+02
 0.166553221235245D+03 0.188193013249248D+02 0.141072389483248D+03 0.318931712533332D+02
 0.115740570966842D+03 0.428662115591943D+02 -.107046467949328D+03 0.997102672078499D+01
0.751432293079D-05 0.000000000000D+00 0.000000000000D+00 0.380536799374D-07 0.000000000000D+00  7 -2 2 24 -11 11 -24 21 0 0.99300937D-02 0.21038326D+00 0.35100400D+05 0.35100400D+05 0.35100400D+05 0.11610614D+01  1  2  2  1  7  1       -2 0.905465111909D-03 0.100000000000D+01
-.309560227045D-06 0.000000000000D+00 -.288569786209D-07 0.380536799374D-07 0.000000000000D+00  7 -2 2 24 -11 11 -24 21 2 0.99300937D-02 0.21038326D+00 0.35100400D+05 0.35100400D+05 0.35100400D+05 0.11610614D+01  1  2  3  1  7  1       -2 -.502848814159D-04 0.100000000000D+01
0.460540985253D-06 0.000000000000D+00 0.000000000000D+00 0.380536799374D-07 0.000000000000D+00  7 -2 2 24 -11 11 -24 21 2 0.99300937D-02 0.21038326D+00 0.35100400D+05 0.35100400D+05 0.35100400D+05 0.11610614D+01  1  2 15  1  7  1       -2 0.748101558513D-04 0.100000000000D+01
0.133639165298D-05 0.000000000000D+00 0.000000000000D+00 0.380536799374D-07 0.000000000000D+00  7 -2 2 24 -11 11 -24 21 2 0.12995846D-01 0.21038326D+00 0.61352979D+05 0.61352979D+05 0.61352979D+05 0.11395599D+01  1  2 12  1  7  1       -2 0.137375366140D-03 0.100000000000D+01
-.320055507633D-05 0.000000000000D+00 0.000000000000D+00 0.380536799374D-07 0.000000000000D+00  7 -2 2 24 -11 11 -24 21 2 0.99300937D-02 0.21038326D+00 0.35100400D+05 0.35100400D+05 0.35100400D+05 0.11610614D+01  1  2  4  1  7  1       -2 -.519897320190D-03 0.100000000000D+01
-.373345811023D-05 0.000000000000D+00 -.310649371231D-05 0.380536799374D-07 0.000000000000D+00  7 -2 2 24 -11 11 -24 21 2 0.14828264D-01 0.21038326D+00 0.35100400D+05 0.35100400D+05 0.35100400D+05 0.11610614D+01  1  2  5  1  7  1       -2 -.325971660874D-03 0.100000000000D+01
0.482036097474D-05 0.000000000000D+00 0.287247510256D-05 0.380536799374D-07 0.000000000000D+00  7 -2 2 24 -11 11 -24 21 2 0.99300937D-02 0.21038326D+00 0.35100400D+05 0.35100400D+05 0.35100400D+05 0.11610614D+01  1  2  6  1  7  1       -2 0.783018161958D-03 0.100000000000D+01
0.477333540203D-07 0.000000000000D+00 0.000000000000D+00 0.380536799374D-07 0.000000000000D+00  7 21 2 24 -11 11 -24 2 2 0.12995846D-01 0.21038326D+00 0.61352979D+05 0.61352979D+05 0.61352979D+05 0.11395599D+01  1  2 12  3  7  1       -2 0.690004093546D-04 0.100000000000D+01
-.716484158568D-07 0.000000000000D+00 -.148130265915D-06 0.380536799374D-07 0.000000000000D+00  7 21 2 24 -11 11 -24 2 2 0.14828264D-01 0.21038326D+00 0.35100400D+05 0.35100400D+05 0.35100400D+05 0.11610614D+01  1  2  5  3  7  1       -2 -.870171584325D-04 0.100000000000D+01
  </mgrwgt>
  </event>
  <event>
  8     66 0.27011060E-05 0.19820544E+03 0.75467711E-02 0.98530443E-01
       -2 -1    0    0    0  501 0.00000000E+00 0.00000000E+00 0.26569268E+02 0.26571195E+02 0.32000000E+00 0.0000E+00 0.9000E+01
        2 -1    0    0  501    0 0.00000000E+00 0.00000000E+00 -.18043877E+04 0.18043877E+04 0.32000000E+00 0.0000E+00 0.9000E+01
       25  2    1    2    0    0 -.31014283E+02 -.73035262E+02 -.14537383E+04 0.14864995E+04 0.30004978E+03 0.0000E+00 0.0000E+00
       23  2    1    2    0    0 0.31014283E+02 0.73035262E+02 -.32408015E+03 0.34445937E+03 0.85605392E+02 0.0000E+00 0.0000E+00
       24  1    3    3    0    0 -.53632857E+02 -.16178702E+03 -.89017708E+03 0.90990877E+03 0.80419002E+02 0.0000E+00 0.9000E+01
      -11  1    4    4    0    0 0.13172073E+02 0.65301221E+02 -.31674688E+03 0.32367629E+03 0.51099893E-03 0.0000E+00 0.9000E+01
       11  1    4    4    0    0 0.17842210E+02 0.77340405E+01 -.73332664E+01 0.20783086E+02 0.51099893E-03 0.0000E+00 0.9000E+01
      -24  1    3    3    0    0 0.22618574E+02 0.88751761E+02 -.56356118E+03 0.57659075E+03 0.80419002E+02 0.0000E+00 0.9000E+01
#aMCatNLO 1  0  0  2  2 0.25155035D+03 0.00000000D+00  -5  7  0 0.00000000D+00 0.00000000D+00 0.00000000D+00 0.00000000D+00 0.00000000D+00
  <mgrwgt>
 0.1734703401D-02    3    2    0
 0.218959011801959D+03 0.000000000000000D+00 0.000000000000000D+00 0.218959011801959D+03
 0.218959011801959D+03 0.000000000000000D+00 0.000000000000000D+00 -.218959011801959D+03
 0.190520507436417D+03 -.536328569242317D+02 -.161787023054281D+03 -.279163684751040D+02
 0.674088368580422D+02 0.131720727401068D+02 0.653012214606527D+02 -.103052540982875D+02
 0.571242981443347D+02 0.178422105064826D+02 0.773404055728818D+01 0.537124341226818D+02
 0.122864381165124D+03 0.226185736776423D+02 0.887517610363404D+02 -.154908115492902D+02
 0.000000000000000D+00 0.000000000000000D+00 -.000000000000000D+00 0.000000000000000D+00
 0.404336234458163D+03 0.000000000000000D+00 0.000000000000000D+00 0.404336234458163D+03
 0.356707902571655D+03 0.000000000000000D+00 0.000000000000000D+00 -.356707902571655D+03
 0.202840736724823D+03 -.146058076025146D+03 -.112093101124437D+03 -.279163684751040D+02
 0.888377711035943D+02 -.235400517738919D+02 0.850400921630899D+02 -.103052540982875D+02
 0.589549202180915D+02 -.943207578749799D+01 0.223985040767681D+02 0.537124341226818D+02
 0.154391102400806D+03 -.425261226946494D+02 0.123777866326212D+03 -.154908115492902D+02
 0.256019606582504D+03 0.221556326281185D+03 -.119123361441633D+03 0.476283318865076D+02
0.645895326424D-05 0.000000000000D+00 0.000000000000D+00 0.209838634695D-07 0.000000000000D+00  7 -2 2 24 -11 11 -24 21 0 0.40877300D-02 0.27759825D+00 0.39285396D+05 0.39285396D+05 0.39285396D+05 0.11566237D+01  1  2  2  2  7  2        2 0.171585070243D-02 0.100000000000D+01
-.354504407435D-06 0.000000000000D+00 -.248040812161D-07 0.209838634695D-07 0.000000000000D+00  7 -2 2 24 -11 11 -24 21 2 0.40877300D-02 0.27759825D+00 0.39285396D+05 0.39285396D+05 0.39285396D+05 0.11566237D+01  1  2  3  2  7  2        2 -.125986261705D-03 0.100000000000D+01
0.407552769955D-06 0.000000000000D+00 0.000000000000D+00 0.209838634695D-07 0.000000000000D+00  7 -2 2 24 -11 11 -24 21 2 0.40877300D-02 0.27759825D+00 0.39285396D+05 0.39285396D+05 0.39285396D+05 0.11566237D+01  1  2 15  2  7  2        2 0.144838960694D-03 0.100000000000D+01
  </mgrwgt>
  </event>
  <event>
  8     66 0.27011060E-05 0.29064028E+03 0.75467711E-02 0.82419510E-01
       -2 -1    0    0    0  501 0.00000000E+00 0.00000000E+00 0.36101266E+03 0.36101280E+03 0.32000000E+00 0.0000E+00 0.9000E+01
        2 -1    0    0  501    0 0.00000000E+00 0.00000000E+00 -.46303984E+03 0.46303995E+03 0.32000000E+00 0.0000E+00 0.9000E+01
       25  2    1    2    0    0 0.23557643E+03 0.12270853E+03 -.28210938E+03 0.49037138E+03 0.30054076E+03 0.0000E+00 0.0000E+00
       23  2    1    2    0    0 -.23557643E+03 -.12270853E+03 0.18008220E+03 0.33368137E+03 0.91433133E+02 0.0000E+00 0.0000E+00
       24  1    3    3    0    0 0.16450957E+03 0.75870745E+02 -.15063619E+02 0.19878103E+03 0.80419002E+02 0.0000E+00 0.9000E+01
      -11  1    4    4    0    0 -.27671914E+02 -.19575354E+02 -.81518885E+01 0.34862338E+02 0.51099893E-03 0.0000E+00 0.9000E+01
       11  1    4    4    0    0 -.20790452E+03 -.10313317E+03 0.18823409E+03 0.29881903E+03 0.51099893E-03 0.0000E+00 0.9000E+01
      -24  1    3    3    0    0 0.71066862E+02 0.46837782E+02 -.26704576E+03 0.29159035E+03 0.80419002E+02 0.0000E+00 0.9000E+01
#aMCatNLO 1  0  0  1  1 0.16734812D+04 0.00000000D+00  -5  7  0 0.00000000D+00 0.00000000D+00 0.00000000D+00 0.00000000D+00 0.00000000D+00
  <mgrwgt>
 0.7791944171D-03    5    2    0
 0.408856145100058D+03 0.000000000000000D+00 0.000000000000000D+00 0.408856145100058D+03
 0.408856145100058D+03 0.000000000000000D+00 0.000000000000000D+00 -.408856145100058D+03
 0.198442848260067D+03 0.164509572470908D+03 0.758707445666881D+02 0.962178546492459D+01
 0.341155337364751D+02 -.276719141901213D+02 -.195753539834221D+02 -.386527147854564D+01
 0.324622292316150D+03 -.207904520380300D+03 -.103133172847719D+03 0.226977734001359D+03
 0.260531615887423D+03 0.710668620995141D+02 0.468377822644529D+02 -.232734247987737D+03
 0.000000000000000D+00 -.000000000000000D+00 0.000000000000000D+00 0.000000000000000D+00
 0.193241345121456D+04 0.000000000000000D+00 0.000000000000000D+00 0.193241345121456D+04
 0.163063645210613D+04 0.000000000000000D+00 0.000000000000000D+00 -.163063645210613D+04
 0.397374713164005D+03 0.268823861808048D+03 -.281212729574746D+03 0.962178546492459D+01
 0.100282511731907D+03 -.414183131068017D+01 -.100122360484814D+03 -.386527147854564D+01
 0.822710133506985D+03 -.703235013553484D+01 -.790748770529718D+03 0.226977734001359D+03
 0.542209507772475D+03 0.211608825374544D+03 -.434258458986912D+03 -.232734247987737D+03
 0.170047303714532D+04 -.469258505736376D+03 0.160634231957619D+04 0.301776999108431D+03
0.296848619668D-04 0.000000000000D+00 0.000000000000D+00 0.225107637233D-05 0.000000000000D+00  7 -2 2 24 -11 11 -24 21 0 0.55540428D-01 0.71236918D-01 0.84471773D+05 0.84471773D+05 0.84471773D+05 0.11277863D+01  1  2  2  1  7  1       -2 0.763405900750D-03 0.100000000000D+01
-.141562069677D-05 0.000000000000D+00 -.113997686156D-06 0.225107637233D-05 0.000000000000D+00  7 -2 2 24 -11 11 -24 21 2 0.55540428D-01 0.71236918D-01 0.84471773D+05 0.84471773D+05 0.84471773D+05 0.11277863D+01  1  2  3  1  7  1       -2 -.463042651543D-04 0.100000000000D+01
0.187376468888D-05 0.000000000000D+00 0.000000000000D+00 0.225107637233D-05 0.000000000000D+00  7 -2 2 24 -11 11 -24 21 2 0.55540428D-01 0.71236918D-01 0.84471773D+05 0.84471773D+05 0.84471773D+05 0.11277863D+01  1  2 15  1  7  1       -2 0.612899325279D-04 0.100000000000D+01
0.619849978111D-04 0.000000000000D+00 -.197446869778D-04 0.225107637233D-05 0.000000000000D+00  7 -2 2 24 -11 11 -24 21 2 0.54523722D+00 0.71236918D-01 0.84471773D+05 0.84471773D+05 0.84471773D+05 0.11277863D+01  1  2  5  1  7  1       -2 0.219348193656D-06 0.100000000000D+01
0.137926597591D-04 0.000000000000D+00 -.537742786385D-05 0.225107637233D-05 0.000000000000D+00  7 21 2 24 -11 11 -24 2 2 0.54523722D+00 0.71236918D-01 0.84471773D+05 0.84471773D+05 0.84471773D+05 0.11277863D+01  1  2  5  3  7  1       -2 0.583500780233D-06 0.100000000000D+01
  </mgrwgt>
  </event>
  <event>
  8     66 0.27011060E-05 0.41992622E+03 0.75467711E-02 0.89755114E-01
       -2 -1    0    0    0  501 0.00000000E+00 0.00000000E+00 0.25506949E+03 0.25506969E+03 0.32000000E+00 0.0000E+00 0.9000E+01
        2 -1    0    0  501    0 0.00000000E+00 0.00000000E+00 -.89256610E+03 0.89256616E+03 0.32000000E+00 0.0000E+00 0.9000E+01
       25  2    1    2    0    0 0.30580569E+03 0.23711774E+03 -.55633241E+03 0.74160869E+03 0.30122376E+03 0.0000E+00 0.0000E+00
       23  2    1    2    0    0 -.30580569E+03 -.23711774E+03 -.81164196E+02 0.40602715E+03 0.92349766E+02 0.0000E+00 0.0000E+00
       24  1    3    3    0    0 0.26363039E+03 0.11093278E+03 -.48901442E+03 0.57219698E+03 0.80419002E+02 0.0000E+00 0.9000E+01
      -11  1    4    4    0    0 -.16415522E+03 -.11741297E+03 0.42007655E+01 0.20186725E+03 0.51099893E-03 0.0000E+00 0.9000E+01
       11  1    4    4    0    0 -.14165047E+03 -.11970477E+03 -.85364961E+02 0.20415990E+03 0.51099893E-03 0.0000E+00 0.9000E+01
      -24  1    3    3    0    0 0.42175296E+02 0.12618496E+03 -.67317993E+02 0.16941171E+03 0.80419002E+02 0.0000E+00 0.9000E+01
#aMCatNLO 1  0  0  1  1 0.56704029D+03 0.00000000D+00  -5  7  0 0.00000000D+00 0.00000000D+00 0.00000000D+00 0.00000000D+00 0.00000000D+00
  <mgrwgt>
 0.6926262210D-03    3    2    0
 0.477144136669506D+03 0.000000000000000D+00 0.000000000000000D+00 0.477144136669506D+03
 0.477144136669506D+03 0.000000000000000D+00 0.000000000000000D+00 -.477144136669506D+03
 0.361451295200142D+03 0.263630394178277D+03 0.110932781862907D+03 -.205846437960566D+03
 0.245573664422662D+03 -.164155218952424D+03 -.117412968122546D+03 0.139905981520841D+03
 0.188497913259654D+03 -.141650471539531D+03 -.119704773399595D+03 0.337249824495803D+02
 0.158765400456552D+03 0.421752963136776D+02 0.126184959659235D+03 0.322154739901442D+02
 0.000000000000000D+00 0.000000000000000D+00 -.000000000000000D+00 -.000000000000000D+00
 0.829248255667848D+03 0.000000000000000D+00 0.000000000000000D+00 0.829248255667848D+03
 0.848152468153507D+03 0.000000000000000D+00 0.000000000000000D+00 -.848152468153507D+03
 0.361061401862004D+03 0.127589583536317D+03 0.255433478839719D+03 -.205846437960566D+03
 0.301720313121090D+03 -.267204364894437D+03 -.795556823482995D+01 0.139905981520841D+03
 0.225170856473684D+03 -.219539531483546D+03 -.369720743244582D+02 0.337249824495803D+02
 0.222092832355645D+03 -.295359178173856D+02 0.202355635018294D+03 0.322154739901442D+02
 0.567355320008932D+03 0.388690230659051D+03 -.412861471298725D+03 -.189042124856595D+02
0.300925357334D-04 0.000000000000D+00 0.000000000000D+00 0.539771488232D-06 0.000000000000D+00  7 -2 2 24 -11 11 -24 21 0 0.39241480D-01 0.13731788D+00 0.17633803D+06 0.17633803D+06 0.17633803D+06 0.11020501D+01  1  2  2  1  7  1       -2 0.683924742576D-03 0.100000000000D+01
-.163863957831D-05 0.000000000000D+00 -.115563260763D-06 0.539771488232D-06 0.000000000000D+00  7 -2 2 24 -11 11 -24 21 2 0.39241480D-01 0.13731788D+00 0.17633803D+06 0.17633803D+06 0.17633803D+06 0.11020501D+01  1  2  3  1  7  1       -2 -.452309449090D-04 0.100000000000D+01
0.195387922112D-05 0.000000000000D+00 0.000000000000D+00 0.539771488232D-06 0.000000000000D+00  7 -2 2 24 -11 11 -24 21 2 0.39241480D-01 0.13731788D+00 0.17633803D+06 0.17633803D+06 0.17633803D+06 0.11020501D+01  1  2 15  1  7  1       -2 0.539324233218D-04 0.100000000000D+01
  </mgrwgt>
  </event>
  <event>
  8     66 0.27011060E-05 0.15793951E+03 0.75467711E-02 0.98810512E-01
       -2 -1    0    0    0  501 0.00000000E+00 0.00000000E+00 0.13232806E+03 0.13232845E+03 0.32000000E+00 0.0000E+00 0.9000E+01
        2 -1    0    0  501    0 0.00000000E+00 0.00000000E+00 -.77499887E+03 0.77499893E+03 0.32000000E+00 0.0000E+00 0.9000E+01
       25  2    1    2    0    0 0.16815144E+03 0.82421415E+01 -.14440827E+03 0.37346030E+03 0.30045966E+03 0.0000E+00 0.0000E+00
       23  2    1    2    0    0 -.16815144E+03 -.82421415E+01 -.49826254E+03 0.53386708E+03 0.91682397E+02 0.0000E+00 0.0000E+00
       24  1    3    3    0    0 0.21197957E+03 -.29205667E+02 -.44574791E+02 0.23290005E+03 0.80419002E+02 0.0000E+00 0.9000E+01
      -13  1    4    4    0    0 -.13131059E+03 -.45547286E+02 -.34851610E+03 0.37520729E+03 0.10565837E+00 0.0000E+00 0.9000E+01
       13  1    4    4    0    0 -.36840842E+02 0.37305145E+02 -.14974644E+03 0.15865979E+03 0.10565837E+00 0.0000E+00 0.9000E+01
      -24  1    3    3    0    0 -.43828130E+02 0.37447808E+02 -.99833475E+02 0.14056024E+03 0.80419002E+02 0.0000E+00 0.9000E+01
#aMCatNLO 1  0  0  1  2 0.16273303D+03 0.00000000D+00  -5  7  0 0.00000000D+00 0.00000000D+00 0.00000000D+00 0.00000000D+00 0.00000000D+00
  <mgrwgt>
 0.4552014031D-03    9    2    0
 0.320241005432682D+03 0.000000000000000D+00 0.000000000000000D+00 0.320241005432682D+03
 0.320241005432682D+03 0.000000000000000D+00 0.000000000000000D+00 -.320241005432682D+03
 0.285206572543546D+03 0.211979566143284D+03 -.292056665728399D+02 0.170549891953667D+03
 0.181823709757178D+03 -.131310719223220D+03 -.455473960806004D+02 -.117229651356729D+03
 0.745042233651949D+02 -.368407171996040D+02 0.373052545372658D+02 -.529335322775599D+02
 0.989475051994448D+02 -.438281297204605D+02 0.374478081161746D+02 -.386708319377924D+00
 0.000000000000000D+00 -.000000000000000D+00 0.000000000000000D+00 0.000000000000000D+00
 0.465501779770902D+03 0.000000000000000D+00 0.000000000000000D+00 0.465501779770902D+03
 0.379425832745921D+03 0.000000000000000D+00 0.000000000000000D+00 -.379425832745921D+03
 0.339432166438184D+03 0.270325044561196D+03 -.811423705355492D+02 0.170549891953667D+03
 0.170375091221754D+03 -.984129716790480D+02 -.748315946435701D+02 -.117229651356729D+03
 0.635776082167938D+02 -.239429412185528D+02 0.258241939466382D+02 -.529335322775599D+02
 0.874473707765809D+02 -.264175889794280D+02 0.219496731309605D+02 -.386708319377924D+00
 0.184095375863510D+03 -.121551542684167D+03 0.108200098101521D+03 0.860759470249811D+02
0.528648212747D-05 0.000000000000D+00 0.000000000000D+00 0.669537948320D-06 0.000000000000D+00  7 -2 2 24 -13 13 -24 21 0 0.20358198D-01 0.11923063D+00 0.67329204D+05 0.67329204D+05 0.67329204D+05 0.11360986D+01  1  2  2  1  7  1       -2 0.458781467627D-03 0.100000000000D+01
-.277885928380D-06 0.000000000000D+00 -.203014833322D-07 0.669537948320D-06 0.000000000000D+00  7 -2 2 24 -13 13 -24 21 2 0.20358198D-01 0.11923063D+00 0.67329204D+05 0.67329204D+05 0.67329204D+05 0.11360986D+01  1  2  3  1  7  1       -2 -.311270330136D-04 0.100000000000D+01
0.335661556705D-06 0.000000000000D+00 0.000000000000D+00 0.669537948320D-06 0.000000000000D+00  7 -2 2 24 -13 13 -24 21 2 0.20358198D-01 0.11923063D+00 0.67329204D+05 0.67329204D+05 0.67329204D+05 0.11360986D+01  1  2 15  1  7  1       -2 0.375986953274D-04 0.100000000000D+01
0.101400385728D-05 0.000000000000D+00 0.000000000000D+00 0.669537948320D-06 0.000000000000D+00  7 -2 2 24 -13 13 -24 21 2 0.30790647D-01 0.11923063D+00 0.12337702D+06 0.12337702D+06 0.12337702D+06 0.11143112D+01  1  2 12  1  7  1       -2 0.536615960842D-04 0.100000000000D+01
-.288941985876D-05 0.000000000000D+00 0.000000000000D+00 0.669537948320D-06 0.000000000000D+00  7 -2 2 24 -13 13 -24 21 2 0.20358198D-01 0.11923063D+00 0.67329204D+05 0.67329204D+05 0.67329204D+05 0.11360986D+01  1  2  4  1  7  1       -2 -.323654630005D-03 0.100000000000D+01
-.295586720918D-05 0.000000000000D+00 -.183028369983D-05 0.669537948320D-06 0.000000000000D+00  7 -2 2 24 -13 13 -24 21 2 0.34709600D-01 0.11923063D+00 0.67329204D+05 0.67329204D+05 0.67329204D+05 0.11360986D+01  1  2  5  1  7  1       -2 -.132513402468D-03 0.100000000000D+01
0.363538425715D-05 0.000000000000D+00 0.159747284873D-05 0.669537948320D-06 0.000000000000D+00  7 -2 2 24 -13 13 -24 21 2 0.20358198D-01 0.11923063D+00 0.67329204D+05 0.67329204D+05 0.67329204D+05 0.11360986D+01  1  2  6  1  7  1       -2 0.407212867701D-03 0.100000000000D+01
0.494811372782D-07 0.000000000000D+00 0.000000000000D+00 0.669537948320D-06 0.000000000000D+00  7 21 2 24 -13 13 -24 2 2 0.30790647D-01 0.11923063D+00 0.12337702D+06 0.12337702D+06 0.12337702D+06 0.11143112D+01  1  2 12  3  7  1       -2 0.307422768287D-04 0.100000000000D+01
-.870255438332D-07 0.000000000000D+00 -.108736564393D-06 0.669537948320D-06 0.000000000000D+00  7 21 2 24 -13 13 -24 2 2 0.34709600D-01 0.11923063D+00 0.67329204D+05 0.67329204D+05 0.67329204D+05 0.11360986D+01  1  2  5  3  7  1       -2 -.455004349465D-04 0.100000000000D+01
  </mgrwgt>
  </event>
  <event>
  8     66 0.27011060E-05 0.11359377E+03 0.75467711E-02 0.10463443E+00
       -2 -1    0    0    0  501 0.00000000E+00 0.00000000E+00 0.49398744E+03 0.49398754E+03 0.32000000E+00 0.0000E+00 0.9000E+01
        2 -1    0    0  501    0 0.00000000E+00 0.00000000E+00 -.15440139E+03 0.15440172E+03 0.32000000E+00 0.0000E+00 0.9000E+01
       25  2    1    2    0    0 0.30597962E+01 -.11384838E+03 0.37892380E+03 0.49638558E+03 0.29974086E+03 0.0000E+00 0.0000E+00
       23  2    1    2    0    0 -.30597962E+01 0.11384838E+03 -.39337750E+02 0.15200369E+03 0.92665241E+02 0.0000E+00 0.0000E+00
       24  1    3    3    0    0 0.11622600E+03 -.72694953E+02 0.27683569E+03 0.31921506E+03 0.80419002E+02 0.0000E+00 0.9000E+01
      -11  1    4    4    0    0 -.11536279E+02 0.12250961E+03 -.13909533E+02 0.12383523E+03 0.51099893E-03 0.0000E+00 0.9000E+01
       11  1    4    4    0    0 0.84764830E+01 -.86612295E+01 -.25428217E+02 0.28168455E+02 0.51099893E-03 0.0000E+00 0.9000E+01
      -24  1    3    3    0    0 -.11316621E+03 -.41153424E+02 0.10208810E+03 0.17717051E+03 0.80419002E+02 0.0000E+00 0.9000E+01
#aMCatNLO 1  0  0  1  2 0.11646767D+02 0.00000000D+00  -5  7  0 0.00000000D+00 0.00000000D+00 0.00000000D+00 0.00000000D+00 0.00000000D+00
  <mgrwgt>
 0.8238692747D-03    6    2    0
 0.276174742689671D+03 0.000000000000000D+00 0.000000000000000D+00 0.276174742689671D+03
 0.276174742689671D+03 0.000000000000000D+00 0.000000000000000D+00 -.276174742689671D+03
 0.204519211267471D+03 0.116226001768030D+03 -.726949528981418D+02 0.128716168989186D+03
 0.153918705014411D+03 -.115362792496209D+02 0.122509606005340D+03 -.924623082710163D+02
 0.486995864431267D+02 0.847648300936005D+01 -.866122951822435D+01 -.471675954311457D+02
 0.145211982654334D+03 -.113166205527769D+03 -.411534235889740D+02 0.109137347129758D+02
 0.000000000000000D+00 0.000000000000000D+00 0.000000000000000D+00 -.000000000000000D+00
 0.280922537858338D+03 0.000000000000000D+00 0.000000000000000D+00 0.280922537858338D+03
 0.283472336230316D+03 0.000000000000000D+00 0.000000000000000D+00 -.283472336230316D+03
 0.205646313210582D+03 0.115471446676595D+03 -.769524725132068D+02 0.128716168989186D+03
 0.151451785250334D+03 -.120980496677865D+02 0.119339859221237D+03 -.924623082710163D+02
 0.488590479180986D+02 0.829701067471090D+01 -.967388849276989D+01 -.471675954311457D+02
 0.146515116441959D+03 -.113702877078146D+03 -.441815519238189D+02 0.109137347129758D+02
 0.119226112676799D+02 0.203246939462577D+01 0.114680537085584D+02 -.254979837197712D+01
0.104410655577D-04 0.000000000000D+00 0.000000000000D+00 0.410306137031D-06 0.000000000000D+00  7 -2 2 24 -11 11 -24 21 0 0.75998101D-01 0.23754094D-01 0.48159729D+05 0.48159729D+05 0.48159729D+05 0.11487307D+01  1  2  2  1  7  1       -2 0.471647769003D-03 0.100000000000D+01
-.542784749018D-06 0.000000000000D+00 -.400964409373D-07 0.410306137031D-06 0.000000000000D+00  7 -2 2 24 -11 11 -24 21 2 0.75998101D-01 0.23754094D-01 0.48159729D+05 0.48159729D+05 0.48159729D+05 0.11487307D+01  1  2  3  1  7  1       -2 -.323546733495D-04 0.100000000000D+01
0.625355556985D-06 0.000000000000D+00 0.000000000000D+00 0.410306137031D-06 0.000000000000D+00  7 -2 2 24 -11 11 -24 21 2 0.75998101D-01 0.23754094D-01 0.48159729D+05 0.48159729D+05 0.48159729D+05 0.11487307D+01  1  2 15  1  7  1       -2 0.372766088401D-04 0.100000000000D+01
0.127251047636D-04 0.000000000000D+00 0.000000000000D+00 0.410306137031D-06 0.000000000000D+00  7 -2 2 24 -11 11 -24 21 2 0.78287241D-01 0.23754094D-01 0.50812703D+05 0.50812703D+05 0.50812703D+05 0.11466800D+01  1  2 12  1  7  1       -2 0.708164984172D-03 0.100000000000D+01
-.790611583949D-05 0.000000000000D+00 0.000000000000D+00 0.410306137031D-06 0.000000000000D+00  7 -2 2 24 -11 11 -24 21 2 0.75998101D-01 0.23754094D-01 0.48159729D+05 0.48159729D+05 0.48159729D+05 0.11487307D+01  1  2  4  1  7  1       -2 -.471272997100D-03 0.100000000000D+01
0.194774358398D-06 0.000000000000D+00 0.000000000000D+00 0.410306137031D-06 0.000000000000D+00  7 21 2 24 -11 11 -24 2 2 0.78287241D-01 0.23754094D-01 0.50812703D+05 0.50812703D+05 0.50812703D+05 0.11466800D+01  1  2 12  3  7  1       -2 0.110407583110D-03 0.100000000000D+01
  </mgrwgt>
  </event>
  <event>
  9     66 -.27011060E-05 0.30042737E+03 0.75467711E-02 0.10065142E+00
       -2 -1    0    0    0  502 0.00000000E+00 0.00000000E+00 0.18384490E+03 0.18384518E+03 0.32000000E+00 0.0000E+00 0.9000E+01
        2 -1    0    0  501    0 0.00000000E+00 0.00000000E+00 -.55053384E+03 0.55053393E+03 0.32000000E+00 0.0000E+00 0.9000E+01
       25  2    1    2    0    0 -.50733404E+02 0.21635077E+03 -.30201212E+03 0.47986309E+03 0.29945905E+03 0.0000E+00 0.0000E+00
       23  2    1    2    0    0 0.56512759E+02 -.21359771E+03 -.59653960E+02 0.24634462E+03 0.91155928E+02 0.0000E+00 0.0000E+00
       24  1    3    3    0    0 -.84756721E+02 -.12071601E+02 -.15518986E+03 0.19462922E+03 0.80419002E+02 0.0000E+00 0.9000E+01
      -11  1    4    4    0    0 -.93856362E+01 -.13859428E+03 -.40369927E+02 0.14465889E+03 0.51099893E-03 0.0000E+00 0.9000E+01
       11  1    4    4    0    0 0.65898395E+02 -.75003433E+02 -.19284033E+02 0.10168573E+03 0.51099893E-03 0.0000E+00 0.9000E+01
      -24  1    3    3    0    0 0.34023316E+02 0.22842237E+03 -.14682227E+03 0.28523387E+03 0.80419002E+02 0.0000E+00 0.9000E+01
       21  1    1    2  501  502 -.57793548E+01 -.27530571E+01 -.50228591E+01 0.81714061E+01 0.75000000E+00 0.0000E+00 0.9000E+01
#aMCatNLO 2  0  0  1  2 0.64015830D+01 0.00000000D+00  -5  7  0 0.00000000D+00 0.00000000D+00 0.00000000D+00 0.00000000D+00 0.00000000D+00
  <mgrwgt>
 -.5849637848D-04    3    2    0
 0.314854846346238D+03 0.000000000000000D+00 0.000000000000000D+00 0.314854846346238D+03
 0.314854846346238D+03 0.000000000000000D+00 0.000000000000000D+00 -.314854846346238D+03
 0.136153858352022D+03 -.860024385386312D+02 -.126650120012589D+02 -.671850818723084D+02
 0.144332810902737D+03 -.107070510661322D+02 -.139223748301237D+03 0.365248856193442D+02
 0.105915818419500D+03 0.649251000924273D+02 -.754670721516597D+02 0.361609318231277D+02
 0.243307205018219D+03 0.317843895123362D+02 0.227355832454156D+03 -.550073557016358D+01
 0.000000000000000D+00 -.000000000000000D+00 -.000000000000000D+00 -.000000000000000D+00
 0.317569110563482D+03 0.000000000000000D+00 0.000000000000000D+00 0.317569110563482D+03
 0.318668404060554D+03 0.000000000000000D+00 0.000000000000000D+00 -.318668404060554D+03
 0.135316209015970D+03 -.847567206225418D+02 -.120716010208541D+02 -.671850818723084D+02
 0.143633322778925D+03 -.938563623969402D+01 -.138594278292377D+03 0.365248856193442D+02
 0.106187223378631D+03 0.658983954608144D+02 -.750034325496934D+02 0.361609318231277D+02
 0.244605475692217D+03 0.340233161599076D+02 0.228422368978862D+03 -.550073557016358D+01
 0.649528375829375D+01 -.577935475848615D+01 -.275305711593713D+01 -.109929349707253D+01
-.955743079257D-06 0.000000000000D+00 0.000000000000D+00 0.221774990596D-06 0.000000000000D+00  7 -2 2 24 -11 11 -24 21 2 0.28450009D-01 0.83678275D-01 0.92159741D+05 0.92159741D+05 0.92159741D+05 0.11246435D+01  1  2 13  1  7  1       -2 -.901403269841D-04 0.100000000000D+01
-.936742299290D-05 0.000000000000D+00 0.000000000000D+00 0.221774990596D-06 0.000000000000D+00  7 -2 2 24 -11 11 -24 21 2 0.28040214D-01 0.83678275D-01 0.90256604D+05 0.90256604D+05 0.90256604D+05 0.11253939D+01  1  2  8  1  7  1       -2 -.907313388919D-03 0.100000000000D+01
0.998853241872D-05 0.000000000000D+00 0.000000000000D+00 0.221774990596D-06 0.365242887556D-07  7 -2 2 24 -11 11 -24 21 2 0.28281940D-01 0.84691796D-01 0.92159741D+05 0.92159741D+05 0.92159741D+05 0.11246435D+01  1  2  1  1  7  1       -2 0.938957337418D-03 0.100000000000D+01
  </mgrwgt>
  </event>
  <event>
  8     66 0.27011060E-05 0.13418331E+03 0.75467711E-02 0.10699661E+00
       -2 -1    0    0    0  501 0.00000000E+00 0.00000000E+00 0.87649096E+02 0.87649681E+02 0.32000000E+00 0.0000E+00 0.9000E+01
        2 -1    0    0  501    0 0.00000000E+00 0.00000000E+00 -.95172524E+03 0.95172530E+03 0.32000000E+00 0.0000E+00 0.9000E+01
       25  2    1    2    0    0 0.14565911E+02 -.43608959E+01 -.18289310E+03 0.35193234E+03 0.30029203E+03 0.0000E+00 0.0000E+00
       23  2    1    2    0    0 -.14565911E+02 0.43608959E+01 -.68118305E+03 0.68744264E+03 0.91300902E+02 0.0000E+00 0.0000E+00
       24  1    3    3    0    0 0.55612343E+02 0.11023881E+03 -.13075702E+03 0.19700239E+03 0.80419002E+02 0.0000E+00 0.9000E+01
      -11  1    4    4    0    0 0.25438960E+02 -.18704148E+02 -.11131167E+03 0.11570339E+03 0.51099893E-03 0.0000E+00 0.9000E+01
       11  1    4    4    0    0 -.40004871E+02 0.23065044E+02 -.56987138E+03 0.57173925E+03 0.51099893E-03 0.0000E+00 0.9000E+01
      -24  1    3    3    0    0 -.41046432E+02 -.11459971E+03 -.52136080E+02 0.15492995E+03 0.80419002E+02 0.0000E+00 0.9000E+01
#aMCatNLO 1  0  0  1  2 0.13516181D+02 0.00000000D+00  -5  7  0 0.00000000D+00 0.00000000D+00 0.00000000D+00 0.00000000D+00 0.00000000D+00
  <mgrwgt>
 0.5953224647D-03    9    2    0
 0.288822071696727D+03 0.000000000000000D+00 0.000000000000000D+00 0.288822071696727D+03
 0.288822071696727D+03 0.000000000000000D+00 0.000000000000000D+00 -.288822071696727D+03
 0.158878670826692D+03 0.556123430925513D+02 0.110238809557549D+03 0.594128626845787D+02
 0.416821434230055D+02 0.254389596343550D+02 -.187041476519805D+02 -.272105728287843D+02
 0.176300945050753D+03 -.400048705403507D+02 0.230650435713846D+02 -.170145929495503D+03
 0.200782384093003D+03 -.410464321865556D+02 -.114599705476953D+03 0.137943639639709D+03
 0.000000000000000D+00 -.000000000000000D+00 0.000000000000000D+00 0.000000000000000D+00
 0.295714659003988D+03 0.000000000000000D+00 0.000000000000000D+00 0.295714659003988D+03
 0.295604226553320D+03 0.000000000000000D+00 0.000000000000000D+00 -.295604226553320D+03
 0.159849850522312D+03 0.593041168269911D+02 0.109717328770933D+03 0.594128626845787D+02
 0.423441557975006D+02 0.264122207756909D+02 -.188416254667317D+02 -.272105728287843D+02
 0.175346851186318D+03 -.359317989105290D+02 0.224897026241190D+02 -.170145929495503D+03
 0.200261395481393D+03 -.364012159833530D+02 -.115255864595550D+03 0.137943639639709D+03
 0.135166325697840D+02 -.133833227088001D+02 0.189045866722937D+01 0.110432450667917D+00
0.374511757359D-05 0.000000000000D+00 0.000000000000D+00 0.182674870373D-05 0.000000000000D+00  7 -2 2 24 -11 11 -24 21 0 0.13484525D-01 0.14641932D+00 0.34410030D+05 0.34410030D+05 0.34410030D+05 0.11618495D+01  1  2  2  1  7  1       -2 0.483898252956D-03 0.100000000000D+01
-.158470327936D-06 0.000000000000D+00 -.143822375947D-07 0.182674870373D-05 0.000000000000D+00  7 -2 2 24 -11 11 -24 21 2 0.13484525D-01 0.14641932D+00 0.34410030D+05 0.34410030D+05 0.34410030D+05 0.11618495D+01  1  2  3  1  7  1       -2 -.276398899255D-04 0.100000000000D+01
0.223522796986D-06 0.000000000000D+00 0.000000000000D+00 0.182674870373D-05 0.000000000000D+00  7 -2 2 24 -11 11 -24 21 2 0.13484525D-01 0.14641932D+00 0.34410030D+05 0.34410030D+05 0.34410030D+05 0.11618495D+01  1  2 15  1  7  1       -2 0.389861344077D-04 0.100000000000D+01
0.560614611071D-05 0.000000000000D+00 0.000000000000D+00 0.182674870373D-05 0.000000000000D+00  7 -2 2 24 -11 11 -24 21 2 0.13960942D-01 0.14641932D+00 0.36466595D+05 0.36466595D+05 0.36466595D+05 0.11595512D+01  1  2 12  1  7  1       -2 0.922453947535D-03 0.100000000000D+01
-.429507065466D-05 0.000000000000D+00 0.000000000000D+00 0.182674870373D-05 0.000000000000D+00  7 -2 2 24 -11 11 -24 21 2 0.13484525D-01 0.14641932D+00 0.34410030D+05 0.34410030D+05 0.34410030D+05 0.11618495D+01  1  2  4  1  7  1       -2 -.749132545275D-03 0.100000000000D+01
-.566835720547D-04 0.000000000000D+00 -.102387986396D-04 0.182674870373D-05 0.000000000000D+00  7 -2 2 24 -11 11 -24 21 2 0.14135806D-01 0.14641932D+00 0.34410030D+05 0.34410030D+05 0.34410030D+05 0.11618495D+01  1  2  5  1  7  1       -2 -.918298078833D-02 0.100000000000D+01
0.571143504254D-04 0.000000000000D+00 0.102274193322D-04 0.182674870373D-05 0.000000000000D+00  7 -2 2 24 -11 11 -24 21 2 0.13484525D-01 0.14641932D+00 0.34410030D+05 0.34410030D+05 0.34410030D+05 0.11618495D+01  1  2  6  1  7  1       -2 0.996170311178D-02 0.100000000000D+01
0.835472584806D-07 0.000000000000D+00 0.000000000000D+00 0.182674870373D-05 0.000000000000D+00  7 21 2 24 -11 11 -24 2 2 0.13960942D-01 0.14641932D+00 0.36466595D+05 0.36466595D+05 0.36466595D+05 0.11595512D+01  1  2 12  3  7  1       -2 0.193122576293D-03 0.100000000000D+01
-.459633891356D-06 0.000000000000D+00 -.844776400148D-07 0.182674870373D-05 0.000000000000D+00  7 21 2 24 -11 11 -24 2 2 0.14135806D-01 0.14641932D+00 0.34410030D+05 0.34410030D+05 0.34410030D+05 0.11618495D+01  1  2  5  3  7  1       -2 -.104508833479D-02 0.100000000000D+01
  </mgrwgt>
  </event>
  <event>
  8     66 0.27011060E-05 0.25190930E+03 0.75467711E-02 0.97598078E-01
       -2 -1    0    0    0  501 0.00000000E+00 0.00000000E+00 0.13926443E+03 0.13926480E+03 0.32000000E+00 0.0000E+00 0.9000E+01
        2 -1    0    0  501    0 0.00000000E+00 0.00000000E+00 -.11973689E+04 0.11973689E+04 0.32000000E+00 0.0000E+00 0.9000E+01
       25  2    1    2    0    0 0.23276995E+02 0.31645151E+03 -.82174430E+03 0.93025351E+03 0.29903935E+03 0.0000E+00 0.0000E+00
       23  2    1    2    0    0 -.23276995E+02 -.31645151E+03 -.23636018E+03 0.40638023E+03 0.92711283E+02 0.0000E+00 0.0000E+00
       24  1    3    3    0    0 -.60965654E+02 0.24125131E+03 -.33986721E+03 0.42883090E+03 0.80419002E+02 0.0000E+00 0.9000E+01
      -11  1    4    4    0    0 0.26165276E+02 -.22097018E+03 -.17006992E+03 0.28006467E+03 0.51099893E-03 0.0000E+00 0.9000E+01
       11  1    4    4    0    0 -.49442271E+02 -.95481335E+02 -.66290256E+02 0.12631556E+03 0.51099893E-03 0.0000E+00 0.9000E+01
      -24  1    3    3    0    0 0.84242649E+02 0.75200206E+02 -.48187709E+03 0.50142261E+03 0.80419002E+02 0.0000E+00 0.9000E+01
#aMCatNLO 1  0  0  2  1 0.44202555D+02 0.00000000D+00  -5  7  0 0.00000000D+00 0.00000000D+00 0.00000000D+00 0.00000000D+00 0.00000000D+00
  <mgrwgt>
 0.4459195663D-03    9    2    0
 0.408351776387927D+03 0.000000000000000D+00 0.000000000000000D+00 0.408351776387927D+03
 0.408351776387927D+03 0.000000000000000D+00 0.000000000000000D+00 -.408351776387927D+03
 0.261508395943181D+03 -.609656542432888D+02 0.241251306563654D+03 -.649059644659602D+00
 0.238020446026800D+03 0.261652764520239D+02 -.220970177344207D+03 0.845061640323094D+02
 0.120846331357543D+03 -.494422711277134D+02 -.954813350122616D+02 0.551598793742976D+02
 0.196328379448331D+03 0.842426489189783D+02 0.752002057928144D+02 -.139016983761947D+03
 0.000000000000000D+00 0.000000000000000D+00 -.000000000000000D+00 -.000000000000000D+00
 0.416140594234754D+03 0.000000000000000D+00 0.000000000000000D+00 0.416140594234754D+03
 0.476875395325019D+03 0.000000000000000D+00 0.000000000000000D+00 -.476875395325019D+03
 0.275153105710746D+03 -.620167451912151D+02 0.255725473243015D+03 -.649059644659602D+00
 0.226338052842378D+03 0.252557962428979D+02 -.208446077346543D+03 0.845061640323094D+02
 0.116062837978574D+03 -.499062751276324D+02 -.890917154955422D+02 0.551598793742976D+02
 0.200344871876455D+03 0.834657352360198D+02 0.858987834609056D+02 -.139016983761947D+03
 0.751171211516200D+02 0.320148883992967D+01 -.440864638618358D+02 -.607348010902645D+02
0.665550064908D-05 0.000000000000D+00 0.000000000000D+00 0.135985206291D-06 0.000000000000D+00  7 -2 2 24 -11 11 -24 21 0 0.21425329D-01 0.18421063D+00 0.13328985D+06 0.13328985D+06 0.13328985D+06 0.11116226D+01  1  2  2  2  7  2        2 0.288509223637D-03 0.100000000000D+01
-.364111903415D-06 0.000000000000D+00 -.255588749260D-07 0.135985206291D-06 0.000000000000D+00  7 -2 2 24 -11 11 -24 21 2 0.21425329D-01 0.18421063D+00 0.13328985D+06 0.13328985D+06 0.13328985D+06 0.11116226D+01  1  2  3  2  7  2        2 -.195042207972D-04 0.100000000000D+01
0.413627246690D-06 0.000000000000D+00 0.000000000000D+00 0.135985206291D-06 0.000000000000D+00  7 -2 2 24 -11 11 -24 21 2 0.21425329D-01 0.18421063D+00 0.13328985D+06 0.13328985D+06 0.13328985D+06 0.11116226D+01  1  2 15  2  7  2        2 0.221565872237D-04 0.100000000000D+01
0.253793873584D-04 0.000000000000D+00 0.000000000000D+00 0.135985206291D-06 0.000000000000D+00  7 -2 2 24 -11 11 -24 21 2 0.21425329D-01 0.21668553D+00 0.15043061D+06 0.15043061D+06 0.15043061D+06 0.11074537D+01  1  2 12  2  7  2        2 0.102558530776D-02 0.100000000000D+01
-.257436866167D-04 0.000000000000D+00 0.000000000000D+00 0.135985206291D-06 0.000000000000D+00  7 -2 2 24 -11 11 -24 21 2 0.21425329D-01 0.18421063D+00 0.13328985D+06 0.13328985D+06 0.13328985D+06 0.11116226D+01  1  2  4  2  7  2        2 -.137900064018D-02 0.100000000000D+01
-.383777908522D-04 0.000000000000D+00 -.524690819238D-05 0.135985206291D-06 0.000000000000D+00  7 -2 2 24 -11 11 -24 21 2 0.21425329D-01 0.21686700D+00 0.13328985D+06 0.13328985D+06 0.13328985D+06 0.11116226D+01  1  2  5  2  7  2        2 -.156468998208D-02 0.100000000000D+01
0.387855326312D-04 0.000000000000D+00 0.517779791945D-05 0.135985206291D-06 0.000000000000D+00  7 -2 2 24 -11 11 -24 21 2 0.21425329D-01 0.18421063D+00 0.13328985D+06 0.13328985D+06 0.13328985D+06 0.11116226D+01  1  2  6  2  7  2        2 0.207760741981D-02 0.100000000000D+01
0.616988853666D-06 0.000000000000D+00 0.000000000000D+00 0.135985206291D-06 0.000000000000D+00  7 -2 21 24 -11 11 -24 -2 2 0.21425329D-01 0.21668553D+00 0.15043061D+06 0.15043061D+06 0.15043061D+06 0.11074537D+01  1  2 12  4  7  2        2 0.101046568653D-04 0.100000000000D+01
-.894481383693D-06 0.000000000000D+00 -.128079776981D-06 0.135985206291D-06 0.000000000000D+00  7 -2 21 24 -11 11 -24 -2 2 0.21425329D-01 0.21686700D+00 0.13328985D+06 0.13328985D+06 0.13328985D+06 0.11116226D+01  1  2  5  4  7  2        2 -.148487859736D-04 0.100000000000D+01
  </mgrwgt>
  </event>
  <event>
  8     66 0.27011060E-05 0.32922991E+03 0.75467711E-02 0.87439861E-01
       -2 -1    0    0    0  501 0.00000000E+00 0.00000000E+00 0.45024643E+03 0.45024654E+03 0.32000000E+00 0.0000E+00 0.9000E+01
        2 -1    0    0  501    0 0.00000000E+00 0.00000000E+00 -.28919038E+04 0.28919038E+04 0.32000000E+00 0.0000E+00 0.9000E+01
       25  2    1    2    0    0 0.28418251E+03 0.20069003E+02 -.28255241E+04 0.28556265E+04 0.29975617E+03 0.0000E+00 0.0000E+00
       23  2    1    2    0    0 -.28418251E+03 -.20069003E+02 0.38386674E+03 0.48652385E+03 0.90494799E+02 0.0000E+00 0.0000E+00
       24  1    3    3    0    0 0.20276727E+03 -.62805537E+02 -.23088340E+04 0.23199657E+04 0.80419002E+02 0.0000E+00 0.9000E+01
      -13  1    4    4    0    0 0.10745140E+01 0.37701524E+01 -.32327420E+01 0.50823631E+01 0.10565837E+00 0.0000E+00 0.9000E+01
       13  1    4    4    0    0 -.28525703E+03 -.23839156E+02 0.38709949E+03 0.48144148E+03 0.10565837E+00 0.0000E+00 0.9000E+01
      -24  1    3    3    0    0 0.81415244E+02 0.82874540E+02 -.51669010E+03 0.53566081E+03 0.80419002E+02 0.0000E+00 0.9000E+01
#aMCatNLO 1  0  0  1  1 0.86494190D+03 0.00000000D+00  -5  7  0 0.00000000D+00 0.00000000D+00 0.00000000D+00 0.00000000D+00 0.00000000D+00
  <mgrwgt>
 0.1343067155D-02    5    2    0
 0.114108263357942D+04 0.000000000000000D+00 0.000000000000000D+00 0.114108263357942D+04
 0.114108263357942D+04 0.000000000000000D+00 0.000000000000000D+00 -.114108263357942D+04
 0.927317852076589D+03 0.202767270288789D+03 -.628055370536508D+02 -.899106268157776D+03
 0.398275430662515D+01 0.107490436175603D+01 0.377019002102238D+01 0.701840213582365D+00
 0.111920799897631D+04 -.285257418789415D+03 -.238391934125213D+02 0.108198264443363D+04
 0.231656661799313D+03 0.814152441388699D+02 0.828745404451497D+02 -.183578216489441D+03
 0.000000000000000D+00 0.000000000000000D+00 0.000000000000000D+00 0.000000000000000D+00
 0.260432954995397D+04 0.000000000000000D+00 0.000000000000000D+00 0.260432954995397D+04
 0.135542109294888D+04 0.000000000000000D+00 0.000000000000000D+00 -.135542109294888D+04
 0.101366416190555D+04 0.194361956617124D+03 -.418185563544061D+03 -.899106268157776D+03
 0.282106678272017D+01 0.104544079640103D+01 0.252445868423020D+01 0.701840213582365D+00
 0.120848301572409D+04 -.295337354084195D+03 -.450022892440518D+03 0.108198264443363D+04
 0.215606032816331D+03 0.794783981429784D+02 0.983916464260560D+00 -.183578216489441D+03
 0.151917636567417D+04 0.204515585276919D+02 0.864700080836089D+03 0.124890845700509D+04
0.206487524850D-02 0.000000000000D+00 0.000000000000D+00 0.382162147486D-04 0.000000000000D+00  7 -2 2 24 -13 13 -24 21 0 0.69268691D-01 0.44490829D+00 0.10839233D+06 0.10839233D+06 0.10839233D+06 0.11188613D+01  1  2  2  1  7  1       -2 0.115003505426D-02 0.100000000000D+01
0.100775451949D-03 0.000000000000D+00 -.792966464836D-05 0.382162147486D-04 0.000000000000D+00  7 -2 2 24 -13 13 -24 21 2 0.69268691D-01 0.44490829D+00 0.10839233D+06 0.10839233D+06 0.10839233D+06 0.11188613D+01  1  2  3  1  7  1       -2 0.702626456662D-04 0.100000000000D+01
0.114047796735D-03 0.000000000000D+00 0.000000000000D+00 0.382162147486D-04 0.000000000000D+00  7 -2 2 24 -13 13 -24 21 2 0.69268691D-01 0.44490829D+00 0.10839233D+06 0.10839233D+06 0.10839233D+06 0.11188613D+01  1  2 15  1  7  1       -2 0.795163879296D-04 0.100000000000D+01
0.196137755906D-03 0.000000000000D+00 -.594436354251D-03 0.382162147486D-04 0.000000000000D+00  7 -2 2 24 -13 13 -24 21 2 0.18020905D+00 0.44490829D+00 0.10839233D+06 0.10839233D+06 0.10839233D+06 0.11188613D+01  1  2  5  1  7  1       -2 0.125839896510D-04 0.100000000000D+01
0.565701839697D-04 0.000000000000D+00 -.629790727493D-04 0.382162147486D-04 0.000000000000D+00  7 21 2 24 -13 13 -24 2 2 0.18020905D+00 0.44490829D+00 0.10839233D+06 0.10839233D+06 0.10839233D+06 0.11188613D+01  1  2  5  3  7  1       -2 0.306690771973D-04 0.100000000000D+01
  </mgrwgt>
  </event>
  <event>
  8     66 0.27011060E-05 0.35011856E+03 0.75467711E-02 0.95360188E-01
       -2 -1    0    0    0  501 0.00000000E+00 0.00000000E+00 0.82685308E+02 0.82685927E+02 0.32000000E+00 0.0000E+00 0.9000E+01
        2 -1    0    0  501    0 0.00000000E+00 0.00000000E+00 -.21856710E+04 0.21856711E+04 0.32000000E+00 0.0000E+00 0.9000E+01
       25  2    1    2    0    0 -.35672872E+03 0.10067586E+02 -.13909866E+04 0.14667407E+04 0.29854260E+03 0.0000E+00 0.0000E+00
       23  2    1    2    0    0 0.35672872E+03 -.10067586E+02 -.71199912E+03 0.80161632E+03 0.91045328E+02 0.0000E+00 0.0000E+00
       24  1    3    3    0    0 -.18883505E+03 -.93350590E+02 -.95853769E+03 0.98470033E+03 0.80419002E+02 0.0000E+00 0.9000E+01
      -11  1    4    4    0    0 0.74658996E+02 -.15281314E+02 -.23918164E+03 0.25102857E+03 0.51099893E-03 0.0000E+00 0.9000E+01
       11  1    4    4    0    0 0.28206972E+03 0.52137275E+01 -.47281748E+03 0.55058776E+03 0.51099893E-03 0.0000E+00 0.9000E+01
      -24  1    3    3    0    0 -.16789366E+03 0.10341818E+03 -.43244891E+03 0.48204033E+03 0.80419002E+02 0.0000E+00 0.9000E+01
#aMCatNLO 1  0  0  1  2 0.12966371D+03 0.00000000D+00  -5  7  0 0.00000000D+00 0.00000000D+00 0.00000000D+00 0.00000000D+00 0.00000000D+00
  <mgrwgt>
 0.1091964149D-02    9    2    0
 0.425115995799496D+03 0.000000000000000D+00 0.000000000000000D+00 0.425115995799496D+03
 0.425115995799496D+03 0.000000000000000D+00 0.000000000000000D+00 -.425115995799496D+03
 0.256236862910929D+03 -.188835053791180D+03 -.933505895900180D+02 -.121725526669396D+03
 0.781278847680104D+02 0.746589964796304D+02 -.152813135538910D+02 -.172186549720273D+02
 0.299449066446479D+03 0.282069721656576D+03 0.521372754812646D+01 0.100395381195069D+03
 0.216418177473575D+03 -.167893664345026D+03 0.103418175595783D+03 0.385488004463534D+02
 0.000000000000000D+00 -.000000000000000D+00 0.000000000000000D+00 0.000000000000000D+00
 0.512946703903159D+03 0.000000000000000D+00 0.000000000000000D+00 0.512946703903159D+03
 0.480723303066338D+03 0.000000000000000D+00 0.000000000000000D+00 -.480723303066338D+03
 0.260615162358463D+03 -.173035066356684D+03 -.129208393166828D+03 -.121725526669396D+03
 0.857547878769699D+02 0.796688330323124D+02 -.266510526630362D+02 -.172186549720273D+02
 0.319528893976697D+03 0.300991663564066D+03 -.377292987690485D+02 0.100395381195069D+03
 0.194163431361881D+03 -.155342326741088D+03 0.749331277250718D+02 0.385488004463534D+02
 0.133607731395485D+03 -.522831034986063D+02 0.118655616873841D+03 0.322234008368209D+02
0.276094498926D-04 0.000000000000D+00 0.000000000000D+00 0.452498913008D-06 0.000000000000D+00  7 -2 2 24 -11 11 -24 21 0 0.12720866D-01 0.33625713D+00 0.15870656D+06 0.15870656D+06 0.15870656D+06 0.11056234D+01  1  2  2  1  7  1       -2 0.803631130778D-03 0.100000000000D+01
-.152598960041D-05 0.000000000000D+00 -.106027557323D-06 0.452498913008D-06 0.000000000000D+00  7 -2 2 24 -11 11 -24 21 2 0.12720866D-01 0.33625713D+00 0.15870656D+06 0.15870656D+06 0.15870656D+06 0.11056234D+01  1  2  3  1  7  1       -2 -.542956466010D-04 0.100000000000D+01
0.173743457861D-05 0.000000000000D+00 0.000000000000D+00 0.452498913008D-06 0.000000000000D+00  7 -2 2 24 -11 11 -24 21 2 0.12720866D-01 0.33625713D+00 0.15870656D+06 0.15870656D+06 0.15870656D+06 0.11056234D+01  1  2 15  1  7  1       -2 0.618189887053D-04 0.100000000000D+01
0.164668902349D-04 0.000000000000D+00 0.000000000000D+00 0.452498913008D-06 0.000000000000D+00  7 -2 2 24 -11 11 -24 21 2 0.16039353D-01 0.33625713D+00 0.21984783D+06 0.21984783D+06 0.21984783D+06 0.10946833D+01  1  2 12  1  7  1       -2 0.391710823743D-03 0.100000000000D+01
-.166479131425D-04 0.000000000000D+00 0.000000000000D+00 0.452498913008D-06 0.000000000000D+00  7 -2 2 24 -11 11 -24 21 2 0.12720866D-01 0.33625713D+00 0.15870656D+06 0.15870656D+06 0.15870656D+06 0.11056234D+01  1  2  4  1  7  1       -2 -.592342967727D-03 0.100000000000D+01
-.328055666693D-04 0.000000000000D+00 -.128441247330D-04 0.452498913008D-06 0.000000000000D+00  7 -2 2 24 -11 11 -24 21 2 0.17821279D-01 0.33625713D+00 0.15870656D+06 0.15870656D+06 0.15870656D+06 0.11056234D+01  1  2  5  1  7  1       -2 -.678450515827D-03 0.100000000000D+01
0.357800159447D-04 0.000000000000D+00 0.121471764370D-04 0.452498913008D-06 0.000000000000D+00  7 -2 2 24 -11 11 -24 21 2 0.12720866D-01 0.33625713D+00 0.15870656D+06 0.15870656D+06 0.15870656D+06 0.11056234D+01  1  2  6  1  7  1       -2 0.127307492829D-02 0.100000000000D+01
0.526894883509D-06 0.000000000000D+00 0.000000000000D+00 0.452498913008D-06 0.000000000000D+00  7 21 2 24 -11 11 -24 2 2 0.16039353D-01 0.33625713D+00 0.21984783D+06 0.21984783D+06 0.21984783D+06 0.10946833D+01  1  2 12  3  7  1       -2 0.164792739439D-03 0.100000000000D+01
-.103564490079D-05 0.000000000000D+00 -.540086432810D-06 0.452498913008D-06 0.000000000000D+00  7 21 2 24 -11 11 -24 2 2 0.17821279D-01 0.33625713D+00 0.15870656D+06 0.15870656D+06 0.15870656D+06 0.11056234D+01  1  2  5  3  7  1       -2 -.277975332013D-03 0.100000000000D+01
  </mgrwgt>
  </event>
  <event>
  8     66 0.27011060E-05 0.29422481E+03 0.75467711E-02 0.96066405E-01
       -2 -1    0    0    0  501 0.00000000E+00 0.00000000E+00 0.16333300E+03 0.16333332E+03 0.32000000E+00 0.0000E+00 0.9000E+01
        2 -1    0    0  501    0 0.00000000E+00 0.00000000E+00 -.72633806E+03 0.72633813E+03 0.32000000E+00 0.0000E+00 0.9000E+01
       25  2    1    2    0    0 0.19174129E+03 -.12245429E+03 -.51816199E+03 0.64045826E+03 0.29989192E+03 0.0000E+00 0.0000E+00
       23  2    1    2    0    0 -.19174129E+03 0.12245429E+03 -.44843070E+02 0.24921318E+03 0.91304618E+02 0.0000E+00 0.0000E+00
       24  1    3    3    0    0 0.21221731E+03 -.45584472E+02 -.21131456E+03 0.31342494E+03 0.80419002E+02 0.0000E+00 0.9000E+01
      -13  1    4    4    0    0 -.10315704E+02 -.13609406E+02 0.32677138E+01 0.17387317E+02 0.10565837E+00 0.0000E+00 0.9000E+01
       13  1    4    4    0    0 -.18142559E+03 0.13606370E+03 -.48110784E+02 0.23182587E+03 0.10565837E+00 0.0000E+00 0.9000E+01
      -24  1    3    3    0    0 -.20476017E+02 -.76869822E+02 -.30684743E+03 0.32703333E+03 0.80419002E+02 0.0000E+00 0.9000E+01
#aMCatNLO 1  0  0  1  1 0.24130554D+03 0.00000000D+00  -5  7  0 0.00000000D+00 0.00000000D+00 0.00000000D+00 0.00000000D+00 0.00000000D+00
  <mgrwgt>
 0.1410829533D-02    3    2    0
 0.344434532286503D+03 0.000000000000000D+00 0.000000000000000D+00 0.344434532286503D+03
 0.344434532286503D+03 0.000000000000000D+00 0.000000000000000D+00 -.344434532286503D+03
 0.232081911391309D+03 0.212217309479420D+03 -.455844718992821D+02 -.167531226836176D+02
 0.251259969214070D+02 -.103154749101788D+02 -.136096059205922D+02 0.184305541250991D+02
 0.260082020550318D+03 -.181425817930401D+03 0.136063899474226D+03 0.127333990990970D+03
 0.171579135709972D+03 -.204760166388400D+02 -.768698216543519D+02 -.129011422432452D+03
 0.000000000000000D+00 0.000000000000000D+00 -.000000000000000D+00 -.000000000000000D+00
 0.379052051860984D+03 0.000000000000000D+00 0.000000000000000D+00 0.379052051860984D+03
 0.139759749262170D+04 0.000000000000000D+00 0.000000000000000D+00 -.139759749262170D+04
 0.173921700536900D+03 0.152965356985615D+03 -.101229642836301D+02 -.167531226836176D+02
 0.272752806560457D+02 -.179628896582598D+02 -.903272963356225D+01 0.184305541250991D+02
 0.354585355704134D+03 -.271130049881325D+03 0.189750692408458D+03 0.127333990990970D+03
 0.174127899253900D+03 -.709283185658377D+02 -.466747881793208D+02 -.129011422432452D+03
 0.104673930833171D+04 0.207055901119807D+03 -.123920210311945D+03 -.101854544076072D+04
0.211650887938D-04 0.000000000000D+00 0.000000000000D+00 0.223647780291D-05 0.000000000000D+00  7 -2 2 24 -13 13 -24 21 0 0.25128184D-01 0.11174435D+00 0.86568239D+05 0.86568239D+05 0.86568239D+05 0.11268990D+01  1  2  2  1  7  1       -2 0.139536172465D-02 0.100000000000D+01
-.114034708189D-05 0.000000000000D+00 -.812795138639D-07 0.223647780291D-05 0.000000000000D+00  7 -2 2 24 -13 13 -24 21 2 0.25128184D-01 0.11174435D+00 0.86568239D+05 0.86568239D+05 0.86568239D+05 0.11268990D+01  1  2  3  1  7  1       -2 -.954715067773D-04 0.100000000000D+01
0.132510032310D-05 0.000000000000D+00 0.000000000000D+00 0.223647780291D-05 0.000000000000D+00  7 -2 2 24 -13 13 -24 21 2 0.25128184D-01 0.11174435D+00 0.86568239D+05 0.86568239D+05 0.86568239D+05 0.11268990D+01  1  2 15  1  7  1       -2 0.110939315308D-03 0.100000000000D+01
  </mgrwgt>
  </event>
  <event>
  9     66 0.27011060E-05 0.34240494E+03 0.75467711E-02 0.95440032E-01
       21 -1    0    0  502  501 0.00000000E+00 0.00000000E+00 0.35886081E+03 0.35886160E+03 0.75000000E+00 0.0000E+00 0.9000E+01
        2 -1    0    0  501    0 0.00000000E+00 0.00000000E+00 -.96227090E+03 0.96227095E+03 0.32000000E+00 0.0000E+00 0.9000E+01
       25  2    1    2    0    0 -.31748904E+02 -.26152588E+03 -.61372597E+03 0.73212979E+03 0.29991779E+03 0.0000E+00 0.0000E+00
       23  2    1    2    0    0 -.18859398E+03 0.27933989E+03 -.66514098E+02 0.35497012E+03 0.89337548E+02 0.0000E+00 0.0000E+00
       24  1    3    3    0    0 -.74229513E+02 -.25465031E+03 -.31399287E+03 0.41882638E+03 0.80419002E+02 0.0000E+00 0.9000E+01
      -11  1    4    4    0    0 -.65516176E+02 0.14798331E+03 0.33707542E+01 0.16187276E+03 0.51099893E-03 0.0000E+00 0.9000E+01
       11  1    4    4    0    0 -.12307780E+03 0.13135658E+03 -.69884852E+02 0.19309736E+03 0.51099893E-03 0.0000E+00 0.9000E+01
      -24  1    3    3    0    0 0.42480609E+02 -.68755728E+01 -.29973310E+03 0.31330341E+03 0.80419002E+02 0.0000E+00 0.9000E+01
        2  1    1    2  502    0 0.22034288E+03 -.17814008E+02 0.76829986E+02 0.23403264E+03 0.32000000E+00 0.0000E+00 0.9000E+01
#aMCatNLO 2  0  0  1  2 0.22106181D+03 0.00000000D+00  -5  7  0 0.00000000D+00 0.00000000D+00 0.00000000D+00 0.00000000D+00 0.00000000D+00
  <mgrwgt>
 0.1704117826D-03    2    2    0
 0.409326073922665D+03 0.000000000000000D+00 0.000000000000000D+00 0.409326073922665D+03
 0.409326073922665D+03 0.000000000000000D+00 0.000000000000000D+00 -.409326073922665D+03
 0.280822558230945D+03 0.584007165242063D+00 -.260698741619774D+03 -.665576314970655D+02
 0.196899976232152D+03 -.116906888457903D+02 0.143631693151180D+03 0.134174756035025D+03
 0.162362415137005D+03 -.762954809625581D+02 0.127574383324711D+03 0.653094951223235D+02
 0.178567198245228D+03 0.874021626431064D+02 -.105073348561164D+02 -.132926619660283D+03
 0.000000000000000D+00 0.000000000000000D+00 -.000000000000000D+00 0.000000000000000D+00
 0.747935451827376D+03 0.000000000000000D+00 0.000000000000000D+00 0.747935451827376D+03
 0.461699962231880D+03 0.000000000000000D+00 0.000000000000000D+00 -.461699962231880D+03
 0.285050759955319D+03 -.742295132925884D+02 -.254650310902187D+03 -.665576314970655D+02
 0.210224390505484D+03 -.655161762135861D+02 0.147983309399048D+03 0.134174756035025D+03
 0.191488975437962D+03 -.123077803784675D+03 0.131356582540384D+03 0.653094951223235D+02
 0.161209732492922D+03 0.424806094581050D+02 -.687557283632147D+01 -.132926619660283D+03
 0.361661555667568D+03 0.220342883832744D+03 -.178140082009237D+02 0.286235489595495D+03
-.307637941523D-06 0.000000000000D+00 0.000000000000D+00 0.831808576912D-06 0.000000000000D+00  7 21 2 24 -11 11 -24 2 2 0.55732696D-01 0.13124830D+00 0.21682409D+06 0.21682409D+06 0.21682409D+06 0.10951415D+01  1  2 13  3  7  1       -2 -.462113593156D-04 0.100000000000D+01
0.166198827042D-05 0.000000000000D+00 0.000000000000D+00 0.831808576912D-06 0.120630553707D-10  7 21 2 24 -11 11 -24 2 2 0.55209412D-01 0.14804172D+00 0.21682409D+06 0.21682409D+06 0.21682409D+06 0.10951415D+01  1  2  1  3  7  1       -2 0.216623141929D-03 0.100000000000D+01
  </mgrwgt>
  </event>
  <event>
  8     66 0.27011060E-05 0.57492909E+03 0.75467711E-02 0.88001232E-01
       -2 -1    0    0    0  501 0.00000000E+00 0.00000000E+00 0.93860700E+03 0.93860706E+03 0.32000000E+00 0.0000E+00 0.9000E+01
        2 -1    0    0  501    0 0.00000000E+00 0.00000000E+00 -.42524026E+03 0.42524038E+03 0.32000000E+00 0.0000E+00 0.9000E+01
       25  2    1    2    0    0 0.44208240E+03 -.31360937E+03 0.98491187E+01 0.61832764E+03 0.29739599E+03 0.0000E+00 0.0000E+00
       23  2    1    2    0    0 -.44208240E+03 0.31360937E+03 0.50351763E+03 0.74551980E+03 0.92098201E+02 0.0000E+00 0.0000E+00
       24  1    3    3    0    0 0.91149090E+02 0.21041214E+01 0.62315824E+02 0.13661282E+03 0.80419002E+02 0.0000E+00 0.9000E+01
      -13  1    4    4    0    0 -.41979466E+03 0.26628558E+03 0.46317488E+03 0.67946049E+03 0.10565837E+00 0.0000E+00 0.9000E+01
       13  1    4    4    0    0 -.22287738E+02 0.47323785E+02 0.40342744E+02 0.66059308E+02 0.10565837E+00 0.0000E+00 0.9000E+01
      -24  1    3    3    0    0 0.35093331E+03 -.31571349E+03 -.52466705E+02 0.48171482E+03 0.80419002E+02 0.0000E+00 0.9000E+01
#aMCatNLO 1  0  0  2  1 0.59624599D+03 0.00000000D+00  -5  7  0 0.00000000D+00 0.00000000D+00 0.00000000D+00 0.00000000D+00 0.00000000D+00
  <mgrwgt>
 0.9790857745D-03    5    2    0
 0.631770213540595D+03 0.000000000000000D+00 0.000000000000000D+00 0.631770213540595D+03
 0.631770213540595D+03 0.000000000000000D+00 0.000000000000000D+00 -.631770213540595D+03
 0.122139478364583D+03 0.911490902024469D+02 0.210412138925211D+01 0.117580716636454D+02
 0.545216174768120D+03 -.419795187477774D+03 0.266285872246962D+03 0.223885042021474D+03
 0.549118784428509D+02 -.222872148222582D+02 0.473234971572426D+02 0.167057195713741D+02
 0.541272895505636D+03 0.350933312097585D+03 -.315713490793457D+03 -.252348833256493D+03
 0.000000000000000D+00 0.000000000000000D+00 -.000000000000000D+00 -.000000000000000D+00
 0.932589950045739D+03 0.000000000000000D+00 0.000000000000000D+00 0.932589950045739D+03
 0.107837564119826D+04 0.000000000000000D+00 0.000000000000000D+00 -.107837564119826D+04
 0.131223561792611D+03 0.847886315689620D+02 0.585238662648323D+02 0.117580716636454D+02
 0.749927949798291D+03 -.452308653623406D+03 0.554692977876133D+03 0.223885042021474D+03
 0.840874819482620D+02 -.257766728004226D+02 0.782763482371389D+02 0.167057195713741D+02
 0.431916576093161D+03 0.326502237333063D+03 -.990003440411175D+02 -.252348833256493D+03
 0.613810021611676D+03 0.667944575218047D+02 -.592492848336986D+03 -.145785691152523D+03
0.343341595931D-03 0.000000000000D+00 0.000000000000D+00 0.267201565649D-06 0.000000000000D+00  7 -2 2 24 -13 13 -24 21 0 0.14440109D+00 0.65421591D-01 0.33054346D+06 0.33054346D+06 0.33054346D+06 0.10814503D+01  1  2  2  2  7  2        2 0.100669160269D-02 0.100000000000D+01
-.188683915334D-04 0.000000000000D+00 -.131852213229D-05 0.267201565649D-06 0.000000000000D+00  7 -2 2 24 -13 13 -24 21 2 0.14440109D+00 0.65421591D-01 0.33054346D+06 0.33054346D+06 0.33054346D+06 0.10814503D+01  1  2  3  2  7  2        2 -.647020445966D-04 0.100000000000D+01
0.220880876375D-04 0.000000000000D+00 0.000000000000D+00 0.267201565649D-06 0.000000000000D+00  7 -2 2 24 -13 13 -24 21 2 0.14440109D+00 0.65421591D-01 0.33054346D+06 0.33054346D+06 0.33054346D+06 0.10814503D+01  1  2 15  2  7  2        2 0.757427801328D-04 0.100000000000D+01
-.345593615768D-04 0.000000000000D+00 -.111344973644D-03 0.267201565649D-06 0.000000000000D+00  7 -2 2 24 -13 13 -24 21 2 0.14440109D+00 0.15294464D+00 0.33054346D+06 0.33054346D+06 0.33054346D+06 0.10814503D+01  1  2  5  2  7  2        2 -.419005780007D-04 0.100000000000D+01
0.383417444627D-05 0.000000000000D+00 -.103100996190D-04 0.267201565649D-06 0.000000000000D+00  7 -2 21 24 -13 13 -24 -2 2 0.14440109D+00 0.15294464D+00 0.33054346D+06 0.33054346D+06 0.33054346D+06 0.10814503D+01  1  2  5  4  7  2        2 0.325401431094D-05 0.100000000000D+01
  </mgrwgt>
  </event>
  <event>
  8     66 0.27011060E-05 0.29036044E+03 0.75467711E-02 0.91072863E-01
       -2 -1    0    0    0  501 0.00000000E+00 0.00000000E+00 0.19809099E+03 0.19809125E+03 0.32000000E+00 0.0000E+00 0.9000E+01
        2 -1    0    0  501    0 0.00000000E+00 0.00000000E+00 -.24944121E+04 0.24944121E+04 0.32000000E+00 0.0000E+00 0.9000E+01
       25  2    1    2    0    0 0.38760708E+03 -.52712912E+03 -.14500140E+04 0.16188185E+04 0.29988031E+03 0.0000E+00 0.0000E+00
       23  2    1    2    0    0 -.38760708E+03 0.52712912E+03 -.84630713E+03 0.10736849E+04 0.91974147E+02 0.0000E+00 0.0000E+00
       24  1    3    3    0    0 -.44784980E+01 -.92613186E+02 -.17683206E+03 0.21525346E+03 0.80419002E+02 0.0000E+00 0.9000E+01
      -11  1    4    4    0    0 -.35999976E+03 0.49186031E+03 -.82004847E+03 0.10217661E+04 0.51099893E-03 0.0000E+00 0.9000E+01
       11  1    4    4    0    0 -.27607317E+02 0.35268810E+02 -.26258656E+02 0.51918878E+02 0.51099893E-03 0.0000E+00 0.9000E+01
      -24  1    3    3    0    0 0.39208557E+03 -.43451593E+03 -.12731819E+04 0.14035650E+04 0.80419002E+02 0.0000E+00 0.9000E+01
#aMCatNLO 1  0  0  2  1 0.17100101D+02 0.00000000D+00  -5  7  0 0.00000000D+00 0.00000000D+00 0.00000000D+00 0.00000000D+00 0.00000000D+00
  <mgrwgt>
 0.3172820472D-02    9    2    0
 0.702937362759254D+03 0.000000000000000D+00 0.000000000000000D+00 0.702937362759254D+03
 0.702937362759254D+03 0.000000000000000D+00 0.000000000000000D+00 -.702937362759254D+03
 0.123416029675788D+03 -.447849803138580D+01 -.926131857862806D+02 0.129244458474334D+02
 0.617419126130468D+03 -.359999758906734D+03 0.491860306536230D+03 0.983869389344446D+02
 0.565437636220294D+02 -.276073165741094D+02 0.352688098162722D+02 0.345129588743775D+02
 0.608495806090223D+03 0.392085573512229D+03 -.434515930566221D+03 -.145824343656256D+03
 0.000000000000000D+00 0.000000000000000D+00 -.000000000000000D+00 -.000000000000000D+00
 0.704771808180210D+03 0.000000000000000D+00 0.000000000000000D+00 0.704771808180210D+03
 0.744002238441534D+03 0.000000000000000D+00 0.000000000000000D+00 -.744002238441534D+03
 0.122549093899939D+03 -.536328172183993D+01 -.914071024047612D+02 0.129244458474334D+02
 0.624878694951172D+03 -.364468542264312D+03 0.497951880557467D+03 0.983869389344446D+02
 0.570924632679846D+02 -.280160878614178D+02 0.358260220047247D+02 0.345129588743775D+02
 0.601458466528408D+03 0.387733136097342D+03 -.428582952266741D+03 -.145824343656256D+03
 0.427953279742400D+02 0.101147757502271D+02 -.137878478906898D+02 -.392304302613238D+02
0.198634516364D-03 0.000000000000D+00 0.000000000000D+00 0.977491615835D-05 0.000000000000D+00  7 -2 2 24 -11 11 -24 21 0 0.30475558D-01 0.38375573D+00 0.46773310D+06 0.46773310D+06 0.46773310D+06 0.10705640D+01  1  2  2  2  7  2        2 0.854197038537D-03 0.100000000000D+01
-.110251474290D-04 0.000000000000D+00 -.762808844509D-06 0.977491615835D-05 0.000000000000D+00  7 -2 2 24 -11 11 -24 21 2 0.30475558D-01 0.38375573D+00 0.46773310D+06 0.46773310D+06 0.46773310D+06 0.10705640D+01  1  2  3  2  7  2        2 -.543391741142D-04 0.100000000000D+01
0.121954688449D-04 0.000000000000D+00 0.000000000000D+00 0.977491615835D-05 0.000000000000D+00  7 -2 2 24 -11 11 -24 21 2 0.30475558D-01 0.38375573D+00 0.46773310D+06 0.46773310D+06 0.46773310D+06 0.10705640D+01  1  2 15  2  7  2        2 0.601072873843D-04 0.100000000000D+01
0.238026752454D-02 0.000000000000D+00 0.000000000000D+00 0.977491615835D-05 0.000000000000D+00  7 -2 2 24 -11 11 -24 21 2 0.30475558D-01 0.40665862D+00 0.47958615D+06 0.47958615D+06 0.47958615D+06 0.10697922D+01  1  2 12  2  7  2        2 0.955866856901D-02 0.100000000000D+01
-.241025092067D-02 0.000000000000D+00 0.000000000000D+00 0.977491615835D-05 0.000000000000D+00  7 -2 2 24 -11 11 -24 21 2 0.30475558D-01 0.38375573D+00 0.46773310D+06 0.46773310D+06 0.46773310D+06 0.10705640D+01  1  2  4  2  7  2        2 -.118793009600D-01 0.100000000000D+01
-.512615135346D-02 0.000000000000D+00 -.314840367897D-03 0.977491615835D-05 0.000000000000D+00  7 -2 2 24 -11 11 -24 21 2 0.30475558D-01 0.40648809D+00 0.46773310D+06 0.46773310D+06 0.46773310D+06 0.10705640D+01  1  2  5  2  7  2        2 -.206758162998D-01 0.100000000000D+01
0.513628297554D-02 0.000000000000D+00 0.314319739440D-03 0.977491615835D-05 0.000000000000D+00  7 -2 2 24 -11 11 -24 21 2 0.30475558D-01 0.38375573D+00 0.46773310D+06 0.46773310D+06 0.46773310D+06 0.10705640D+01  1  2  6  2  7  2        2 0.253149789339D-01 0.100000000000D+01
0.365847861239D-04 0.000000000000D+00 0.000000000000D+00 0.977491615835D-05 0.000000000000D+00  7 -2 21 24 -11 11 -24 -2 2 0.30475558D-01 0.40665862D+00 0.47958615D+06 0.47958615D+06 0.47958615D+06 0.10697922D+01  1  2 12  4  7  2        2 0.143381394457D-04 0.100000000000D+01
-.507148321487D-04 0.000000000000D+00 -.312246718454D-05 0.977491615835D-05 0.000000000000D+00  7 -2 21 24 -11 11 -24 -2 2 0.30475558D-01 0.40648809D+00 0.46773310D+06 0.46773310D+06 0.46773310D+06 0.10705640D+01  1  2  5  4  7  2        2 -.200130627051D-04 0.100000000000D+01
  </mgrwgt>
  </event>
  <event>
  9     66 0.27011060E-05 0.25655244E+03 0.75467711E-02 0.94900434E-01
       -2 -1    0    0    0  502 0.00000000E+00 0.00000000E+00 0.71786167E+03 0.71786174E+03 0.32000000E+00 0.0000E+00 0.9000E+01
        2 -1    0    0  501    0 0.00000000E+00 0.00000000E+00 -.24443848E+04 0.24443848E+04 0.32000000E+00 0.0000E+00 0.9000E+01
       25  2    1    2    0    0 -.77674075E+02 0.13607805E+03 -.22228011E+04 0.22484187E+04 0.29998608E+03 0.0000E+00 0.0000E+00
       23  2    1    2    0    0 0.32197899E+03 0.15668061E+03 0.33837502E+03 0.50112157E+03 0.91683631E+02 0.0000E+00 0.0000E+00
       24  1    3    3    0    0 -.52448886E+02 0.11503685E+03 -.46655720E+03 0.49002775E+03 0.80419002E+02 0.0000E+00 0.9000E+01
      -11  1    4    4    0    0 0.31369543E+03 0.15165524E+03 0.34423562E+03 0.48979822E+03 0.51099893E-03 0.0000E+00 0.9000E+01
       11  1    4    4    0    0 0.82835566E+01 0.50253731E+01 -.58605947E+01 0.11323350E+02 0.51099893E-03 0.0000E+00 0.9000E+01
      -24  1    3    3    0    0 -.25225189E+02 0.21041194E+02 -.17562439E+04 0.17583910E+04 0.80419002E+02 0.0000E+00 0.9000E+01
       21  1    1    2  501  502 -.24430492E+03 -.29275866E+03 0.15790295E+03 0.41270623E+03 0.75000000E+00 0.0000E+00 0.9000E+01
#aMCatNLO 2  0  0  1  1 0.38130372D+03 0.00000000D+00  -5  7  0 0.00000000D+00 0.00000000D+00 0.00000000D+00 0.00000000D+00 0.00000000D+00
  <mgrwgt>
 0.5389071201D-03    1    2    0
 0.982791656710510D+03 0.000000000000000D+00 0.000000000000000D+00 0.982791656710510D+03
 0.982791656710510D+03 0.000000000000000D+00 0.000000000000000D+00 -.982791656710510D+03
 0.227562981385539D+03 -.808569723865303D+02 0.809945032211157D+02 -.179498565473804D+03
 0.953595186550799D+03 0.193618913900543D+03 0.776357492175541D+01 0.933699749864624D+03
 0.844289555538749D+01 0.714590794185311D+01 0.366209107777210D+01 0.260913280302960D+01
 0.775982249929294D+03 -.119907849455866D+03 -.924201692206432D+02 -.756810317193850D+03
 0.000000000000000D+00 -.000000000000000D+00 -.000000000000000D+00 0.000000000000000D+00
 0.166142376573821D+04 0.000000000000000D+00 0.000000000000000D+00 0.166142376573821D+04
 0.105616018713346D+04 0.000000000000000D+00 0.000000000000000D+00 -.105616018713346D+04
 0.233818977245009D+03 -.524488855945854D+02 0.115036853043989D+03 -.179498565473804D+03
 0.996593879378595D+03 0.313695434469451D+03 0.151655240300617D+03 0.933699749864624D+03
 0.100339054514656D+02 0.828355660110743D+01 0.502537308678228D+01 0.260913280302960D+01
 0.761779570587047D+03 -.252251891450229D+02 0.210411936676143D+02 -.756810317193850D+03
 0.715357620209549D+03 -.244304916330950D+03 -.292758660099003D+03 0.605263578604754D+03
0.138024066884D-02 0.000000000000D+00 0.000000000000D+00 0.541862040333D-04 0.264119810659D-08  7 -2 2 24 -11 11 -24 21 2 0.11044024D+00 0.37605913D+00 0.23820800D+06 0.23820800D+06 0.23820800D+06 0.10920412D+01  1  2  1  1  7  1       -2 0.538907120118D-03 0.100000000000D+01
  </mgrwgt>
  </event>
  <event>
  8     66 0.27011060E-05 0.19989091E+03 0.75467711E-02 0.98872121E-01
       -2 -1    0    0    0  501 0.00000000E+00 0.00000000E+00 0.72330886E+03 0.72330893E+03 0.32000000E+00 0.0000E+00 0.9000E+01
        2 -1    0    0  501    0 0.00000000E+00 0.00000000E+00 -.76896751E+02 0.76897417E+02 0.32000000E+00 0.0000E+00 0.9000E+01
       25  2    1    2    0    0 -.75144969E+02 0.51892881E+02 0.31583385E+03 0.44536002E+03 0.30042452E+03 0.0000E+00 0.0000E+00
       23  2    1    2    0    0 0.75144969E+02 -.51892881E+02 0.33057826E+03 0.35484633E+03 0.91073013E+02 0.0000E+00 0.0000E+00
       24  1    3    3    0    0 -.98596205E+02 -.80899033E+02 0.11076241E+03 0.18708659E+03 0.80419002E+02 0.0000E+00 0.9000E+01
      -11  1    4    4    0    0 0.32998890E+02 -.16148130E+02 0.25301218E+02 0.44607628E+02 0.51099893E-03 0.0000E+00 0.9000E+01
       11  1    4    4    0    0 0.42146079E+02 -.35744751E+02 0.30527704E+03 0.31023870E+03 0.51099893E-03 0.0000E+00 0.9000E+01
      -24  1    3    3    0    0 0.23451237E+02 0.13279191E+03 0.20507144E+03 0.25827343E+03 0.80419002E+02 0.0000E+00 0.9000E+01
#aMCatNLO 1  0  0  1  1 0.23238383D+03 0.00000000D+00  -5  7  0 0.00000000D+00 0.00000000D+00 0.00000000D+00 0.00000000D+00 0.00000000D+00
  <mgrwgt>
 0.1102862668D-02    3    2    0
 0.235839767982943D+03 0.000000000000000D+00 0.000000000000000D+00 0.235839767982943D+03
 0.235839767982943D+03 0.000000000000000D+00 0.000000000000000D+00 -.235839767982943D+03
 0.165599116824732D+03 -.985962052631933D+02 -.808990332606568D+02 -.684834743857956D+02
 0.410030369466370D+02 0.329988899896036D+02 -.161481301910436D+02 -.182087942938139D+02
 0.107955077479537D+03 0.421460785652743D+02 -.357447505484328D+02 0.927379082328949D+02
 0.157122304714980D+03 0.234512367083154D+02 0.132791914000133D+03 -.604563955328539D+01
 0.000000000000000D+00 0.000000000000000D+00 0.000000000000000D+00 -.000000000000000D+00
 0.297377629270124D+03 0.000000000000000D+00 0.000000000000000D+00 0.297377629270124D+03
 0.654581423778410D+03 0.000000000000000D+00 0.000000000000000D+00 -.654581423778410D+03
 0.247131808340320D+03 -.166526945173128D+03 -.148948665675603D+03 -.684834743857956D+02
 0.398538557355794D+02 0.196907800036010D+02 -.294795320554403D+02 -.182087942938139D+02
 0.118139470683793D+03 0.493352915382604D+01 -.730224294318000D+02 0.927379082328949D+02
 0.120692162377718D+03 -.222738135765501D+02 0.869868356487789D+02 -.604563955328539D+01
 0.426141755911124D+03 0.164176449592251D+03 0.164463791514064D+03 -.357203794508286D+03
0.252941463080D-04 0.000000000000D+00 0.000000000000D+00 0.535821259962D-06 0.000000000000D+00  7 -2 2 24 -11 11 -24 21 0 0.11127834D+00 0.11830326D-01 0.39956375D+05 0.39956375D+05 0.39956375D+05 0.11559610D+01  1  2  2  1  7  1       -2 0.109099618616D-02 0.100000000000D+01
-.135849994709D-05 0.000000000000D+00 -.971361819242D-07 0.535821259962D-06 0.000000000000D+00  7 -2 2 24 -11 11 -24 21 2 0.11127834D+00 0.11830326D-01 0.39956375D+05 0.39956375D+05 0.39956375D+05 0.11559610D+01  1  2  3  1  7  1       -2 -.782977388127D-04 0.100000000000D+01
0.156438859022D-05 0.000000000000D+00 0.000000000000D+00 0.535821259962D-06 0.000000000000D+00  7 -2 2 24 -11 11 -24 21 2 0.11127834D+00 0.11830326D-01 0.39956375D+05 0.39956375D+05 0.39956375D+05 0.11559610D+01  1  2 15  1  7  1       -2 0.901642208385D-04 0.100000000000D+01
  </mgrwgt>
  </event>
  <event>
  8     66 0.27011060E-05 0.31651331E+03 0.75467711E-02 0.83518850E-01
       -2 -1    0    0    0  501 0.00000000E+00 0.00000000E+00 0.24689024E+03 0.24689045E+03 0.32000000E+00 0.0000E+00 0.9000E+01
        2 -1    0    0  501    0 0.00000000E+00 0.00000000E+00 -.99362344E+03 0.99362349E+03 0.32000000E+00 0.0000E+00 0.9000E+01
       25  2    1    2    0    0 0.16461882E+03 0.19609744E+03 -.85980237E+03 0.94661095E+03 0.30209040E+03 0.0000E+00 0.0000E+00
       23  2    1    2    0    0 -.16461882E+03 -.19609744E+03 0.11306917E+03 0.29390299E+03 0.89670335E+02 0.0000E+00 0.0000E+00
       24  1    3    3    0    0 -.30293167E+02 0.94423769E+02 -.13893519E+03 0.18868950E+03 0.80419002E+02 0.0000E+00 0.9000E+01
      -13  1    4    4    0    0 0.89421520E+01 0.57824433E+00 0.31937901E+01 0.95135644E+01 0.10565837E+00 0.0000E+00 0.9000E+01
       13  1    4    4    0    0 -.17356097E+03 -.19667568E+03 0.10987538E+03 0.28438942E+03 0.10565837E+00 0.0000E+00 0.9000E+01
      -24  1    3    3    0    0 0.19491198E+03 0.10167367E+03 -.72086718E+03 0.75792145E+03 0.80419002E+02 0.0000E+00 0.9000E+01
#aMCatNLO 1  0  0  1  2 0.14857784D+04 0.00000000D+00  -5  7  0 0.00000000D+00 0.00000000D+00 0.00000000D+00 0.00000000D+00 0.00000000D+00
  <mgrwgt>
 0.1535951106D-02    3    2    0
 0.495293940865558D+03 0.000000000000000D+00 0.000000000000000D+00 0.495293940865558D+03
 0.495293940865558D+03 0.000000000000000D+00 0.000000000000000D+00 -.495293940865558D+03
 0.131562718542486D+03 -.302931670396794D+02 0.944237689305519D+02 -.317491550686721D+02
 0.143208235184175D+02 0.894240535141853D+01 0.578518179305082D+00 0.111707067588759D+02
 0.438968847077643D+03 -.173561220776971D+03 -.196675954805589D+03 0.351978294996145D+03
 0.405735492592569D+03 0.194911982465231D+03 0.101673667695732D+03 -.331399846686348D+03
 0.000000000000000D+00 0.000000000000000D+00 0.000000000000000D+00 -.000000000000000D+00
 0.122560018109845D+04 0.000000000000000D+00 0.000000000000000D+00 0.122560018109845D+04
 0.255146961369884D+04 0.000000000000000D+00 0.000000000000000D+00 -.255146961369884D+04
 0.257310810581656D+03 -.235240036055117D+03 0.582730973694657D+02 -.317491550686721D+02
 0.124564954366669D+02 -.516996607389472D+01 -.191076944336228D+01 0.111707067588759D+02
 0.109893320658416D+04 -.984077203853253D+03 -.339643238179869D+03 0.351978294996145D+03
 0.417021166737367D+03 -.238703032861362D+03 0.251881176683914D+02 -.331399846686348D+03
 0.199134811545743D+04 0.146319023884363D+04 0.258092792585374D+03 -.132586943260039D+04
0.713091786789D-04 0.000000000000D+00 0.000000000000D+00 0.197981025452D-06 0.000000000000D+00  7 -2 2 24 -13 13 -24 21 0 0.37983134D-01 0.15286516D+00 0.10018068D+06 0.10018068D+06 0.10018068D+06 0.11216577D+01  1  2  2  1  7  1       -2 0.150676468484D-02 0.100000000000D+01
-.299580225163D-05 0.000000000000D+00 -.273846022265D-06 0.197981025452D-06 0.000000000000D+00  7 -2 2 24 -13 13 -24 21 2 0.37983134D-01 0.15286516D+00 0.10018068D+06 0.10018068D+06 0.10018068D+06 0.11216577D+01  1  2  3  1  7  1       -2 -.796404743574D-04 0.100000000000D+01
0.409369559075D-05 0.000000000000D+00 0.000000000000D+00 0.197981025452D-06 0.000000000000D+00  7 -2 2 24 -13 13 -24 21 2 0.37983134D-01 0.15286516D+00 0.10018068D+06 0.10018068D+06 0.10018068D+06 0.11216577D+01  1  2 15  1  7  1       -2 0.108826895549D-03 0.100000000000D+01
  </mgrwgt>
  </event>
  <event>
  7     66 0.27011060E-05 0.84937455E+02 0.75467711E-02 0.99051487E-01
       -2 -1    0    0    0  501 0.00000000E+00 0.00000000E+00 0.32342956E+02 0.32344539E+02 0.32000000E+00 0.0000E+00 0.9000E+01
        2 -1    0    0  501    0 0.00000000E+00 0.00000000E+00 -.43010314E+04 0.43010314E+04 0.32000000E+00 0.0000E+00 0.9000E+01
       25  2    1    2    0    0 -.22580751E+02 -.75040198E+02 -.16648906E+04 0.16935250E+04 0.30004217E+03 0.0000E+00 0.0000E+00
       24  1    3    3    0    0 0.75340986E+02 0.58762874E+02 -.73817272E+03 0.74866249E+03 0.80419002E+02 0.0000E+00 0.9000E+01
      -13  1    1    2    0    0 0.48527643E+02 -.65558661E+02 -.23259146E+04 0.23273443E+04 0.10565837E+00 0.0000E+00 0.9000E+01
       13  1    1    2    0    0 -.25946892E+02 0.14059886E+03 -.27788324E+03 0.31250662E+03 0.10565837E+00 0.0000E+00 0.9000E+01
      -24  1    3    3    0    0 -.97921736E+02 -.13380307E+03 -.92671788E+03 0.94486252E+03 0.80419002E+02 0.0000E+00 0.9000E+01
#aMCatNLO 1  0  0  1  2 0.15108466D+03 0.00000000D+00  -5  7  0 0.00000000D+00 0.00000000D+00 0.00000000D+00 0.00000000D+00 0.00000000D+00
  <mgrwgt>
 0.3495421208D-02    9    2    0
 0.372976573985510D+03 0.000000000000000D+00 0.000000000000000D+00 0.372976573985510D+03
 0.372976573985510D+03 0.000000000000000D+00 0.000000000000000D+00 -.372976573985510D+03
 0.124906831804160D+03 0.753214019975694D+02 0.586978454204290D+02 -.396862962520449D+01
 0.209965003527622D+03 0.485441799778479D+02 -.654618895850021D+02 -.193503246248205D+03
 0.225224691415352D+03 -.259147754934005D+02 0.140663773423685D+03 0.173977840199485D+03
 0.185856621223887D+03 -.979508064820167D+02 -.133899729259112D+03 0.234940356739252D+02
 0.000000000000000D+00 0.000000000000000D+00 -.000000000000000D+00 0.000000000000000D+00
 0.495201695661529D+03 0.000000000000000D+00 0.000000000000000D+00 0.495201695661529D+03
 0.430323486805389D+03 0.000000000000000D+00 0.000000000000000D+00 -.430323486805389D+03
 0.118145983732157D+03 0.529488384739217D+02 0.683515032814127D+02 -.396862962520449D+01
 0.199947915145732D+03 0.108124516209995D+02 -.491808230154254D+02 -.193503246248205D+03
 0.245904414241068D+03 -.692813409902018D+02 0.159376246201763D+03 0.173977840199485D+03
 0.197101334439403D+03 -.133201380193980D+03 -.118689269462720D+03 0.234940356739252D+02
 0.164425534908558D+03 0.138721431089261D+03 -.598576570050306D+02 0.648782088561395D+02
0.650359048993D-03 0.000000000000D+00 0.000000000000D+00 0.300455374714D-09 0.000000000000D+00  7 -2 2 24 -13 13 -24 21 0 0.49759621D-02 0.66169726D+00 0.71218987D+05 0.71218987D+05 0.71218987D+05 0.11340228D+01  1  2  2  1  7  1       -2 0.301009612753D-02 0.100000000000D+01
-.312081158253D-04 0.000000000000D+00 -.249754999160D-05 0.300455374714D-09 0.000000000000D+00  7 -2 2 24 -13 13 -24 21 2 0.49759621D-02 0.66169726D+00 0.71218987D+05 0.71218987D+05 0.71218987D+05 0.11340228D+01  1  2  3  1  7  1       -2 -.185754049443D-03 0.100000000000D+01
0.424388208149D-04 0.000000000000D+00 0.000000000000D+00 0.300455374714D-09 0.000000000000D+00  7 -2 2 24 -13 13 -24 21 2 0.49759621D-02 0.66169726D+00 0.71218987D+05 0.71218987D+05 0.71218987D+05 0.11340228D+01  1  2 15  1  7  1       -2 0.252600408948D-03 0.100000000000D+01
0.134859664246D-03 0.000000000000D+00 0.000000000000D+00 0.300455374714D-09 0.000000000000D+00  7 -2 2 24 -13 13 -24 21 2 0.68894319D-02 0.66169726D+00 0.11867987D+06 0.11867987D+06 0.11867987D+06 0.11156692D+01  1  2 12  1  7  1       -2 0.461734979356D-03 0.100000000000D+01
-.275805650884D-03 0.000000000000D+00 0.000000000000D+00 0.300455374714D-09 0.000000000000D+00  7 -2 2 24 -13 13 -24 21 2 0.49759621D-02 0.66169726D+00 0.71218987D+05 0.71218987D+05 0.71218987D+05 0.11340228D+01  1  2  4  1  7  1       -2 -.164162478753D-02 0.100000000000D+01
-.133760317729D-03 0.000000000000D+00 -.206712825746D-03 0.300455374714D-09 0.000000000000D+00  7 -2 2 24 -13 13 -24 21 2 0.99070673D-02 0.66169726D+00 0.71218987D+05 0.71218987D+05 0.71218987D+05 0.11340228D+01  1  2  5  1  7  1       -2 -.282434748885D-03 0.100000000000D+01
0.254289624809D-03 0.000000000000D+00 0.165818023510D-03 0.300455374714D-09 0.000000000000D+00  7 -2 2 24 -13 13 -24 21 2 0.49759621D-02 0.66169726D+00 0.71218987D+05 0.71218987D+05 0.71218987D+05 0.11340228D+01  1  2  6  1  7  1       -2 0.151355909482D-02 0.100000000000D+01
0.552732720140D-05 0.000000000000D+00 0.000000000000D+00 0.300455374714D-09 0.000000000000D+00  7 21 2 24 -13 13 -24 2 2 0.68894319D-02 0.66169726D+00 0.11867987D+06 0.11867987D+06 0.11867987D+06 0.11156692D+01  1  2 12  3  7  1       -2 0.293090712749D-03 0.100000000000D+01
0.238852235626D-05 0.000000000000D+00 -.154056181084D-04 0.300455374714D-09 0.000000000000D+00  7 21 2 24 -13 13 -24 2 2 0.99070673D-02 0.66169726D+00 0.71218987D+05 0.71218987D+05 0.71218987D+05 0.11340228D+01  1  2  5  3  7  1       -2 0.741534707131D-04 0.100000000000D+01
  </mgrwgt>
  </event>
  <event>
  9     66 0.27011060E-05 0.22099646E+03 0.75467711E-02 0.10039468E+00
       -2 -1    0    0    0  501 0.00000000E+00 0.00000000E+00 0.29958116E+03 0.29958133E+03 0.32000000E+00 0.0000E+00 0.9000E+01
        2 -1    0    0  502    0 0.00000000E+00 0.00000000E+00 -.85434382E+03 0.85434388E+03 0.32000000E+00 0.0000E+00 0.9000E+01
       25  2    1    2    0    0 -.21544686E+03 0.20275301E+02 0.71593843E+02 0.37623019E+03 0.29932431E+03 0.0000E+00 0.0000E+00
       23  2    1    2    0    0 0.69270341E+02 0.20675043E+02 0.15928972E+02 0.11771343E+03 0.91525302E+02 0.0000E+00 0.0000E+00
       24  1    3    3    0    0 0.14578441E+02 0.75964189E+02 0.58356391E+02 0.12591971E+03 0.80419002E+02 0.0000E+00 0.9000E+01
      -13  1    4    4    0    0 0.83569061E+02 0.33691080E+01 -.90545221E+01 0.84125706E+02 0.10565837E+00 0.0000E+00 0.9000E+01
       13  1    4    4    0    0 -.14298720E+02 0.17305935E+02 0.24983494E+02 0.33587720E+02 0.10565837E+00 0.0000E+00 0.9000E+01
      -24  1    3    3    0    0 -.23002530E+03 -.55688888E+02 0.13237453E+02 0.25031048E+03 0.80419002E+02 0.0000E+00 0.9000E+01
       21  1    1    2  502  501 0.14617652E+03 -.40950344E+02 -.64228547E+03 0.65998159E+03 0.75000000E+00 0.0000E+00 0.9000E+01
#aMCatNLO 2  0  0  2  1 0.15180417D+03 0.00000000D+00  -5  7  0 0.00000000D+00 0.00000000D+00 0.00000000D+00 0.00000000D+00 0.00000000D+00
  <mgrwgt>
 0.6836792245D-03    2    2    0
 0.230908829308665D+03 0.000000000000000D+00 0.000000000000000D+00 0.230908829308665D+03
 0.230908829308665D+03 0.000000000000000D+00 0.000000000000000D+00 -.230908829308665D+03
 0.121498138207472D+03 0.514231926767820D+02 0.656423821507686D+02 0.366239614734732D+02
 0.117846859531296D+03 0.115174046207137D+03 -.548479020230605D+01 -.243462206122863D+02
 0.251288254050498D+02 -.585490143310337D+01 0.149404401165539D+02 0.193380775820604D+02
 0.197343835473513D+03 -.160742337450815D+03 -.750980320650165D+02 -.316158184432474D+02
 0.000000000000000D+00 0.000000000000000D+00 -.000000000000000D+00 -.000000000000000D+00
 0.250460938605918D+03 0.000000000000000D+00 0.000000000000000D+00 0.250460938605918D+03
 0.102189623198786D+04 0.000000000000000D+00 0.000000000000000D+00 -.102189623198786D+04
 0.117437723764625D+03 0.145784358472395D+02 0.759641867124450D+02 0.366239614734732D+02
 0.871085509959409D+02 0.835691954348528D+02 0.336909080935785D+01 -.243462206122863D+02
 0.296296188241421D+02 -.142988476257609D+02 0.173059534169440D+02 0.193380775820604D+02
 0.251951719041397D+03 -.230025304495040D+03 -.556888865903430D+02 -.316158184432474D+02
 0.786229557967676D+03 0.146176520838709D+03 -.409503443484038D+02 -.771435293381943D+03
-.665492073192D-05 0.000000000000D+00 0.000000000000D+00 0.205228005366D-06 0.000000000000D+00  7 -2 2 24 -13 13 -24 21 2 0.42491449D-01 0.12693554D+00 0.95923782D+05 0.95923782D+05 0.95923782D+05 0.11232082D+01  1  2 13  2  7  2        2 -.184621007183D-03 0.100000000000D+01
0.382069867027D-04 0.000000000000D+00 0.000000000000D+00 0.205228005366D-06 0.166687229658D-09  7 -2 2 24 -13 13 -24 21 2 0.46089395D-01 0.13143744D+00 0.95923782D+05 0.95923782D+05 0.95923782D+05 0.11232082D+01  1  2  1  2  7  2        2 0.868300231712D-03 0.100000000000D+01
  </mgrwgt>
  </event>
  <event>
  8     66 0.27011060E-05 0.28953516E+03 0.75467711E-02 0.10094937E+00
       -2 -1    0    0    0  501 0.00000000E+00 0.00000000E+00 0.59766223E+02 0.59767080E+02 0.32000000E+00 0.0000E+00 0.9000E+01
        2 -1    0    0  501    0 0.00000000E+00 0.00000000E+00 -.20110331E+04 0.20110331E+04 0.32000000E+00 0.0000E+00 0.9000E+01
       25  2    1    2    0    0 0.58213826E+02 0.19694875E+03 -.16764435E+04 0.17153898E+04 0.29986967E+03 0.0000E+00 0.0000E+00
       23  2    1    2    0    0 -.58213826E+02 -.19694875E+03 -.27482342E+03 0.35541041E+03 0.92795425E+02 0.0000E+00 0.0000E+00
       24  1    3    3    0    0 0.13448487E+03 0.18786026E+03 -.13019475E+04 0.13247309E+04 0.80419002E+02 0.0000E+00 0.9000E+01
      -11  1    4    4    0    0 -.41348480E+02 -.20816284E+02 -.78379437E+02 0.91029395E+02 0.51099893E-03 0.0000E+00 0.9000E+01
       11  1    4    4    0    0 -.16865345E+02 -.17613246E+03 -.19644398E+03 0.26438102E+03 0.51099893E-03 0.0000E+00 0.9000E+01
      -24  1    3    3    0    0 -.76271040E+02 0.90884859E+01 -.37449600E+03 0.39065886E+03 0.80419002E+02 0.0000E+00 0.9000E+01
#aMCatNLO 1  0  0  1  1 0.14642900D+02 0.00000000D+00  -5  7  0 0.00000000D+00 0.00000000D+00 0.00000000D+00 0.00000000D+00 0.00000000D+00
  <mgrwgt>
 0.4976924045D-03    4    2    0
 0.346688284482502D+03 0.000000000000000D+00 0.000000000000000D+00 0.346688284482502D+03
 0.346688284482502D+03 0.000000000000000D+00 0.000000000000000D+00 -.346688284482502D+03
 0.292490625745787D+03 0.134484865521127D+03 0.187860260992767D+03 -.160330575625130D+03
 0.512917383550062D+02 -.413484804175134D+02 -.208162840706826D+02 0.220868265744440D+02
 0.236762587248267D+03 -.168653452879216D+02 -.176132462785338D+03 0.157319542339736D+03
 0.112831617615944D+03 -.762710398156918D+02 0.908848586325406D+01 -.190757932890499D+02
 0.000000000000000D+00 0.000000000000000D+00 -.000000000000000D+00 -.000000000000000D+00
 0.348854189791838D+03 0.000000000000000D+00 0.000000000000000D+00 0.348854189791838D+03
 0.372430374736397D+03 0.000000000000000D+00 0.000000000000000D+00 -.372430374736397D+03
 0.293272388729811D+03 0.130039372494923D+03 0.192159689211239D+03 -.160330575625130D+03
 0.516252392766467D+02 -.421295415207808D+02 -.200608861591475D+02 0.220868265744440D+02
 0.234485526463445D+03 -.204417578495660D+02 -.172673559802520D+03 0.157319542339736D+03
 0.114148013477795D+03 -.779936415201045D+02 0.107544883366545D+02 -.190757932890499D+02
 0.277533965805375D+02 0.105255683955284D+02 -.101797315862255D+02 -.235761849445590D+02
0.106322512114D-04 0.000000000000D+00 0.000000000000D+00 0.717732374135D-06 0.000000000000D+00  7 -2 2 24 -11 11 -24 21 0 0.91948714D-02 0.30938978D+00 0.83830607D+05 0.83830607D+05 0.83830607D+05 0.11280625D+01  1  2  2  1  7  1       -2 0.649081410477D-03 0.100000000000D+01
-.567372916150D-06 0.000000000000D+00 -.408306441877D-07 0.717732374135D-06 0.000000000000D+00  7 -2 2 24 -11 11 -24 21 2 0.91948714D-02 0.30938978D+00 0.83830607D+05 0.83830607D+05 0.83830607D+05 0.11280625D+01  1  2  3  1  7  1       -2 -.440766768594D-04 0.100000000000D+01
0.628449458568D-06 0.000000000000D+00 0.000000000000D+00 0.717732374135D-06 0.000000000000D+00  7 -2 2 24 -11 11 -24 21 2 0.91948714D-02 0.30938978D+00 0.83830607D+05 0.83830607D+05 0.83830607D+05 0.11280625D+01  1  2 15  1  7  1       -2 0.488214416291D-04 0.100000000000D+01
-.200981741710D-05 0.000000000000D+00 0.000000000000D+00 0.717732374135D-06 0.000000000000D+00  7 -2 2 24 -11 11 -24 21 2 0.91948714D-02 0.30938978D+00 0.83830607D+05 0.83830607D+05 0.83830607D+05 0.11280625D+01  1  2  4  1  7  1       -2 -.156133770785D-03 0.100000000000D+01
  </mgrwgt>
  </event>
  <event>
  8     66 0.27011060E-05 0.25479121E+03 0.75467711E-02 0.10130144E+00
       -2 -1    0    0    0  501 0.00000000E+00 0.00000000E+00 0.48791609E+02 0.48792658E+02 0.32000000E+00 0.0000E+00 0.9000E+01
        2 -1    0    0  501    0 0.00000000E+00 0.00000000E+00 -.20694571E+04 0.20694571E+04 0.32000000E+00 0.0000E+00 0.9000E+01
       25  2    1    2    0    0 0.13459081E+03 0.90755120E+02 -.17848339E+04 0.18171143E+04 0.29986887E+03 0.0000E+00 0.0000E+00
       23  2    1    2    0    0 -.13459081E+03 -.90755120E+02 -.23583163E+03 0.30113547E+03 0.93353288E+02 0.0000E+00 0.0000E+00
       24  1    3    3    0    0 -.31093528E+02 -.45332063E+02 -.32027817E+03 0.33476428E+03 0.80419002E+02 0.0000E+00 0.9000E+01
      -11  1    4    4    0    0 -.81791516E+02 -.10040502E+03 -.13603420E+03 0.18781992E+03 0.51099893E-03 0.0000E+00 0.9000E+01
       11  1    4    4    0    0 -.52799290E+02 0.96499026E+01 -.99797426E+02 0.11331554E+03 0.51099893E-03 0.0000E+00 0.9000E+01
      -24  1    3    3    0    0 0.16568433E+03 0.13608718E+03 -.14645557E+04 0.14823500E+04 0.80419002E+02 0.0000E+00 0.9000E+01
#aMCatNLO 1  0  0  2  1 0.65059233D+02 0.00000000D+00  -5  7  0 0.00000000D+00 0.00000000D+00 0.00000000D+00 0.00000000D+00 0.00000000D+00
  <mgrwgt>
 0.1018085634D-02    4    2    0
 0.317762930026977D+03 0.000000000000000D+00 0.000000000000000D+00 0.317762930026977D+03
 0.317762930026977D+03 0.000000000000000D+00 0.000000000000000D+00 -.317762930026977D+03
 0.974615344036632D+02 -.310935280841463D+02 -.453320627361940D+02 -.311950850424548D+01
 0.193493153772080D+03 -.817915161959241D+02 -.100405022837872D+03 0.143765711572559D+03
 0.603805585265385D+02 -.527992904444254D+02 0.964990259001586D+01 0.276572984317912D+02
 0.284190613351671D+03 0.165684334724496D+03 0.136087182984050D+03 -.168303501500104D+03
 0.000000000000000D+00 -.000000000000000D+00 0.000000000000000D+00 0.000000000000000D+00
 0.625310293923091D+03 0.000000000000000D+00 0.000000000000000D+00 0.625310293923091D+03
 0.322883002952970D+03 0.000000000000000D+00 0.000000000000000D+00 -.322883002952970D+03
 0.947990235573071D+02 -.212782802597483D+02 -.453557313790427D+02 -.311950850424548D+01
 0.186156147007175D+03 -.624097354863087D+02 -.100451760368456D+03 0.143765711572559D+03
 0.552886536530277D+02 -.468941687947431D+02 0.963566288687185D+01 0.276572984317912D+02
 0.302603436518210D+03 0.195641228028240D+03 0.136014944460770D+03 -.168303501500104D+03
 0.309346036140342D+03 -.650590434874396D+02 0.156884399857236D+00 0.302427290970121D+03
0.133043804899D-04 0.000000000000D+00 0.000000000000D+00 0.495904429825D-06 0.000000000000D+00  7 -2 2 24 -11 11 -24 21 0 0.75064840D-02 0.31837810D+00 0.64918561D+05 0.64918561D+05 0.64918561D+05 0.11374525D+01  1  2  2  2  7  2        2 0.103308197855D-02 0.100000000000D+01
-.695295090189D-06 0.000000000000D+00 -.510923242052D-07 0.495904429825D-06 0.000000000000D+00  7 -2 2 24 -11 11 -24 21 2 0.75064840D-02 0.31837810D+00 0.64918561D+05 0.64918561D+05 0.64918561D+05 0.11374525D+01  1  2  3  2  7  2        2 -.698515116729D-04 0.100000000000D+01
0.839675430600D-06 0.000000000000D+00 0.000000000000D+00 0.495904429825D-06 0.000000000000D+00  7 -2 2 24 -11 11 -24 21 2 0.75064840D-02 0.31837810D+00 0.64918561D+05 0.64918561D+05 0.64918561D+05 0.11374525D+01  1  2 15  2  7  2        2 0.843564106371D-04 0.100000000000D+01
-.293652476969D-06 0.000000000000D+00 0.000000000000D+00 0.495904429825D-06 0.000000000000D+00  7 -2 2 24 -11 11 -24 21 2 0.75064840D-02 0.31837810D+00 0.64918561D+05 0.64918561D+05 0.64918561D+05 0.11374525D+01  1  2  4  2  7  2        2 -.295012430150D-04 0.100000000000D+01
  </mgrwgt>
  </event>
  <event>
  8     66 0.27011060E-05 0.22781301E+03 0.75467711E-02 0.81413728E-01
       -2 -1    0    0    0  501 0.00000000E+00 0.00000000E+00 0.43702782E+03 0.43702794E+03 0.32000000E+00 0.0000E+00 0.9000E+01
        2 -1    0    0  501    0 0.00000000E+00 0.00000000E+00 -.11329244E+04 0.11329245E+04 0.32000000E+00 0.0000E+00 0.9000E+01
       25  2    1    2    0    0 0.13837521E+03 -.93744230E+02 0.35895131E+03 0.49755723E+03 0.30129964E+03 0.0000E+00 0.0000E+00
       23  2    1    2    0    0 -.13837521E+03 0.93744230E+02 -.10548479E+04 0.10723952E+04 0.96910395E+02 0.0000E+00 0.0000E+00
       24  1    3    3    0    0 0.96630670E+02 0.34227085E+02 0.30511786E+03 0.33177267E+03 0.80419002E+02 0.0000E+00 0.9000E+01
      -13  1    4    4    0    0 -.43604641E+02 0.17843401E+02 -.10847164E+03 0.11826182E+03 0.10565837E+00 0.0000E+00 0.9000E+01
       13  1    4    4    0    0 -.94770565E+02 0.75900829E+02 -.94637627E+03 0.95413335E+03 0.10565837E+00 0.0000E+00 0.9000E+01
      -24  1    3    3    0    0 0.41744536E+02 -.12797131E+03 0.53833449E+02 0.16578456E+03 0.80419002E+02 0.0000E+00 0.9000E+01
#aMCatNLO 1  0  0  1  1 0.19196215D+04 0.00000000D+00  -5  7  0 0.00000000D+00 0.00000000D+00 0.00000000D+00 0.00000000D+00 0.00000000D+00
  <mgrwgt>
 0.1089989619D-02    5    2    0
 0.703647369342790D+03 0.000000000000000D+00 0.000000000000000D+00 0.703647369342790D+03
 0.703647369342790D+03 0.000000000000000D+00 0.000000000000000D+00 -.703647369342790D+03
 0.520998029322509D+03 0.966306704242555D+02 0.342270847094314D+02 0.504443010467207D+03
 0.782917188568471D+02 -.436045794608607D+02 0.178433317162306D+02 -.625287886086532D+02
 0.596438520113570D+03 -.947706265213361D+02 0.759008985668740D+02 -.583949047623815D+03
 0.211566470392654D+03 0.417445355579414D+02 -.127971314992536D+03 0.142034825765261D+03
 0.000000000000000D+00 0.000000000000000D+00 0.000000000000000D+00 0.000000000000000D+00
 0.689633926092084D+04 0.000000000000000D+00 0.000000000000000D+00 0.689633926092084D+04
 0.135155166731510D+04 0.000000000000000D+00 0.000000000000000D+00 -.135155166731510D+04
 0.758402057688325D+03 -.336466362062470D+03 -.448368265539324D+03 0.504443010467207D+03
 0.154030146268096D+03 -.122249181246434D+03 -.697894994901243D+02 -.625287886086532D+02
 0.101806930064075D+04 -.641306892380905D+03 -.533098565437141D+03 -.583949047623815D+03
 0.449713881919972D+03 -.182109254305018D+03 -.377409177688437D+03 0.142034825765261D+03
 0.586767554171879D+04 0.128213168999483D+04 0.142866550815503D+04 0.554478759360574D+04
0.167209811355D-03 0.000000000000D+00 0.000000000000D+00 0.169418324048D-06 0.000000000000D+00  7 -2 2 24 -13 13 -24 21 0 0.67235062D-01 0.17429608D+00 0.51898766D+05 0.51898766D+05 0.51898766D+05 0.11458743D+01  1  2  2  1  7  1       -2 0.974351357781D-03 0.100000000000D+01
0.507531733442D-05 0.000000000000D+00 -.642129702956D-06 0.169418324048D-06 0.000000000000D+00  7 -2 2 24 -13 13 -24 21 2 0.67235062D-01 0.17429608D+00 0.51898766D+05 0.51898766D+05 0.51898766D+05 0.11458743D+01  1  2  3  1  7  1       -2 0.388321108676D-04 0.100000000000D+01
0.100258955419D-04 0.000000000000D+00 0.000000000000D+00 0.169418324048D-06 0.000000000000D+00  7 -2 2 24 -13 13 -24 21 2 0.67235062D-01 0.17429608D+00 0.51898766D+05 0.51898766D+05 0.51898766D+05 0.11458743D+01  1  2 15  1  7  1       -2 0.767098215889D-04 0.100000000000D+01
0.236797715930D-03 0.000000000000D+00 -.119277309538D-03 0.169418324048D-06 0.000000000000D+00  7 -2 2 24 -13 13 -24 21 2 0.72534340D+00 0.17429608D+00 0.51898766D+05 0.51898766D+05 0.51898766D+05 0.11458743D+01  1  2  5  1  7  1       -2 0.775580018531D-07 0.100000000000D+01
0.458960859671D-04 0.000000000000D+00 -.334691085108D-04 0.169418324048D-06 0.000000000000D+00  7 21 2 24 -13 13 -24 2 2 0.72534340D+00 0.17429608D+00 0.51898766D+05 0.51898766D+05 0.51898766D+05 0.11458743D+01  1  2  5  3  7  1       -2 0.187711077662D-07 0.100000000000D+01
  </mgrwgt>
  </event>
  <event>
  8     66 0.27011060E-05 0.26500610E+03 0.75467711E-02 0.94296123E-01
       -2 -1    0    0    0  501 0.00000000E+00 0.00000000E+00 0.11759626E+03 0.11759669E+03 0.32000000E+00 0.0000E+00 0.9000E+01
        2 -1    0    0  501    0 0.00000000E+00 0.00000000E+00 -.80356002E+03 0.80356009E+03 0.32000000E+00 0.0000E+00 0.9000E+01
       25  2    1    2    0    0 -.60632966E+02 0.16921913E+03 -.22222974E+03 0.41515294E+03 0.30108875E+03 0.0000E+00 0.0000E+00
       23  2    1    2    0    0 0.60632966E+02 -.16921913E+03 -.46373402E+03 0.50600384E+03 0.93162060E+02 0.0000E+00 0.0000E+00
       24  1    3    3    0    0 0.98804645E+02 0.66240177E+02 -.76394164E+02 0.16264502E+03 0.80419002E+02 0.0000E+00 0.9000E+01
      -13  1    4    4    0    0 0.81455721E+01 -.39909143E+02 -.23155845E+03 0.23511362E+03 0.10565837E+00 0.0000E+00 0.9000E+01
       13  1    4    4    0    0 0.52487394E+02 -.12930999E+03 -.23217558E+03 0.27089022E+03 0.10565837E+00 0.0000E+00 0.9000E+01
      -24  1    3    3    0    0 -.15943761E+03 0.10297896E+03 -.14583558E+03 0.25250792E+03 0.80419002E+02 0.0000E+00 0.9000E+01
#aMCatNLO 1  0  0  2  2 0.37307581D+03 0.00000000D+00  -5  7  0 0.00000000D+00 0.00000000D+00 0.00000000D+00 0.00000000D+00 0.00000000D+00
  <mgrwgt>
 0.1274031524D-02    3    2    0
 0.307401824532607D+03 0.000000000000000D+00 0.000000000000000D+00 0.307401824532607D+03
 0.307401824532607D+03 0.000000000000000D+00 0.000000000000000D+00 -.307401824532607D+03
 0.158453737425986D+03 0.988046419478806D+02 0.662401786796219D+02 0.670093456760750D+02
 0.939092698103551D+02 0.814551614118211D+01 -.399090297125205D+02 -.846160201765184D+02
 0.146824714619474D+03 0.524874506476225D+02 -.129310106297873D+03 -.456230287994557D+02
 0.215615927209399D+03 -.159437608736685D+03 0.102978957330772D+03 0.632297032998991D+02
 0.000000000000000D+00 0.000000000000000D+00 0.000000000000000D+00 0.000000000000000D+00
 0.686177716944322D+03 0.000000000000000D+00 0.000000000000000D+00 0.686177716944322D+03
 0.466111902293884D+03 0.000000000000000D+00 0.000000000000000D+00 -.466111902293884D+03
 0.133256459651546D+03 0.813555639074622D+02 -.134568903486925D+02 0.670093456760750D+02
 0.132447126036881D+03 -.539432735985418D+01 -.101751027303173D+03 -.846160201765184D+02
 0.241583323211963D+03 0.292542478609363D+02 -.235425636410716D+03 -.456230287994557D+02
 0.211857784872845D+03 -.185007582762543D+03 -.138095618259770D+02 0.632297032998991D+02
 0.433144925464972D+03 0.797920983539987D+02 0.364443115888559D+03 0.220065814650438D+03
0.125149174843D-04 0.000000000000D+00 0.000000000000D+00 0.950817385060D-07 0.000000000000D+00  7 -2 2 24 -13 13 -24 21 0 0.18091770D-01 0.12362466D+00 0.70228231D+05 0.70228231D+05 0.70228231D+05 0.11345395D+01  1  2  2  2  7  2        2 0.125940968456D-02 0.100000000000D+01
-.676655668122D-06 0.000000000000D+00 -.480605783931D-07 0.950817385060D-07 0.000000000000D+00  7 -2 2 24 -13 13 -24 21 2 0.18091770D-01 0.12362466D+00 0.70228231D+05 0.70228231D+05 0.70228231D+05 0.11345395D+01  1  2  3  2  7  2        2 -.876488000770D-04 0.100000000000D+01
0.789537424865D-06 0.000000000000D+00 0.000000000000D+00 0.950817385060D-07 0.000000000000D+00  7 -2 2 24 -13 13 -24 21 2 0.18091770D-01 0.12362466D+00 0.70228231D+05 0.70228231D+05 0.70228231D+05 0.11345395D+01  1  2 15  2  7  2        2 0.102270639508D-03 0.100000000000D+01
  </mgrwgt>
  </event>
  <event>
  8     66 0.27011060E-05 0.24212256E+03 0.75467711E-02 0.92077732E-01
       -2 -1    0    0    0  501 0.00000000E+00 0.00000000E+00 0.83816504E+02 0.83817115E+02 0.32000000E+00 0.0000E+00 0.9000E+01
        2 -1    0    0  501    0 0.00000000E+00 0.00000000E+00 -.10141474E+04 0.10141474E+04 0.32000000E+00 0.0000E+00 0.9000E+01
       25  2    1    2    0    0 0.50622197E+02 -.14820933E+03 -.33934156E+03 0.48005178E+03 0.30127796E+03 0.0000E+00 0.0000E+00
       23  2    1    2    0    0 -.50622197E+02 0.14820933E+03 -.59098929E+03 0.61791273E+03 0.89549968E+02 0.0000E+00 0.0000E+00
       24  1    3    3    0    0 -.79917635E+02 -.64482490E+02 -.25421114E+03 0.28571899E+03 0.80419002E+02 0.0000E+00 0.9000E+01
      -11  1    4    4    0    0 -.66795035E+02 0.61107233E+02 -.26177895E+03 0.27699077E+03 0.51099893E-03 0.0000E+00 0.9000E+01
       11  1    4    4    0    0 0.16172838E+02 0.87102096E+02 -.32921034E+03 0.34092196E+03 0.51099893E-03 0.0000E+00 0.9000E+01
      -24  1    3    3    0    0 0.13053983E+03 -.83726838E+02 -.85130418E+02 0.19433279E+03 0.80419002E+02 0.0000E+00 0.9000E+01
#aMCatNLO 1  0  0  1  2 0.55102439D+03 0.00000000D+00  -5  7  0 0.00000000D+00 0.00000000D+00 0.00000000D+00 0.00000000D+00 0.00000000D+00
  <mgrwgt>
 0.6668227118D-03    5    2    0
 0.291552137492540D+03 0.000000000000000D+00 0.000000000000000D+00 0.291552137492540D+03
 0.291552137492540D+03 0.000000000000000D+00 0.000000000000000D+00 -.291552137492540D+03
 0.132410012852721D+03 -.799176349000765D+02 -.644824904788248D+02 -.228117426540262D+02
 0.103900815826584D+03 -.667950353676598D+02 0.611072329195228D+02 -.509873402383564D+02
 0.116695563421849D+03 0.161728384746264D+02 0.871020957235454D+02 -.759573481539665D+02
 0.230097882883927D+03 0.130539831793110D+03 -.837268381642434D+02 0.149756431046349D+03
 0.000000000000000D+00 0.000000000000000D+00 0.000000000000000D+00 0.000000000000000D+00
 0.691914752644913D+03 0.000000000000000D+00 0.000000000000000D+00 0.691914752644913D+03
 0.662182045118139D+03 0.000000000000000D+00 0.000000000000000D+00 -.662182045118139D+03
 0.270929949821216D+03 -.234841898910806D+03 -.106135426078240D+03 -.228117426540262D+02
 0.188915751767748D+03 -.179266883988752D+03 0.308680531675565D+02 -.509873402383564D+02
 0.124427034178253D+03 -.764431788470934D+02 0.622013545155138D+02 -.759573481539665D+02
 0.217998085237023D+03 -.415753675218507D+02 -.130001728405130D+03 0.149756431046349D+03
 0.551825976758811D+03 0.532127329268502D+03 0.143067746800299D+03 0.297327075267735D+02
0.449998704466D-05 0.000000000000D+00 0.000000000000D+00 0.430699857341D-07 0.000000000000D+00  7 -2 2 24 -11 11 -24 21 0 0.12894898D-01 0.15602272D+00 0.58623335D+05 0.58623335D+05 0.58623335D+05 0.11412665D+01  1  2  2  1  7  1       -2 0.571622145323D-03 0.100000000000D+01
-.239508837117D-06 0.000000000000D+00 -.172811351253D-07 0.430699857341D-07 0.000000000000D+00  7 -2 2 24 -11 11 -24 21 2 0.12894898D-01 0.15602272D+00 0.58623335D+05 0.58623335D+05 0.58623335D+05 0.11412665D+01  1  2  3  1  7  1       -2 -.396272062374D-04 0.100000000000D+01
0.279202464583D-06 0.000000000000D+00 0.000000000000D+00 0.430699857341D-07 0.000000000000D+00  7 -2 2 24 -11 11 -24 21 2 0.12894898D-01 0.15602272D+00 0.58623335D+05 0.58623335D+05 0.58623335D+05 0.11412665D+01  1  2 15  1  7  1       -2 0.461945946515D-04 0.100000000000D+01
0.406522986352D-05 0.000000000000D+00 -.200394300741D-05 0.430699857341D-07 0.000000000000D+00  7 -2 2 24 -11 11 -24 21 2 0.72776672D-01 0.15602272D+00 0.58623335D+05 0.58623335D+05 0.58623335D+05 0.11412665D+01  1  2  5  1  7  1       -2 0.304358507294D-04 0.100000000000D+01
0.757580595944D-06 0.000000000000D+00 -.424702666175D-06 0.430699857341D-07 0.000000000000D+00  7 21 2 24 -11 11 -24 2 2 0.72776672D-01 0.15602272D+00 0.58623335D+05 0.58623335D+05 0.58623335D+05 0.11412665D+01  1  2  5  3  7  1       -2 0.581973272841D-04 0.100000000000D+01
  </mgrwgt>
  </event>
  <event>
  8     66 0.27011060E-05 0.18066659E+03 0.75467711E-02 0.96027862E-01
       -2 -1    0    0    0  501 0.00000000E+00 0.00000000E+00 0.35731241E+03 0.35731255E+03 0.32000000E+00 0.0000E+00 0.9000E+01
        2 -1    0    0  501    0 0.00000000E+00 0.00000000E+00 -.25059413E+03 0.25059434E+03 0.32000000E+00 0.0000E+00 0.9000E+01
       25  2    1    2    0    0 -.29048038E+02 0.53770270E+02 0.27219023E+03 0.40953345E+03 0.29982511E+03 0.0000E+00 0.0000E+00
       23  2    1    2    0    0 0.29048038E+02 -.53770270E+02 -.16547195E+03 0.19837344E+03 0.90752551E+02 0.0000E+00 0.0000E+00
       24  1    3    3    0    0 -.11633571E+03 0.74147888E+01 0.44205491E+02 0.14835875E+03 0.80419002E+02 0.0000E+00 0.9000E+01
      -11  1    4    4    0    0 -.18696452E+02 -.37417644E+02 -.24125174E+02 0.48287280E+02 0.51099893E-03 0.0000E+00 0.9000E+01
       11  1    4    4    0    0 0.47744489E+02 -.16352626E+02 -.14134678E+03 0.15008616E+03 0.51099893E-03 0.0000E+00 0.9000E+01
      -24  1    3    3    0    0 0.87287672E+02 0.46355481E+02 0.22798473E+03 0.26117470E+03 0.80419002E+02 0.0000E+00 0.9000E+01
#aMCatNLO 1  0  0  1  2 0.36321406D+03 0.00000000D+00  -5  7  0 0.00000000D+00 0.00000000D+00 0.00000000D+00 0.00000000D+00 0.00000000D+00
  <mgrwgt>
 0.1088408987D-02    3    2    0
 0.299233184053981D+03 0.000000000000000D+00 0.000000000000000D+00 0.299233184053981D+03
 0.299233184053981D+03 0.000000000000000D+00 0.000000000000000D+00 -.299233184053981D+03
 0.142816329951738D+03 -.116335709401079D+03 0.741478875442512D+01 0.184475410932771D+02
 0.533509794535372D+02 -.186964519121849D+02 -.374176438729531D+02 -.331163044668930D+02
 0.177658597685168D+03 0.477444894673222D+02 -.163526263761915D+02 -.170339756567766D+03
 0.224640461017519D+03 0.872876718459418D+02 0.463554814947195D+02 0.185008519941382D+03
 0.000000000000000D+00 -.000000000000000D+00 0.000000000000000D+00 -.000000000000000D+00
 0.437641316184090D+03 0.000000000000000D+00 0.000000000000000D+00 0.437641316184090D+03
 0.726482712701348D+03 0.000000000000000D+00 0.000000000000000D+00 -.726482712701348D+03
 0.159320110491879D+03 -.112451207310396D+03 -.770071156116122D+02 0.184475410932771D+02
 0.845713264387883D+02 -.169232150103274D+02 -.759554107867660D+02 -.331163044668930D+02
 0.219063777068031D+03 0.528450622148089D+02 -.127203400722068D+03 -.170339756567766D+03
 0.237106530110855D+03 0.932242518551952D+02 -.826642430678314D+02 0.185008519941382D+03
 0.464062284775885D+03 -.166948917492802D+02 0.362830170188278D+03 -.288841396517258D+03
0.204961509774D-04 0.000000000000D+00 0.000000000000D+00 0.193148664591D-05 0.000000000000D+00  7 -2 2 24 -11 11 -24 21 0 0.54971166D-01 0.38552970D-01 0.32640417D+05 0.32640417D+05 0.32640417D+05 0.11639521D+01  1  2  2  1  7  1       -2 0.105612232027D-02 0.100000000000D+01
-.786203624932D-06 0.000000000000D+00 -.787106165138D-07 0.193148664591D-05 0.000000000000D+00  7 -2 2 24 -11 11 -24 21 2 0.54971166D-01 0.38552970D-01 0.32640417D+05 0.32640417D+05 0.32640417D+05 0.11639521D+01  1  2  3  1  7  1       -2 -.548841785609D-04 0.100000000000D+01
0.124870292816D-05 0.000000000000D+00 0.000000000000D+00 0.193148664591D-05 0.000000000000D+00  7 -2 2 24 -11 11 -24 21 2 0.54971166D-01 0.38552970D-01 0.32640417D+05 0.32640417D+05 0.32640417D+05 0.11639521D+01  1  2 15  1  7  1       -2 0.871708451927D-04 0.100000000000D+01
  </mgrwgt>
  </event>
  <event>
  8     66 0.27011060E-05 0.16781586E+03 0.75467711E-02 0.10316125E+00
       -2 -1    0    0    0  501 0.00000000E+00 0.00000000E+00 0.15059224E+03 0.15059258E+03 0.32000000E+00 0.0000E+00 0.9000E+01
        2 -1    0    0  501    0 0.00000000E+00 0.00000000E+00 -.40138047E+03 0.40138059E+03 0.32000000E+00 0.0000E+00 0.9000E+01
       25  2    1    2    0    0 0.53921299E+02 0.51321080E+02 -.29480785E+03 0.42691228E+03 0.29966826E+03 0.0000E+00 0.0000E+00
       23  2    1    2    0    0 -.53921299E+02 -.51321080E+02 0.44019628E+02 0.12506089E+03 0.90339026E+02 0.0000E+00 0.0000E+00
       24  1    3    3    0    0 0.89184433E+02 -.30456256E+01 -.30035347E+03 0.32348503E+03 0.80419002E+02 0.0000E+00 0.9000E+01
      -11  1    4    4    0    0 -.58459086E+02 -.71035266E+02 0.48992054E+02 0.10422905E+03 0.51099893E-03 0.0000E+00 0.9000E+01
       11  1    4    4    0    0 0.45377866E+01 0.19714186E+02 -.49724259E+01 0.20831842E+02 0.51099893E-03 0.0000E+00 0.9000E+01
      -24  1    3    3    0    0 -.35263134E+02 0.54366706E+02 0.55456197E+01 0.10342726E+03 0.80419002E+02 0.0000E+00 0.9000E+01
#aMCatNLO 1  0  0  2  2 0.14684037D+03 0.00000000D+00  -5  7  0 0.00000000D+00 0.00000000D+00 0.00000000D+00 0.00000000D+00 0.00000000D+00
  <mgrwgt>
 0.9055801143D-03    4    2    0
 0.245855472717170D+03 0.000000000000000D+00 0.000000000000000D+00 0.245855472717170D+03
 0.245855472717170D+03 0.000000000000000D+00 0.000000000000000D+00 -.245855472717170D+03
 0.209940301471149D+03 0.891844332335925D+02 -.304562558449388D+01 -.172176000827723D+03
 0.141990474821115D+03 -.584590859844024D+02 -.710352663316986D+02 0.108156466024822D+03
 0.208488187272500D+02 0.453778661103906D+01 0.197141860658538D+02 0.504307473227434D+01
 0.118931350414827D+03 -.352631338602292D+02 0.543667058503387D+02 0.589764600706266D+02
 0.000000000000000D+00 0.000000000000000D+00 -.000000000000000D+00 0.000000000000000D+00
 0.378558908447920D+03 0.000000000000000D+00 0.000000000000000D+00 0.378558908447920D+03
 0.300777945153725D+03 0.000000000000000D+00 0.000000000000000D+00 -.300777945153725D+03
 0.216299526209097D+03 0.847527697886643D+02 0.590818232287290D+02 -.172176000827723D+03
 0.128269220187911D+03 -.612690064405158D+02 -.316430174671783D+02 0.108156466024822D+03
 0.275345616381469D+02 0.403473916173256D+01 0.267664036012758D+02 0.504307473227434D+01
 0.141065035897493D+03 -.379663455410910D+02 0.922630053823456D+02 0.589764600706266D+02
 0.166168509668998D+03 0.104478430312099D+02 -.146468214745172D+03 0.777809632941959D+02
0.778851880929D-05 0.000000000000D+00 0.000000000000D+00 0.616207667796D-06 0.000000000000D+00  7 -2 2 24 -11 11 -24 21 0 0.23168073D-01 0.61750877D-01 0.28162163D+05 0.28162163D+05 0.28162163D+05 0.11698919D+01  1  2  2  2  7  2        2 0.114475106230D-02 0.100000000000D+01
-.355975273316D-06 0.000000000000D+00 -.299099629918D-07 0.616207667796D-06 0.000000000000D+00  7 -2 2 24 -11 11 -24 21 2 0.23168073D-01 0.61750877D-01 0.28162163D+05 0.28162163D+05 0.28162163D+05 0.11698919D+01  1  2  3  2  7  2        2 -.716089741059D-04 0.100000000000D+01
0.469473131309D-06 0.000000000000D+00 0.000000000000D+00 0.616207667796D-06 0.000000000000D+00  7 -2 2 24 -11 11 -24 21 2 0.23168073D-01 0.61750877D-01 0.28162163D+05 0.28162163D+05 0.28162163D+05 0.11698919D+01  1  2 15  2  7  2        2 0.944405182701D-04 0.100000000000D+01
-.130244023072D-05 0.000000000000D+00 0.000000000000D+00 0.616207667796D-06 0.000000000000D+00  7 -2 2 24 -11 11 -24 21 2 0.23168073D-01 0.61750877D-01 0.28162163D+05 0.28162163D+05 0.28162163D+05 0.11698919D+01  1  2  4  2  7  2        2 -.262002492161D-03 0.100000000000D+01
  </mgrwgt>
  </event>
  <event>
  8     66 0.27011060E-05 0.25998513E+03 0.75467711E-02 0.10267159E+00
       -2 -1    0    0    0  501 0.00000000E+00 0.00000000E+00 0.98103076E+02 0.98103598E+02 0.32000000E+00 0.0000E+00 0.9000E+01
        2 -1    0    0  501    0 0.00000000E+00 0.00000000E+00 -.13645243E+04 0.13645244E+04 0.32000000E+00 0.0000E+00 0.9000E+01
       25  2    1    2    0    0 -.21924992E+03 0.30066261E+02 -.33533421E+03 0.50150621E+03 0.30014152E+03 0.0000E+00 0.0000E+00
       23  2    1    2    0    0 0.21924992E+03 -.30066261E+02 -.93108703E+03 0.96112175E+03 0.88642260E+02 0.0000E+00 0.0000E+00
       24  1    3    3    0    0 -.17636308E+03 0.43305070E+02 -.35550874E+03 0.40722591E+03 0.80419002E+02 0.0000E+00 0.9000E+01
      -13  1    4    4    0    0 0.14415173E+03 -.48216720E+02 -.73100261E+03 0.74663873E+03 0.10565837E+00 0.0000E+00 0.9000E+01
       13  1    4    4    0    0 0.75098183E+02 0.18150459E+02 -.20008442E+03 0.21448302E+03 0.10565837E+00 0.0000E+00 0.9000E+01
      -24  1    3    3    0    0 -.42886834E+02 -.13238809E+02 0.20174523E+02 0.94280294E+02 0.80419002E+02 0.0000E+00 0.9000E+01
#aMCatNLO 1  0  0  2  2 0.59699840D+00 0.00000000D+00  -5  7  0 0.00000000D+00 0.00000000D+00 0.00000000D+00 0.00000000D+00 0.00000000D+00
  <mgrwgt>
 0.3766572405D-03    8    2    0
 0.365874900121140D+03 0.000000000000000D+00 0.000000000000000D+00 0.365874900121140D+03
 0.365874900121140D+03 0.000000000000000D+00 0.000000000000000D+00 -.365874900121140D+03
 0.198696587852804D+03 -.176363084302606D+03 0.433050698957449D+02 -.581820303641938D+01
 0.227260196111699D+03 0.144151832726658D+03 -.482168135517797D+02 -.168945508224358D+03
 0.824291849925315D+02 0.750980851860707D+02 0.181505528783791D+02 -.287298724349381D+02
 0.223363831285245D+03 -.428868336101230D+02 -.132388092223443D+02 0.203493583695715D+03
 0.000000000000000D+00 -.000000000000000D+00 -.000000000000000D+00 0.000000000000000D+00
 0.367466949254987D+03 0.000000000000000D+00 0.000000000000000D+00 0.367466949254987D+03
 0.365930992890678D+03 0.000000000000000D+00 0.000000000000000D+00 -.365930992890678D+03
 0.198725629588113D+03 -.176355962617076D+03 0.434670319167601D+02 -.581820303641938D+01
 0.227226138325518D+03 0.144159976983847D+03 -.480315961129479D+02 -.168945508224358D+03
 0.824466977375412D+02 0.751010397118539D+02 0.182177449728613D+02 -.287298724349381D+02
 0.223351578121776D+03 -.428788286055523D+02 -.130567586792416D+02 0.203493583695715D+03
 0.164789837271768D+01 -.262254730725701D-01 -.596422097431975D+00 0.153595636430940D+01
0.603206997952D-05 0.000000000000D+00 0.000000000000D+00 0.420913483405D-06 0.000000000000D+00  7 -2 2 24 -13 13 -24 21 0 0.15092824D-01 0.20992686D+00 0.67592267D+05 0.67592267D+05 0.67592267D+05 0.11359541D+01  1  2  2  2  7  2        2 0.377904855083D-03 0.100000000000D+01
-.287550650727D-06 0.000000000000D+00 -.231647370019D-07 0.420913483405D-06 0.000000000000D+00  7 -2 2 24 -13 13 -24 21 2 0.15092824D-01 0.20992686D+00 0.67592267D+05 0.67592267D+05 0.67592267D+05 0.11359541D+01  1  2  3  2  7  2        2 -.232462039673D-04 0.100000000000D+01
0.375560122914D-06 0.000000000000D+00 0.000000000000D+00 0.420913483405D-06 0.000000000000D+00  7 -2 2 24 -13 13 -24 21 2 0.15092824D-01 0.20992686D+00 0.67592267D+05 0.67592267D+05 0.67592267D+05 0.11359541D+01  1  2 15  2  7  2        2 0.303610762040D-04 0.100000000000D+01
-.192128478313D-04 0.000000000000D+00 0.000000000000D+00 0.420913483405D-06 0.000000000000D+00  7 -2 2 24 -13 13 -24 21 2 0.15092824D-01 0.20992686D+00 0.67592267D+05 0.67592267D+05 0.67592267D+05 0.11359541D+01  1  2  4  2  7  2        2 -.155320733356D-02 0.100000000000D+01
0.200966749155D-12 0.000000000000D+00 0.000000000000D+00 0.420913483405D-06 0.000000000000D+00  7 -2 2 24 -13 13 -24 21 2 0.15092824D-01 0.21067760D+00 0.67592267D+05 0.67592267D+05 0.67592267D+05 0.11359541D+01  1  2  5  2  7  2        2 0.161475439741D-10 0.100000000000D+01
-.200965468657D-12 0.000000000000D+00 0.000000000000D+00 0.420913483405D-06 0.000000000000D+00  7 -2 2 24 -13 13 -24 21 2 0.15092824D-01 0.20992686D+00 0.67592267D+05 0.67592267D+05 0.67592267D+05 0.11359541D+01  1  2  6  2  7  2        2 -.162464743619D-10 0.100000000000D+01
0.192129735200D-04 0.000000000000D+00 0.000000000000D+00 0.420913483405D-06 0.812658774605D-05  7 -2 2 24 -13 13 -24 21 2 0.15158498D-01 0.20995905D+00 0.67739001D+05 0.67739001D+05 0.67739001D+05 0.11358738D+01  1  2 11  2  7  2        2 0.154184068230D-02 0.100000000000D+01
0.839050802294D-07 0.000000000000D+00 0.000000000000D+00 0.420913483405D-06 0.233893757360D-09  7 -2 21 24 -13 13 -24 -2 2 0.15158498D-01 0.20995905D+00 0.67739001D+05 0.67739001D+05 0.67739001D+05 0.11358738D+01  1  2 11  4  7  2        2 0.300416458954D-05 0.100000000000D+01
  </mgrwgt>
  </event>
  <event>
  8     66 0.27011060E-05 0.26639219E+03 0.75467711E-02 0.10078172E+00
       -2 -1    0    0    0  501 0.00000000E+00 0.00000000E+00 0.14608844E+03 0.14608879E+03 0.32000000E+00 0.0000E+00 0.9000E+01
        2 -1    0    0  501    0 0.00000000E+00 0.00000000E+00 -.10799000E+04 0.10799000E+04 0.32000000E+00 0.0000E+00 0.9000E+01
       25  2    1    2    0    0 -.14846056E+03 -.16403354E+03 -.14375505E+03 0.40050594E+03 0.30131703E+03 0.0000E+00 0.0000E+00
       23  2    1    2    0    0 0.14846056E+03 0.16403354E+03 -.79005648E+03 0.82548287E+03 0.91022978E+02 0.0000E+00 0.0000E+00
       24  1    3    3    0    0 -.19964963E+01 -.46612592E+02 0.61093504E+02 0.11124905E+03 0.80419002E+02 0.0000E+00 0.9000E+01
      -11  1    4    4    0    0 0.69014604E+02 0.21284662E+02 -.31317177E+03 0.32139168E+03 0.51099893E-03 0.0000E+00 0.9000E+01
       11  1    4    4    0    0 0.79445960E+02 0.14274887E+03 -.47688471E+03 0.50409119E+03 0.51099893E-03 0.0000E+00 0.9000E+01
      -24  1    3    3    0    0 -.14646407E+03 -.11742094E+03 -.20484855E+03 0.28925689E+03 0.80419002E+02 0.0000E+00 0.9000E+01
#aMCatNLO 1  0  0  2  1 0.68489883D+02 0.00000000D+00  -5  7  0 0.00000000D+00 0.00000000D+00 0.00000000D+00 0.00000000D+00 0.00000000D+00
  <mgrwgt>
 0.7900389321D-03    4    2    0
 0.397191574972123D+03 0.000000000000000D+00 0.000000000000000D+00 0.397191574972123D+03
 0.397191574972123D+03 0.000000000000000D+00 0.000000000000000D+00 -.397191574972123D+03
 0.243509587919303D+03 -.199649626332820D+01 -.466125922198201D+02 0.225062177416547D+03
 0.127871783642113D+03 0.690146038335125D+02 0.212846623584870D+02 -.105523175927394D+03
 0.217388445843134D+03 0.794459599995074D+02 0.142748874651615D+03 -.143418390074451D+03
 0.205613332539696D+03 -.146464067569692D+03 -.117420944790282D+03 0.238793885852979D+02
 0.000000000000000D+00 0.000000000000000D+00 -.000000000000000D+00 0.000000000000000D+00
 0.583722865424470D+03 0.000000000000000D+00 0.000000000000000D+00 0.583722865424470D+03
 0.405002128400502D+03 0.000000000000000D+00 0.000000000000000D+00 -.405002128400502D+03
 0.241440834345194D+03 -.153848436724596D+02 -.306069177904149D+02 0.225062177416547D+03
 0.125936034981906D+03 0.620075633302281D+02 0.296615296134203D+02 -.105523175927394D+03
 0.223240420587094D+03 0.672812271290572D+02 0.157291726573153D+03 -.143418390074451D+03
 0.206712913294087D+03 -.157847431253237D+03 -.103812214193250D+03 0.238793885852979D+02
 0.191394790616691D+03 0.439434844664112D+02 -.525341242029089D+02 0.178720737023968D+03
0.174523532441D-04 0.000000000000D+00 0.000000000000D+00 0.392287784194D-06 0.000000000000D+00  7 -2 2 24 -11 11 -24 21 0 0.22475175D-01 0.16613849D+00 0.70964798D+05 0.70964798D+05 0.70964798D+05 0.11341546D+01  1  2  2  2  7  2        2 0.825216694251D-03 0.100000000000D+01
-.781476432846D-06 0.000000000000D+00 -.670216317674D-07 0.392287784194D-06 0.000000000000D+00  7 -2 2 24 -11 11 -24 21 2 0.22475175D-01 0.16613849D+00 0.70964798D+05 0.70964798D+05 0.70964798D+05 0.11341546D+01  1  2  3  2  7  2        2 -.475307212420D-04 0.100000000000D+01
0.110662071745D-05 0.000000000000D+00 0.000000000000D+00 0.392287784194D-06 0.000000000000D+00  7 -2 2 24 -11 11 -24 21 2 0.22475175D-01 0.16613849D+00 0.70964798D+05 0.70964798D+05 0.70964798D+05 0.11341546D+01  1  2 15  2  7  2        2 0.673065477488D-04 0.100000000000D+01
-.903519520363D-06 0.000000000000D+00 0.000000000000D+00 0.392287784194D-06 0.000000000000D+00  7 -2 2 24 -11 11 -24 21 2 0.22475175D-01 0.16613849D+00 0.70964798D+05 0.70964798D+05 0.70964798D+05 0.11341546D+01  1  2  4  2  7  2        2 -.549535886868D-04 0.100000000000D+01
  </mgrwgt>
  </event>
  <event>
  8     66 0.27011060E-05 0.54232841E+03 0.75467711E-02 0.90448246E-01
       -2 -1    0    0    0  501 0.00000000E+00 0.00000000E+00 0.13832796E+04 0.13832796E+04 0.32000000E+00 0.0000E+00 0.9000E+01
        2 -1    0    0  501    0 0.00000000E+00 0.00000000E+00 -.25177525E+03 0.25177546E+03 0.32000000E+00 0.0000E+00 0.9000E+01
       25  2    1    2    0    0 0.25617504E+03 0.42812501E+03 0.91123811E+03 0.10816304E+04 0.30108592E+03 0.0000E+00 0.0000E+00
       23  2    1    2    0    0 -.25617504E+03 -.42812501E+03 0.22026619E+03 0.55342466E+03 0.94047774E+02 0.0000E+00 0.0000E+00
       24  1    3    3    0    0 0.94887749E+02 0.37227526E+03 0.57773231E+03 0.69845143E+03 0.80419002E+02 0.0000E+00 0.9000E+01
      -13  1    4    4    0    0 -.11299556E+03 -.25428277E+03 0.15699236E+03 0.31949075E+03 0.10565837E+00 0.0000E+00 0.9000E+01
       13  1    4    4    0    0 -.14317947E+03 -.17384224E+03 0.63273830E+02 0.23393391E+03 0.10565837E+00 0.0000E+00 0.9000E+01
      -24  1    3    3    0    0 0.16128729E+03 0.55849745E+02 0.33350580E+03 0.38317896E+03 0.80419002E+02 0.0000E+00 0.9000E+01
#aMCatNLO 1  0  0  1  1 0.33539616D+03 0.00000000D+00  -5  7  0 0.00000000D+00 0.00000000D+00 0.00000000D+00 0.00000000D+00 0.00000000D+00
  <mgrwgt>
 0.7108512738D-03    3    2    0
 0.590148926465946D+03 0.000000000000000D+00 0.000000000000000D+00 0.590148926465946D+03
 0.590148926465946D+03 0.000000000000000D+00 0.000000000000000D+00 -.590148926465946D+03
 0.413709077645579D+03 0.948877488391731D+02 0.372275263733672D+03 0.130749486057283D+03
 0.292085146330206D+03 -.112995523951726D+03 -.254282874195824D+03 -.888029513266500D+02
 0.263408226827365D+03 -.143179512813123D+03 -.173842134068945D+03 -.136610517506113D+03
 0.211095402128742D+03 0.161287287925675D+03 0.558497445310968D+02 0.946639827754803D+02
 0.000000000000000D+00 -.000000000000000D+00 0.000000000000000D+00 -.000000000000000D+00
 0.662905500855036D+03 0.000000000000000D+00 0.000000000000000D+00 0.662905500855036D+03
 0.118288581724421D+04 0.000000000000000D+00 0.000000000000000D+00 -.118288581724421D+04
 0.324365761498087D+03 0.951321000327154D+02 0.269444589325867D+03 0.130749486057283D+03
 0.375830021885579D+03 -.112774400212122D+03 -.347338704786823D+03 -.888029513266500D+02
 0.323139228259550D+03 -.142985327124737D+03 -.255561584699112D+03 -.136610517506113D+03
 0.203691315156974D+03 0.161424609541396D+03 -.193951424295481D+01 0.946639827754803D+02
 0.618764991299058D+03 -.796982237252824D+00 0.335395214403022D+03 -.519980316389176D+03
0.420001869138D-03 0.000000000000D+00 0.000000000000D+00 0.179242382233D-06 0.000000000000D+00  7 -2 2 24 -13 13 -24 21 0 0.21281226D+00 0.38734673D-01 0.29412010D+06 0.29412010D+06 0.29412010D+06 0.10851884D+01  1  2  2  1  7  1       -2 0.703245220935D-03 0.100000000000D+01
-.231308526076D-04 0.000000000000D+00 -.161291776652D-05 0.179242382233D-06 0.000000000000D+00  7 -2 2 24 -13 13 -24 21 2 0.21281226D+00 0.38734673D-01 0.29412010D+06 0.29412010D+06 0.29412010D+06 0.10851884D+01  1  2  3  1  7  1       -2 -.456097332849D-04 0.100000000000D+01
0.269882417234D-04 0.000000000000D+00 0.000000000000D+00 0.179242382233D-06 0.000000000000D+00  7 -2 2 24 -13 13 -24 21 2 0.21281226D+00 0.38734673D-01 0.29412010D+06 0.29412010D+06 0.29412010D+06 0.10851884D+01  1  2 15  1  7  1       -2 0.532157861933D-04 0.100000000000D+01
  </mgrwgt>
  </event>
  <event>
  8     66 0.27011060E-05 0.12910303E+03 0.75467711E-02 0.10116388E+00
       -2 -1    0    0    0  501 0.00000000E+00 0.00000000E+00 0.34933815E+02 0.34935281E+02 0.32000000E+00 0.0000E+00 0.9000E+01
        2 -1    0    0  501    0 0.00000000E+00 0.00000000E+00 -.25265910E+04 0.25265911E+04 0.32000000E+00 0.0000E+00 0.9000E+01
       25  2    1    2    0    0 0.16824160E+03 0.76591168E+02 -.19593455E+04 0.19907363E+04 0.29970766E+03 0.0000E+00 0.0000E+00
       23  2    1    2    0    0 -.16824160E+03 -.76591168E+02 -.53231170E+03 0.57079004E+03 0.90961983E+02 0.0000E+00 0.0000E+00
       24  1    3    3    0    0 -.51028999E+02 -.17288051E+02 -.68090295E+03 0.68774914E+03 0.80419002E+02 0.0000E+00 0.9000E+01
      -11  1    4    4    0    0 -.12498991E+03 -.19042406E+02 -.40796879E+03 0.42711079E+03 0.51099893E-03 0.0000E+00 0.9000E+01
       11  1    4    4    0    0 -.43251696E+02 -.57548762E+02 -.12434291E+03 0.14367925E+03 0.51099893E-03 0.0000E+00 0.9000E+01
      -24  1    3    3    0    0 0.21927060E+03 0.93879219E+02 -.12784426E+04 0.13029872E+04 0.80419002E+02 0.0000E+00 0.9000E+01
#aMCatNLO 1  0  0  2  1 0.35327972D+02 0.00000000D+00  -5  7  0 0.00000000D+00 0.00000000D+00 0.00000000D+00 0.00000000D+00 0.00000000D+00
  <mgrwgt>
 0.1221207796D-02    9    2    0
 0.297094880173872D+03 0.000000000000000D+00 0.000000000000000D+00 0.297094880173872D+03
 0.297094880173872D+03 0.000000000000000D+00 0.000000000000000D+00 -.297094880173872D+03
 0.109579104590249D+03 -.510289989099253D+02 -.172880513318101D+02 -.513568764609927D+02
 0.130492229082102D+03 -.124989907132826D+03 -.190424057085429D+02 0.322975502255886D+02
 0.979792876261944D+02 -.432516964908615D+02 -.575487623756414D+02 0.664633094528921D+02
 0.256139139049198D+03 0.219270602533613D+03 0.938792194159945D+02 -.474039832174881D+02
 0.000000000000000D+00 -.000000000000000D+00 0.000000000000000D+00 -.000000000000000D+00
 0.308160584348678D+03 0.000000000000000D+00 0.000000000000000D+00 0.308160584348678D+03
 0.327219640893175D+03 0.000000000000000D+00 0.000000000000000D+00 -.327219640893175D+03
 0.108632344392427D+03 -.469004789804186D+02 -.222842232398149D+02 -.513568764609927D+02
 0.126861682093510D+03 -.120120819116691D+03 -.249347838922964D+02 0.322975502255886D+02
 0.991518403021353D+02 -.395220123053042D+02 -.620622790043084D+02 0.664633094528921D+02
 0.260593191845055D+03 0.229047081890050D+03 0.820481098770230D+02 -.474039832174881D+02
 0.401411666087251D+02 -.225037714876359D+02 0.272331762593967D+02 -.190590565444967D+02
0.748217039311D-05 0.000000000000D+00 0.000000000000D+00 0.695447226048D-06 0.000000000000D+00  7 -2 2 24 -11 11 -24 21 0 0.53745474D-02 0.38870643D+00 0.74784640D+05 0.74784640D+05 0.74784640D+05 0.11322267D+01  1  2  2  2  7  2        2 0.534712312425D-03 0.100000000000D+01
-.412205516362D-06 0.000000000000D+00 -.287335044103D-07 0.695447226048D-06 0.000000000000D+00  7 -2 2 24 -11 11 -24 21 2 0.53745474D-02 0.38870643D+00 0.74784640D+05 0.74784640D+05 0.74784640D+05 0.11322267D+01  1  2  3  2  7  2        2 -.377635791813D-04 0.100000000000D+01
0.475970413226D-06 0.000000000000D+00 0.000000000000D+00 0.695447226048D-06 0.000000000000D+00  7 -2 2 24 -11 11 -24 21 2 0.53745474D-02 0.38870643D+00 0.74784640D+05 0.74784640D+05 0.74784640D+05 0.11322267D+01  1  2 15  2  7  2        2 0.436053028752D-04 0.100000000000D+01
0.132656307736D-04 0.000000000000D+00 0.000000000000D+00 0.695447226048D-06 0.000000000000D+00  7 -2 2 24 -11 11 -24 21 2 0.53745474D-02 0.43483027D+00 0.85135200D+05 0.85135200D+05 0.85135200D+05 0.11275029D+01  1  2 12  2  7  2        2 0.802860465445D-03 0.100000000000D+01
-.129944279015D-04 0.000000000000D+00 0.000000000000D+00 0.695447226048D-06 0.000000000000D+00  7 -2 2 24 -11 11 -24 21 2 0.53745474D-02 0.38870643D+00 0.74784640D+05 0.74784640D+05 0.74784640D+05 0.11322267D+01  1  2  4  2  7  2        2 -.119046467720D-02 0.100000000000D+01
-.346106852298D-04 0.000000000000D+00 -.641521083013D-05 0.695447226048D-06 0.000000000000D+00  7 -2 2 24 -11 11 -24 21 2 0.53745474D-02 0.43333477D+00 0.74784640D+05 0.74784640D+05 0.74784640D+05 0.11322267D+01  1  2  5  2  7  2        2 -.214888180375D-02 0.100000000000D+01
0.351378940661D-04 0.000000000000D+00 0.637750598336D-05 0.695447226048D-06 0.000000000000D+00  7 -2 2 24 -11 11 -24 21 2 0.53745474D-02 0.38870643D+00 0.74784640D+05 0.74784640D+05 0.74784640D+05 0.11322267D+01  1  2  6  2  7  2        2 0.321910452956D-02 0.100000000000D+01
0.237675550557D-06 0.000000000000D+00 0.000000000000D+00 0.695447226048D-06 0.000000000000D+00  7 -2 21 24 -11 11 -24 -2 2 0.53745474D-02 0.43483027D+00 0.85135200D+05 0.85135200D+05 0.85135200D+05 0.11275029D+01  1  2 12  4  7  2        2 0.126915971021D-05 0.100000000000D+01
-.579134864801D-06 0.000000000000D+00 -.111924456629D-06 0.695447226048D-06 0.000000000000D+00  7 -2 21 24 -11 11 -24 -2 2 0.53745474D-02 0.43333477D+00 0.74784640D+05 0.74784640D+05 0.74784640D+05 0.11322267D+01  1  2  5  4  7  2        2 -.323391405532D-05 0.100000000000D+01
  </mgrwgt>
  </event>
  <event>
  9     66 0.27011060E-05 0.20628265E+03 0.75467711E-02 0.10181585E+00
       -2 -1    0    0    0  501 0.00000000E+00 0.00000000E+00 0.14703510E+03 0.14703544E+03 0.32000000E+00 0.0000E+00 0.9000E+01
        2 -1    0    0  502    0 0.00000000E+00 0.00000000E+00 -.81146277E+03 0.81146284E+03 0.32000000E+00 0.0000E+00 0.9000E+01
       25  2    1    2    0    0 0.10965306E+03 0.13379625E+03 -.34686332E+03 0.49028341E+03 0.30023063E+03 0.0000E+00 0.0000E+00
       23  2    1    2    0    0 -.18196143E+03 -.31171658E+02 -.22651676E+03 0.31313252E+03 0.11251888E+03 0.0000E+00 0.0000E+00
       24  1    3    3    0    0 0.39354059E+02 0.95663396E+02 -.35317029E+03 0.37669178E+03 0.80419002E+02 0.0000E+00 0.9000E+01
      -11  1    4    4    0    0 -.49357059E+02 -.18263067E+01 -.43358129E+00 0.49392739E+02 0.51099893E-03 0.0000E+00 0.9000E+01
       11  1    4    4    0    0 -.13260437E+03 -.29345351E+02 -.22608318E+03 0.26373978E+03 0.51099893E-03 0.0000E+00 0.9000E+01
      -24  1    3    3    0    0 0.70299004E+02 0.38132856E+02 0.63069725E+01 0.11359163E+03 0.80419002E+02 0.0000E+00 0.9000E+01
       21  1    1    2  502  501 0.72308365E+02 -.10262459E+03 -.91047598E+02 0.15508235E+03 0.75000000E+00 0.0000E+00 0.9000E+01
#aMCatNLO 2  0  0  2  2 0.12554006D+03 0.00000000D+00  -5  7  0 0.00000000D+00 0.00000000D+00 0.00000000D+00 0.00000000D+00 0.00000000D+00
  <mgrwgt>
 0.1628509143D-03    1    2    0
 0.274295523399931D+03 0.000000000000000D+00 0.000000000000000D+00 0.274295523399931D+03
 0.274295523399931D+03 0.000000000000000D+00 0.000000000000000D+00 -.274295523399931D+03
 0.169830659827490D+03 0.619809471937262D+02 0.635498893077249D+02 -.120395227550824D+03
 0.657189033040151D+02 -.405221575527003D+02 -.143653577759633D+02 0.497047834189546D+02
 0.137961238053233D+03 -.114117916862242D+03 -.555824904761681D+02 -.540461932856497D+02
 0.175080245615123D+03 0.926591272212162D+02 0.639795894440653D+01 0.124736637417519D+03
 0.000000000000000D+00 0.000000000000000D+00 -.000000000000000D+00 0.000000000000000D+00
 0.359713936302296D+03 0.000000000000000D+00 0.000000000000000D+00 0.359713936302296D+03
 0.331688404550762D+03 0.000000000000000D+00 0.000000000000000D+00 -.331688404550762D+03
 0.177939467544685D+03 0.393540595621264D+02 0.956633960022405D+02 -.120395227550824D+03
 0.700715365101719D+02 -.493570596368375D+02 -.182630725148454D+01 0.497047834189546D+02
 0.146171335484287D+03 -.132604368997996D+03 -.293453511008753D+02 -.540461932856497D+02
 0.168589766624067D+03 0.702990044353831D+02 0.381328561368171D+02 0.124736637417519D+03
 0.128630234689847D+03 0.723083646373239D+02 -.102624593786698D+03 0.280255317515336D+02
0.185205227356D-05 0.000000000000D+00 0.000000000000D+00 0.594540047896D-08 0.263160262669D-11  7 -2 2 24 -11 11 -24 21 2 0.22620743D-01 0.12484006D+00 0.77057461D+05 0.77057461D+05 0.77057461D+05 0.11311303D+01  1  2  1  2  7  2        2 0.162850914306D-03 0.100000000000D+01
  </mgrwgt>
  </event>
  <event>
  8     66 0.27011060E-05 0.38243914E+03 0.75467711E-02 0.92349779E-01
       -2 -1    0    0    0  501 0.00000000E+00 0.00000000E+00 0.17466111E+03 0.17466141E+03 0.32000000E+00 0.0000E+00 0.9000E+01
        2 -1    0    0  501    0 0.00000000E+00 0.00000000E+00 -.11540244E+04 0.11540245E+04 0.32000000E+00 0.0000E+00 0.9000E+01
       25  2    1    2    0    0 0.21872999E+03 0.27029629E+03 -.26913650E+03 0.53270486E+03 0.30072766E+03 0.0000E+00 0.0000E+00
       23  2    1    2    0    0 -.21872999E+03 -.27029629E+03 -.71022682E+03 0.79598102E+03 0.90888698E+02 0.0000E+00 0.0000E+00
       24  1    3    3    0    0 0.51951147E+01 0.43147717E+02 -.17471119E+03 0.19717995E+03 0.80419002E+02 0.0000E+00 0.9000E+01
      -11  1    4    4    0    0 -.58166713E+01 -.29539135E+02 -.25032269E+02 0.39153655E+02 0.51099893E-03 0.0000E+00 0.9000E+01
       11  1    4    4    0    0 -.21291331E+03 -.24075716E+03 -.68519455E+03 0.75682736E+03 0.51099893E-03 0.0000E+00 0.9000E+01
      -24  1    3    3    0    0 0.21353487E+03 0.22714857E+03 -.94425305E+02 0.33552492E+03 0.80419002E+02 0.0000E+00 0.9000E+01
#aMCatNLO 1  0  0  2  2 0.39701380D+03 0.00000000D+00  -5  7  0 0.00000000D+00 0.00000000D+00 0.00000000D+00 0.00000000D+00 0.00000000D+00
  <mgrwgt>
 0.8736859857D-03    5    2    0
 0.448958146459665D+03 0.000000000000000D+00 0.000000000000000D+00 0.448958146459665D+03
 0.448958146459665D+03 0.000000000000000D+00 0.000000000000000D+00 -.448958146459665D+03
 0.101217094715211D+03 0.519511468771905D+01 0.431477168783676D+02 -.434622781246344D+02
 0.306345055828058D+02 -.581667132333304D+01 -.295391348806871D+02 0.566381298418719D+01
 0.372564158142693D+03 -.212913314656073D+03 -.240757156858194D+03 -.188435569350100D+03
 0.393500534478621D+03 0.213534871291687D+03 0.227148574860513D+03 0.226234034490547D+03
 0.000000000000000D+00 0.000000000000000D+00 0.000000000000000D+00 -.000000000000000D+00
 0.614992006605642D+03 0.000000000000000D+00 0.000000000000000D+00 0.614992006605642D+03
 0.808394359241644D+03 0.000000000000000D+00 0.000000000000000D+00 -.808394359241644D+03
 0.933955262975636D+02 -.170980951155387D+02 0.861358819919321D+01 -.434622781246344D+02
 0.458632262668278D+02 -.145796178204428D+02 -.431137042051855D+02 0.566381298418719D+01
 0.547848707560796D+03 -.318348188375793D+03 -.404084983063697D+03 -.188435569350100D+03
 0.294663200541888D+03 0.134704534163662D+03 0.105033499004361D+03 0.226234034490547D+03
 0.441615705180210D+03 0.215321367148113D+03 0.333551600065329D+03 -.193402352636002D+03
0.296416934541D-04 0.000000000000D+00 0.000000000000D+00 0.210878400423D-05 0.000000000000D+00  7 -2 2 24 -11 11 -24 21 0 0.26870967D-01 0.17754225D+00 0.14625969D+06 0.14625969D+06 0.14625969D+06 0.11084184D+01  1  2  2  2  7  2        2 0.923905688280D-03 0.100000000000D+01
-.159527287877D-05 0.000000000000D+00 -.113831907701D-06 0.210878400423D-05 0.000000000000D+00  7 -2 2 24 -11 11 -24 21 2 0.26870967D-01 0.17754225D+00 0.14625969D+06 0.14625969D+06 0.14625969D+06 0.11084184D+01  1  2  3  2  7  2        2 -.610895648662D-04 0.100000000000D+01
0.176648116382D-05 0.000000000000D+00 0.000000000000D+00 0.210878400423D-05 0.000000000000D+00  7 -2 2 24 -11 11 -24 21 2 0.26870967D-01 0.17754225D+00 0.14625969D+06 0.14625969D+06 0.14625969D+06 0.11084184D+01  1  2 15  2  7  2        2 0.676458348147D-04 0.100000000000D+01
-.711631385188D-05 0.000000000000D+00 -.863698462045D-05 0.210878400423D-05 0.000000000000D+00  7 -2 2 24 -11 11 -24 21 2 0.26870967D-01 0.36871407D+00 0.14625969D+06 0.14625969D+06 0.14625969D+06 0.11084184D+01  1  2  5  2  7  2        2 -.567428222532D-04 0.100000000000D+01
-.306396864747D-07 0.000000000000D+00 -.682542347570D-06 0.210878400423D-05 0.000000000000D+00  7 -2 21 24 -11 11 -24 -2 2 0.26870967D-01 0.36871407D+00 0.14625969D+06 0.14625969D+06 0.14625969D+06 0.11084184D+01  1  2  5  4  7  2        2 -.331502706550D-07 0.100000000000D+01
  </mgrwgt>
  </event>
  <event>
  9     66 0.27011060E-05 0.32128093E+03 0.75467711E-02 0.99302129E-01
       -2 -1    0    0    0  502 0.00000000E+00 0.00000000E+00 0.18216960E+03 0.18216988E+03 0.32000000E+00 0.0000E+00 0.9000E+01
        2 -1    0    0  501    0 0.00000000E+00 0.00000000E+00 -.70987622E+03 0.70987629E+03 0.32000000E+00 0.0000E+00 0.9000E+01
       25  2    1    2    0    0 -.27390199E+03 0.40354540E+02 -.37120501E+03 0.55179171E+03 0.30005023E+03 0.0000E+00 0.0000E+00
       23  2    1    2    0    0 0.24101075E+03 -.43619626E+02 -.11239085E+03 0.28512901E+03 0.93155757E+02 0.0000E+00 0.0000E+00
       24  1    3    3    0    0 -.25583592E+03 -.52101423E+02 -.19186057E+03 0.33383270E+03 0.80419002E+02 0.0000E+00 0.9000E+01
      -11  1    4    4    0    0 0.21638982E+03 -.42647426E+02 -.12891124E+03 0.25546323E+03 0.51099893E-03 0.0000E+00 0.9000E+01
       11  1    4    4    0    0 0.24620930E+02 -.97220031E+00 0.16520380E+02 0.29665777E+02 0.51099893E-03 0.0000E+00 0.9000E+01
      -24  1    3    3    0    0 -.18066075E+02 0.92455963E+02 -.17934444E+03 0.21795901E+03 0.80419002E+02 0.0000E+00 0.9000E+01
       21  1    1    2  501  502 0.32891240E+02 0.32650860E+01 -.44110753E+02 0.55125452E+02 0.75000000E+00 0.0000E+00 0.9000E+01
#aMCatNLO 2  0  0  1  2 0.33052904D+02 0.00000000D+00  -5  7  0 0.00000000D+00 0.00000000D+00 0.00000000D+00 0.00000000D+00 0.00000000D+00
  <mgrwgt>
 0.8299172163D-03    1    2    0
 0.341130047794474D+03 0.000000000000000D+00 0.000000000000000D+00 0.341130047794474D+03
 0.341130047794474D+03 0.000000000000000D+00 0.000000000000000D+00 -.341130047794474D+03
 0.260932225949515D+03 -.242968532441177D+03 -.508240880978781D+02 0.127078597639005D+01
 0.232227587254165D+03 0.227326114674602D+03 -.415617890774880D+02 0.229152254520633D+02
 0.492828611674870D+02 0.269655868460698D+02 -.739448151518285D+00 0.412445238465919D+02
 0.139817421217781D+03 -.113231690794946D+02 0.931253253268845D+02 -.654305352750452D+02
 0.000000000000000D+00 0.000000000000000D+00 0.000000000000000D+00 -.000000000000000D+00
 0.352173315293070D+03 0.000000000000000D+00 0.000000000000000D+00 0.352173315293070D+03
 0.367191976726731D+03 0.000000000000000D+00 0.000000000000000D+00 -.367191976726731D+03
 0.273194811130236D+03 -.255835915672315D+03 -.521014225259249D+02 0.127078597639005D+01
 0.221739633508741D+03 0.216389820874784D+03 -.426474258643009D+02 0.229152254520633D+02
 0.480442098995616D+02 0.246209297977562D+02 -.972200306014315D+00 0.412445238465919D+02
 0.140081615470613D+03 -.180660746451570D+02 0.924559627012928D+02 -.654305352750452D+02
 0.363050220106489D+02 0.328912396449325D+02 0.326508599494733D+01 -.150186614336606D+02
0.118670373870D-04 0.000000000000D+00 0.000000000000D+00 0.676040745890D-06 0.413447506627D-08  7 -2 2 24 -11 11 -24 21 2 0.28025815D-01 0.10921057D+00 0.11400715D+06 0.11400715D+06 0.11400715D+06 0.11170798D+01  1  2  1  1  7  1       -2 0.829917216264D-03 0.100000000000D+01
  </mgrwgt>
  </event>
  <event>
  8     66 0.27011060E-05 0.18465568E+03 0.75467711E-02 0.94447996E-01
       -2 -1    0    0    0  501 0.00000000E+00 0.00000000E+00 0.57675022E+03 0.57675031E+03 0.32000000E+00 0.0000E+00 0.9000E+01
        2 -1    0    0  501    0 0.00000000E+00 0.00000000E+00 -.52794891E+03 0.52794901E+03 0.32000000E+00 0.0000E+00 0.9000E+01
       25  2    1    2    0    0 0.37726433E+03 -.22800326E+03 0.27793303E+03 0.60131099E+03 0.30002379E+03 0.0000E+00 0.0000E+00
       23  2    1    2    0    0 -.37726433E+03 0.22800326E+03 -.22913172E+03 0.50338833E+03 0.81145548E+02 0.0000E+00 0.0000E+00
       24  1    3    3    0    0 0.41941921E+01 -.84757929E+02 0.19156110E+02 0.11847223E+03 0.80419002E+02 0.0000E+00 0.9000E+01
      -11  1    4    4    0    0 -.14480253E+03 0.66075973E+02 -.12186154E+03 0.20045958E+03 0.51099893E-03 0.0000E+00 0.9000E+01
       11  1    4    4    0    0 -.23246181E+03 0.16192729E+03 -.10727018E+03 0.30292875E+03 0.51099893E-03 0.0000E+00 0.9000E+01
      -24  1    3    3    0    0 0.37307014E+03 -.14324533E+03 0.25877692E+03 0.48283875E+03 0.80419002E+02 0.0000E+00 0.9000E+01
#aMCatNLO 1  0  0  1  2 0.47304417D+02 0.00000000D+00  -5  7  0 0.00000000D+00 0.00000000D+00 0.00000000D+00 0.00000000D+00 0.00000000D+00
  <mgrwgt>
 0.1304404332D-02    9    2    0
 0.551810432313614D+03 0.000000000000000D+00 0.000000000000000D+00 0.551810432313614D+03
 0.551810432313614D+03 0.000000000000000D+00 0.000000000000000D+00 -.551810432313614D+03
 0.117740935303305D+03 0.419419211581766D+01 -.847579288114738D+02 0.139360736153094D+02
 0.206044091268706D+03 -.144802525372662D+03 0.660759730299148D+02 -.130844801121773D+03
 0.307968181633268D+03 -.232461807504193D+03 0.161927288280070D+03 -.120770287159749D+03
 0.471867656421948D+03 0.373070140761037D+03 -.143245332498511D+03 0.237679014666213D+03
 0.000000000000000D+00 -.000000000000000D+00 -.000000000000000D+00 0.000000000000000D+00
 0.600590153979246D+03 0.000000000000000D+00 0.000000000000000D+00 0.600590153979246D+03
 0.563905905571116D+03 0.000000000000000D+00 0.000000000000000D+00 -.563905905571116D+03
 0.114581954016247D+03 0.615840680959793D+01 -.801852112896571D+02 0.139360736153094D+02
 0.206385926221195D+03 -.141315563313597D+03 0.741936663533015D+02 -.130844801121773D+03
 0.310695598173050D+03 -.227231205860229D+03 0.174104197384116D+03 -.120770287159749D+03
 0.472970723812987D+03 0.381058442882884D+03 -.124648460579264D+03 0.237679014666213D+03
 0.598618573268826D+02 -.186700805186562D+02 -.434641918684972D+02 0.366842484081302D+02
0.105380601287D-03 0.000000000000D+00 0.000000000000D+00 0.876349901180D-07 0.000000000000D+00  7 -2 2 24 -11 11 -24 21 0 0.88730817D-01 0.81222924D-01 0.23378005D+06 0.23378005D+06 0.23378005D+06 0.10926575D+01  1  2  2  1  7  1       -2 0.833236570956D-03 0.100000000000D+01
-.573019372307D-05 0.000000000000D+00 -.404689256292D-06 0.876349901180D-07 0.000000000000D+00  7 -2 2 24 -11 11 -24 21 2 0.88730817D-01 0.81222924D-01 0.23378005D+06 0.23378005D+06 0.23378005D+06 0.10926575D+01  1  2  3  1  7  1       -2 -.540934998435D-04 0.100000000000D+01
0.615139432886D-05 0.000000000000D+00 0.000000000000D+00 0.876349901180D-07 0.000000000000D+00  7 -2 2 24 -11 11 -24 21 2 0.88730817D-01 0.81222924D-01 0.23378005D+06 0.23378005D+06 0.23378005D+06 0.10926575D+01  1  2 15  1  7  1       -2 0.580696681904D-04 0.100000000000D+01
0.351340282774D-03 0.000000000000D+00 0.000000000000D+00 0.876349901180D-07 0.000000000000D+00  7 -2 2 24 -11 11 -24 21 2 0.97489639D-01 0.81222924D-01 0.25797245D+06 0.25797245D+06 0.25797245D+06 0.10894350D+01  1  2 12  1  7  1       -2 0.263399881143D-02 0.100000000000D+01
-.353431157018D-03 0.000000000000D+00 0.000000000000D+00 0.876349901180D-07 0.000000000000D+00  7 -2 2 24 -11 11 -24 21 2 0.88730817D-01 0.81222924D-01 0.23378005D+06 0.23378005D+06 0.23378005D+06 0.10926575D+01  1  2  4  1  7  1       -2 -.333641917897D-02 0.100000000000D+01
-.794768403081D-03 0.000000000000D+00 -.130084430123D-03 0.876349901180D-07 0.000000000000D+00  7 -2 2 24 -11 11 -24 21 2 0.98003599D-01 0.81222924D-01 0.23378005D+06 0.23378005D+06 0.23378005D+06 0.10926575D+01  1  2  5  1  7  1       -2 -.593684294037D-02 0.100000000000D+01
0.804361644467D-03 0.000000000000D+00 0.129444463911D-03 0.876349901180D-07 0.000000000000D+00  7 -2 2 24 -11 11 -24 21 2 0.88730817D-01 0.81222924D-01 0.23378005D+06 0.23378005D+06 0.23378005D+06 0.10926575D+01  1  2  6  1  7  1       -2 0.759324005293D-02 0.100000000000D+01
0.541529636393D-05 0.000000000000D+00 0.000000000000D+00 0.876349901180D-07 0.000000000000D+00  7 21 2 24 -11 11 -24 2 2 0.97489639D-01 0.81222924D-01 0.25797245D+06 0.25797245D+06 0.25797245D+06 0.10894350D+01  1  2 12  3  7  1       -2 0.377419662210D-03 0.100000000000D+01
-.124173399129D-04 0.000000000000D+00 -.210185393213D-05 0.876349901180D-07 0.000000000000D+00  7 21 2 24 -11 11 -24 2 2 0.98003599D-01 0.81222924D-01 0.23378005D+06 0.23378005D+06 0.23378005D+06 0.10926575D+01  1  2  5  3  7  1       -2 -.864204814823D-03 0.100000000000D+01
  </mgrwgt>
  </event>
  <event>
  7     66 0.27011060E-05 0.84179549E+02 0.75467711E-02 0.10097245E+00
       -2 -1    0    0    0  501 0.00000000E+00 0.00000000E+00 0.82232890E+02 0.82233512E+02 0.32000000E+00 0.0000E+00 0.9000E+01
        2 -1    0    0  501    0 0.00000000E+00 0.00000000E+00 -.12768221E+04 0.12768221E+04 0.32000000E+00 0.0000E+00 0.9000E+01
       25  2    1    2    0    0 0.12472725E+03 0.15386347E+03 -.50763418E+03 0.62229195E+03 0.30053945E+03 0.0000E+00 0.0000E+00
       24  1    3    3    0    0 0.84889557E+02 0.17936921E+03 -.47902996E+03 0.52470608E+03 0.80419002E+02 0.0000E+00 0.9000E+01
      -13  1    1    2    0    0 -.84630392E+02 -.91682861E+02 -.15170511E+03 0.19642429E+03 0.10565837E+00 0.0000E+00 0.9000E+01
       13  1    1    2    0    0 -.40096859E+02 -.62180613E+02 -.53524990E+03 0.54033939E+03 0.10565837E+00 0.0000E+00 0.9000E+01
      -24  1    3    3    0    0 0.39837694E+02 -.25505740E+02 -.28604215E+02 0.97585869E+02 0.80419002E+02 0.0000E+00 0.9000E+01
#aMCatNLO 1  0  0  2  1 0.74992554D+02 0.00000000D+00  -5  7  0 0.00000000D+00 0.00000000D+00 0.00000000D+00 0.00000000D+00 0.00000000D+00
  <mgrwgt>
 0.2533907615D-02    9    2    0
 0.324032744283547D+03 0.000000000000000D+00 0.000000000000000D+00 0.324032744283547D+03
 0.324032744283547D+03 0.000000000000000D+00 0.000000000000000D+00 -.324032744283547D+03
 0.217359438083265D+03 0.848924277868162D+02 0.179372755888471D+03 -.373711054016027D+02
 0.132277513123548D+03 -.846301842371916D+02 -.916838636339796D+02 0.439219938444887D+02
 0.146507025694221D+03 -.401019440641335D+02 -.621856267475726D+02 -.126447975413036D+03
 0.151921511666059D+03 0.398397005145089D+02 -.255032655069184D+02 0.119897086970150D+03
 0.000000000000000D+00 0.000000000000000D+00 0.000000000000000D+00 -.000000000000000D+00
 0.356767921882642D+03 0.000000000000000D+00 0.000000000000000D+00 0.356767921882642D+03
 0.372182499490037D+03 0.000000000000000D+00 0.000000000000000D+00 -.372182499490037D+03
 0.200001303768969D+03 0.639787987805298D+02 0.167461695150203D+03 -.373711054016027D+02
 0.146920602385932D+03 -.986205892309772D+02 -.996519003426658D+02 0.439219938444887D+02
 0.155078308505398D+03 -.552141555414190D+02 -.707925724259806D+02 -.126447975413036D+03
 0.150389822577935D+03 0.246911097277580D+02 -.341309305049877D+02 0.119897086970150D+03
 0.765603841344443D+02 0.651648362641084D+02 0.371137081234307D+02 -.154145776073948D+02
0.164126266961D-04 0.000000000000D+00 0.000000000000D+00 0.630134362257D-09 0.000000000000D+00  7 -2 2 24 -13 13 -24 21 0 0.12651265D-01 0.19643422D+00 0.64057002D+05 0.64057002D+05 0.64057002D+05 0.11379498D+01  1  2  2  2  7  2        2 0.151855131081D-02 0.100000000000D+01
-.844132150691D-06 0.000000000000D+00 -.630288080567D-07 0.630134362257D-09 0.000000000000D+00  7 -2 2 24 -13 13 -24 21 2 0.12651265D-01 0.19643422D+00 0.64057002D+05 0.64057002D+05 0.64057002D+05 0.11379498D+01  1  2  3  2  7  2        2 -.101136526302D-03 0.100000000000D+01
0.101592940779D-05 0.000000000000D+00 0.000000000000D+00 0.630134362257D-09 0.000000000000D+00  7 -2 2 24 -13 13 -24 21 2 0.12651265D-01 0.19643422D+00 0.64057002D+05 0.64057002D+05 0.64057002D+05 0.11379498D+01  1  2 15  2  7  2        2 0.121719770048D-03 0.100000000000D+01
0.145534384032D-04 0.000000000000D+00 0.000000000000D+00 0.630134362257D-09 0.000000000000D+00  7 -2 2 24 -13 13 -24 21 2 0.12651265D-01 0.23430924D+00 0.87685852D+05 0.87685852D+05 0.87685852D+05 0.11264356D+01  1  2 12  2  7  2        2 0.125088498436D-02 0.100000000000D+01
-.139718604005D-04 0.000000000000D+00 0.000000000000D+00 0.630134362257D-09 0.000000000000D+00  7 -2 2 24 -13 13 -24 21 2 0.12651265D-01 0.19643422D+00 0.64057002D+05 0.64057002D+05 0.64057002D+05 0.11379498D+01  1  2  4  2  7  2        2 -.167398602900D-02 0.100000000000D+01
-.355797063215D-04 0.000000000000D+00 -.108644484841D-04 0.630134362257D-09 0.000000000000D+00  7 -2 2 24 -13 13 -24 21 2 0.12651265D-01 0.23887455D+00 0.64057002D+05 0.64057002D+05 0.64057002D+05 0.11379498D+01  1  2  5  2  7  2        2 -.302373679055D-02 0.100000000000D+01
0.371956130307D-04 0.000000000000D+00 0.106598549533D-04 0.630134362257D-09 0.000000000000D+00  7 -2 2 24 -13 13 -24 21 2 0.12651265D-01 0.19643422D+00 0.64057002D+05 0.64057002D+05 0.64057002D+05 0.11379498D+01  1  2  6  2  7  2        2 0.445645281078D-02 0.100000000000D+01
0.377654927250D-06 0.000000000000D+00 0.000000000000D+00 0.630134362257D-09 0.000000000000D+00  7 -2 21 24 -13 13 -24 -2 2 0.12651265D-01 0.23430924D+00 0.87685852D+05 0.87685852D+05 0.87685852D+05 0.11264356D+01  1  2 12  4  7  2        2 0.117508676337D-04 0.100000000000D+01
-.880533601574D-06 0.000000000000D+00 -.305648547764D-06 0.630134362257D-09 0.000000000000D+00  7 -2 21 24 -13 13 -24 -2 2 0.12651265D-01 0.23887455D+00 0.64057002D+05 0.64057002D+05 0.64057002D+05 0.11379498D+01  1  2  5  4  7  2        2 -.265927830874D-04 0.100000000000D+01
  </mgrwgt>
  </event>
  <event>
  9     66 0.27011060E-05 0.19056351E+03 0.75467711E-02 0.10134835E+00
       -2 -1    0    0    0  502 0.00000000E+00 0.00000000E+00 0.33908221E+03 0.33908236E+03 0.32000000E+00 0.0000E+00 0.9000E+01
        2 -1    0    0  501    0 0.00000000E+00 0.00000000E+00 -.49695922E+03 0.49695932E+03 0.32000000E+00 0.0000E+00 0.9000E+01
       25  2    1    2    0    0 0.22175062E+03 -.15427108E+02 -.27014879E+03 0.46087004E+03 0.30001582E+03 0.0000E+00 0.0000E+00
       23  2    1    2    0    0 -.77239923E+02 -.59382711E+02 -.35950313E+02 0.15505757E+03 0.11514388E+03 0.0000E+00 0.0000E+00
       24  1    3    3    0    0 0.13035753E+03 -.78853769E+02 -.27387322E+03 0.32355025E+03 0.80419002E+02 0.0000E+00 0.9000E+01
      -11  1    4    4    0    0 -.35107388E+02 -.69034418E+01 -.70757746E+02 0.79289626E+02 0.51099893E-03 0.0000E+00 0.9000E+01
       11  1    4    4    0    0 -.42132535E+02 -.52479269E+02 0.34807433E+02 0.75767945E+02 0.51099893E-03 0.0000E+00 0.9000E+01
      -24  1    3    3    0    0 0.91393087E+02 0.63426661E+02 0.37244338E+01 0.13731979E+03 0.80419002E+02 0.0000E+00 0.9000E+01
       21  1    1    2  501  502 -.14451070E+03 0.74809819E+02 0.14822210E+03 0.22011407E+03 0.75000000E+00 0.0000E+00 0.9000E+01
#aMCatNLO 2  0  0  1  2 0.16272631D+03 0.00000000D+00  -5  7  0 0.00000000D+00 0.00000000D+00 0.00000000D+00 0.00000000D+00 0.00000000D+00
  <mgrwgt>
 0.1220836879D-03    2    2    0
 0.254553682113976D+03 0.000000000000000D+00 0.000000000000000D+00 0.254553682113976D+03
 0.254553682113976D+03 0.000000000000000D+00 0.000000000000000D+00 -.254553682113976D+03
 0.178182632818478D+03 0.757723511376501D+02 -.505962846653091D+02 -.130308869478995D+03
 0.623340640411361D+02 -.507803801338675D+02 0.121009303644193D+01 -.361306546880557D+02
 0.116841230606260D+03 -.731632701012221D+02 -.364153872510257D+02 0.835040636678163D+02
 0.151749436762078D+03 0.481712990974396D+02 0.858015788798929D+02 0.829354604992344D+02
 0.000000000000000D+00 -.000000000000000D+00 0.000000000000000D+00 0.000000000000000D+00
 0.584945823785321D+03 0.000000000000000D+00 0.000000000000000D+00 0.584945823785321D+03
 0.288077410849127D+03 0.000000000000000D+00 0.000000000000000D+00 -.288077410849127D+03
 0.216006073316637D+03 0.130357545670932D+03 -.788537670441886D+02 -.130308869478995D+03
 0.508489024029203D+02 -.351073937061816D+02 -.690344657061612D+01 -.361306546880557D+02
 0.107248095225521D+03 -.421325499081199D+02 -.524792675130240D+02 0.835040636678163D+02
 0.160378134652063D+03 0.913930960177242D+02 0.634266624707598D+02 0.829354604992344D+02
 0.338542029037305D+03 -.144510698074355D+03 0.748098186570690D+02 0.296868412936194D+03
-.130330505407D-06 0.000000000000D+00 0.000000000000D+00 0.378418270520D-08 0.000000000000D+00  7 -2 2 24 -11 11 -24 21 2 0.51740367D-01 0.67558048D-01 0.82756470D+05 0.82756470D+05 0.82756470D+05 0.11285304D+01  1  2 13  1  7  1       -2 -.521170700890D-05 0.100000000000D+01
0.370839516932D-05 0.000000000000D+00 0.000000000000D+00 0.378418270520D-08 0.127311997363D-11  7 -2 2 24 -11 11 -24 21 2 0.52166443D-01 0.76455180D-01 0.82756470D+05 0.82756470D+05 0.82756470D+05 0.11285304D+01  1  2  1  1  7  1       -2 0.127295394860D-03 0.100000000000D+01
  </mgrwgt>
  </event>
  <event>
  8     66 0.27011060E-05 0.34507751E+03 0.75467711E-02 0.96652357E-01
       -2 -1    0    0    0  501 0.00000000E+00 0.00000000E+00 0.22993153E+03 0.22993175E+03 0.32000000E+00 0.0000E+00 0.9000E+01
        2 -1    0    0  501    0 0.00000000E+00 0.00000000E+00 -.80638409E+03 0.80638415E+03 0.32000000E+00 0.0000E+00 0.9000E+01
       25  2    1    2    0    0 0.13536773E+03 -.33158397E+03 -.22583951E+03 0.52706096E+03 0.31387485E+03 0.0000E+00 0.0000E+00
       23  2    1    2    0    0 -.13536773E+03 0.33158397E+03 -.35061304E+03 0.50925494E+03 0.90214923E+02 0.0000E+00 0.0000E+00
       24  1    3    3    0    0 0.15108601E+03 -.53573954E+02 -.13104107E+03 0.22211737E+03 0.80419002E+02 0.0000E+00 0.9000E+01
      -13  1    4    4    0    0 -.10693389E+03 0.31994449E+03 -.33211658E+03 0.47339283E+03 0.10565837E+00 0.0000E+00 0.9000E+01
       13  1    4    4    0    0 -.28433837E+02 0.11639481E+02 -.18496461E+02 0.35862109E+02 0.10565837E+00 0.0000E+00 0.9000E+01
      -24  1    3    3    0    0 -.15718273E+02 -.27801002E+03 -.94798446E+02 0.30494359E+03 0.80419002E+02 0.0000E+00 0.9000E+01
#aMCatNLO 1  0  0  2  2 0.22896759D+01 0.00000000D+00  -5  7  0 0.00000000D+00 0.00000000D+00 0.00000000D+00 0.00000000D+00 0.00000000D+00
  <mgrwgt>
 0.1234347767D-02   10    2    0
 0.430596415432297D+03 0.000000000000000D+00 0.000000000000000D+00 0.430596415432297D+03
 0.430596415432297D+03 0.000000000000000D+00 0.000000000000000D+00 -.430596415432297D+03
 0.179570474534232D+03 0.151086005269082D+03 -.535739535311808D+02 -.901054298856511D+01
 0.347350120601549D+03 -.106934002251227D+03 0.319944910584866D+03 -.827797054554299D+02
 0.307733256371223D+02 -.284337296102772D+02 0.116390581416000D+02 0.174725979592793D+01
 0.303498910091691D+03 -.157182734075780D+02 -.278010015195285D+03 0.900429886480671D+02
 0.000000000000000D+00 -.000000000000000D+00 0.000000000000000D+00 -.000000000000000D+00
 0.431031580018128D+03 0.000000000000000D+00 0.000000000000000D+00 0.431031580018128D+03
 0.433620365689648D+03 0.000000000000000D+00 0.000000000000000D+00 -.433620365689648D+03
 0.179836209938428D+03 0.151241072007589D+03 -.540258706889057D+02 -.901054298856511D+01
 0.346454476887582D+03 -.106634658859070D+03 0.319072522242468D+03 -.827797054554299D+02
 0.307196288764294D+02 -.284071983510950D+02 0.115617370387256D+02 0.174725979592793D+01
 0.304185558967395D+03 -.154560867184330D+02 -.278774116281645D+03 0.900429886480671D+02
 0.345607103794147D+01 -.743128078991221D+00 0.216572768935724D+01 -.258878567151937D+01
0.158368736163D-04 0.000000000000D+00 0.000000000000D+00 0.341330081976D-08 0.000000000000D+00  7 -2 2 24 -13 13 -24 21 0 0.35374103D-01 0.12405911D+00 0.17524443D+06 0.17524443D+06 0.17524443D+06 0.11022601D+01  1  2  2  2  7  2        2 0.497569638970D-03 0.100000000000D+01
-.878975445817D-06 0.000000000000D+00 -.608177646312D-07 0.341330081976D-08 0.000000000000D+00  7 -2 2 24 -13 13 -24 21 2 0.35374103D-01 0.12405911D+00 0.17524443D+06 0.17524443D+06 0.17524443D+06 0.11022601D+01  1  2  3  2  7  2        2 -.335528468228D-04 0.100000000000D+01
0.997532134922D-06 0.000000000000D+00 0.000000000000D+00 0.341330081976D-08 0.000000000000D+00  7 -2 2 24 -13 13 -24 21 2 0.35374103D-01 0.12405911D+00 0.17524443D+06 0.17524443D+06 0.17524443D+06 0.11022601D+01  1  2 15  2  7  2        2 0.380784731622D-04 0.100000000000D+01
-.113468997861D-02 0.000000000000D+00 0.000000000000D+00 0.341330081976D-08 0.000000000000D+00  7 -2 2 24 -13 13 -24 21 2 0.35374103D-01 0.12405911D+00 0.17524443D+06 0.17524443D+06 0.17524443D+06 0.11022601D+01  1  2  4  2  7  2        2 -.433141553894D-01 0.100000000000D+01
-.343622332768D-02 0.000000000000D+00 -.264625875883D-03 0.341330081976D-08 0.000000000000D+00  7 -2 2 24 -13 13 -24 21 2 0.35374103D-01 0.12500012D+00 0.17524443D+06 0.17524443D+06 0.17524443D+06 0.11022601D+01  1  2  5  2  7  2        2 -.129907787037D+00 0.100000000000D+01
0.343813238535D-02 0.000000000000D+00 0.264618320756D-03 0.341330081976D-08 0.000000000000D+00  7 -2 2 24 -13 13 -24 21 2 0.35374103D-01 0.12405911D+00 0.17524443D+06 0.17524443D+06 0.17524443D+06 0.11022601D+01  1  2  6  2  7  2        2 0.131242721092D+00 0.100000000000D+01
0.113473276114D-02 0.000000000000D+00 0.000000000000D+00 0.341330081976D-08 0.421758603383D-08  7 -2 2 24 -13 13 -24 21 2 0.35409853D-01 0.12493034D+00 0.17620800D+06 0.17620800D+06 0.17620800D+06 0.11020750D+01  1  2 11  2  7  2        2 0.428320565782D-01 0.100000000000D+01
0.450244265525D-08 0.000000000000D+00 0.000000000000D+00 0.341330081976D-08 0.000000000000D+00  7 -2 21 24 -13 13 -24 -2 2 0.35374103D-01 0.12499278D+00 0.17620800D+06 0.17620800D+06 0.17620800D+06 0.11020750D+01  1  2 12  4  7  2        2 0.166895805107D-06 0.100000000000D+01
-.480830278086D-05 0.000000000000D+00 -.370722908849D-06 0.341330081976D-08 0.000000000000D+00  7 -2 21 24 -13 13 -24 -2 2 0.35374103D-01 0.12500012D+00 0.17524443D+06 0.17524443D+06 0.17524443D+06 0.11022601D+01  1  2  5  4  7  2        2 -.178324680449D-03 0.100000000000D+01
0.155394147858D-05 0.000000000000D+00 0.000000000000D+00 0.341330081976D-08 0.547545379886D-11  7 -2 21 24 -13 13 -24 -2 2 0.35409853D-01 0.12493034D+00 0.17620800D+06 0.17620800D+06 0.17620800D+06 0.11020750D+01  1  2 11  4  7  2        2 0.575750426450D-04 0.100000000000D+01
  </mgrwgt>
  </event>
  <event>
  8     66 0.27011060E-05 0.29708687E+03 0.75467711E-02 0.97342029E-01
       -2 -1    0    0    0  501 0.00000000E+00 0.00000000E+00 0.16635761E+03 0.16635792E+03 0.32000000E+00 0.0000E+00 0.9000E+01
        2 -1    0    0  501    0 0.00000000E+00 0.00000000E+00 -.10251565E+04 0.10251565E+04 0.32000000E+00 0.0000E+00 0.9000E+01
       25  2    1    2    0    0 -.23494174E+03 -.21471384E+03 -.26514034E+03 0.51144730E+03 0.29996548E+03 0.0000E+00 0.0000E+00
       23  2    1    2    0    0 0.23494174E+03 0.21471384E+03 -.59365851E+03 0.68006714E+03 0.93601424E+02 0.0000E+00 0.0000E+00
       24  1    3    3    0    0 -.26929752E+03 -.13753868E+03 -.23402533E+03 0.39073407E+03 0.80419002E+02 0.0000E+00 0.9000E+01
      -13  1    4    4    0    0 0.15683586E+03 0.15203616E+03 -.30981344E+03 0.37907369E+03 0.10565837E+00 0.0000E+00 0.9000E+01
       13  1    4    4    0    0 0.78105875E+02 0.62677679E+02 -.28384507E+03 0.30099345E+03 0.10565837E+00 0.0000E+00 0.9000E+01
      -24  1    3    3    0    0 0.34355777E+02 -.77175160E+02 -.31115011E+02 0.12071323E+03 0.80419002E+02 0.0000E+00 0.9000E+01
#aMCatNLO 1  0  0  1  2 0.44225834D+02 0.00000000D+00  -5  7  0 0.00000000D+00 0.00000000D+00 0.00000000D+00 0.00000000D+00 0.00000000D+00
  <mgrwgt>
 0.8004087974D-03    9    2    0
 0.412968273822042D+03 0.000000000000000D+00 0.000000000000000D+00 0.412968273822042D+03
 0.412968273822042D+03 0.000000000000000D+00 0.000000000000000D+00 -.412968273822042D+03
 0.320344943246659D+03 -.269297515547171D+03 -.137538679327354D+03 0.686704195293969D+02
 0.224719967808014D+03 0.156835963934211D+03 0.152036274074515D+03 -.527874579232665D+02
 0.139081054005148D+03 0.781057748596254D+02 0.626775655837194D+02 -.965119178612619D+02
 0.141790582584262D+03 0.343557767533347D+02 -.771751603308797D+02 0.806289562551316D+02
 0.000000000000000D+00 0.000000000000000D+00 0.000000000000000D+00 0.000000000000000D+00
 0.451709539565783D+03 0.000000000000000D+00 0.000000000000000D+00 0.451709539565783D+03
 0.426377326501460D+03 0.000000000000000D+00 0.000000000000000D+00 -.426377326501460D+03
 0.332912300475450D+03 -.275659441872026D+03 -.153816869822348D+03 0.686704195293969D+02
 0.214402468301589D+03 0.152559448651804D+03 0.141094001739516D+03 -.527874579232665D+02
 0.134631999888559D+03 0.754401445895327D+02 0.558570469058683D+02 -.965119178612619D+02
 0.145172996022949D+03 0.315611025839158D+02 -.843258622061127D+02 0.806289562551316D+02
 0.509671013786962D+02 0.160987460467733D+02 0.411916833830758D+02 0.253322130643225D+02
0.158187993802D-04 0.000000000000D+00 0.000000000000D+00 0.866601223005D-06 0.000000000000D+00  7 -2 2 24 -13 13 -24 21 0 0.25593506D-01 0.15771641D+00 0.13991686D+06 0.13991686D+06 0.13991686D+06 0.11099447D+01  1  2  2  1  7  1       -2 0.639816920011D-03 0.100000000000D+01
-.868356195826D-06 0.000000000000D+00 -.607483548054D-07 0.866601223005D-06 0.000000000000D+00  7 -2 2 24 -13 13 -24 21 2 0.25593506D-01 0.15771641D+00 0.13991686D+06 0.13991686D+06 0.13991686D+06 0.11099447D+01  1  2  3  1  7  1       -2 -.432695916464D-04 0.100000000000D+01
0.984300544082D-06 0.000000000000D+00 0.000000000000D+00 0.866601223005D-06 0.000000000000D+00  7 -2 2 24 -13 13 -24 21 2 0.25593506D-01 0.15771641D+00 0.13991686D+06 0.13991686D+06 0.13991686D+06 0.11099447D+01  1  2 15  1  7  1       -2 0.490470187286D-04 0.100000000000D+01
0.377893847618D-04 0.000000000000D+00 0.000000000000D+00 0.866601223005D-06 0.000000000000D+00  7 -2 2 24 -13 13 -24 21 2 0.28382318D-01 0.15771641D+00 0.15696373D+06 0.15696373D+06 0.15696373D+06 0.11060000D+01  1  2 12  1  7  1       -2 0.155946141327D-02 0.100000000000D+01
-.371913860929D-04 0.000000000000D+00 0.000000000000D+00 0.866601223005D-06 0.000000000000D+00  7 -2 2 24 -13 13 -24 21 2 0.25593506D-01 0.15771641D+00 0.13991686D+06 0.13991686D+06 0.13991686D+06 0.11099447D+01  1  2  4  1  7  1       -2 -.185322117438D-02 0.100000000000D+01
-.923947440518D-04 0.000000000000D+00 -.175828660104D-04 0.866601223005D-06 0.000000000000D+00  7 -2 2 24 -13 13 -24 21 2 0.28841185D-01 0.15771641D+00 0.13991686D+06 0.13991686D+06 0.13991686D+06 0.11099447D+01  1  2  5  1  7  1       -2 -.374224696992D-02 0.100000000000D+01
0.939488048242D-04 0.000000000000D+00 0.174581359629D-04 0.866601223005D-06 0.000000000000D+00  7 -2 2 24 -13 13 -24 21 2 0.25593506D-01 0.15771641D+00 0.13991686D+06 0.13991686D+06 0.13991686D+06 0.11099447D+01  1  2  6  1  7  1       -2 0.468140429002D-02 0.100000000000D+01
0.631875971290D-06 0.000000000000D+00 0.000000000000D+00 0.866601223005D-06 0.000000000000D+00  7 21 2 24 -13 13 -24 2 2 0.28382318D-01 0.15771641D+00 0.15696373D+06 0.15696373D+06 0.15696373D+06 0.11060000D+01  1  2 12  3  7  1       -2 0.309124288172D-03 0.100000000000D+01
-.166585303987D-05 0.000000000000D+00 -.332363401303D-06 0.866601223005D-06 0.000000000000D+00  7 21 2 24 -13 13 -24 2 2 0.28841185D-01 0.15771641D+00 0.13991686D+06 0.13991686D+06 0.13991686D+06 0.11099447D+01  1  2  5  3  7  1       -2 -.799707396880D-03 0.100000000000D+01
  </mgrwgt>
  </event>
  <event>
  8     66 0.27011060E-05 0.25131749E+03 0.75467711E-02 0.93036027E-01
       -2 -1    0    0    0  501 0.00000000E+00 0.00000000E+00 0.24144113E+03 0.24144135E+03 0.32000000E+00 0.0000E+00 0.9000E+01
        2 -1    0    0  501    0 0.00000000E+00 0.00000000E+00 -.85198414E+03 0.85198420E+03 0.32000000E+00 0.0000E+00 0.9000E+01
       25  2    1    2    0    0 0.18482384E+03 -.34665299E+03 -.25651376E+03 0.55681549E+03 0.29986003E+03 0.0000E+00 0.0000E+00
       23  2    1    2    0    0 -.18482384E+03 0.34665299E+03 -.35402925E+03 0.53661005E+03 0.91024709E+02 0.0000E+00 0.0000E+00
       24  1    3    3    0    0 0.21248629E+03 -.33946002E+03 -.20368447E+03 0.45644070E+03 0.80419002E+02 0.0000E+00 0.9000E+01
      -13  1    4    4    0    0 -.17487656E+03 0.33576532E+03 -.30727187E+03 0.48758197E+03 0.10565837E+00 0.0000E+00 0.9000E+01
       13  1    4    4    0    0 -.99472739E+01 0.10887667E+02 -.46757381E+02 0.49028087E+02 0.10565837E+00 0.0000E+00 0.9000E+01
      -24  1    3    3    0    0 -.27662454E+02 -.71929687E+01 -.52829288E+02 0.10037480E+03 0.80419002E+02 0.0000E+00 0.9000E+01
#aMCatNLO 1  0  0  2  1 0.23418290D+03 0.00000000D+00  -5  7  0 0.00000000D+00 0.00000000D+00 0.00000000D+00 0.00000000D+00 0.00000000D+00
  <mgrwgt>
 0.1225963253D-02    9    2    0
 0.453546211832476D+03 0.000000000000000D+00 0.000000000000000D+00 0.453546211832476D+03
 0.453546211832476D+03 0.000000000000000D+00 0.000000000000000D+00 -.453546211832476D+03
 0.413106513396300D+03 0.212486292075416D+03 -.339460019764609D+03 0.616947819311249D+02
 0.380922950444793D+03 -.174876786323736D+03 0.335765759547901D+03 -.422108812496237D+02
 0.276275482190735D+02 -.994705167885378D+01 0.108872289771338D+02 -.233624876392670D+02
 0.854354116047860D+02 -.276624540728267D+02 -.719296876042644D+01 0.387858695776577D+01
 0.000000000000000D+00 0.000000000000000D+00 -.000000000000000D+00 -.000000000000000D+00
 0.541573363814587D+03 0.000000000000000D+00 0.000000000000000D+00 0.541573363814587D+03
 0.655829703926208D+03 0.000000000000000D+00 0.000000000000000D+00 -.655829703926208D+03
 0.336869568955361D+03 0.128563108221795D+03 -.294413266719797D+03 0.616947819311249D+02
 0.474188403356490D+03 -.270564727644956D+03 0.387127384120936D+03 -.422108812496237D+02
 0.321253774166014D+02 -.166334725953586D+02 0.144762438112804D+02 -.233624876392670D+02
 0.936508378950695D+02 -.477024108075865D+02 0.356371301220489D+01 0.387858695776577D+01
 0.260568880117272D+03 0.206337502826106D+03 -.110754074224624D+03 -.114256340111622D+03
0.399321305610D-04 0.000000000000D+00 0.000000000000D+00 0.455303924074D-05 0.000000000000D+00  7 -2 2 24 -13 13 -24 21 0 0.37144811D-01 0.13107450D+00 0.19675658D+06 0.19675658D+06 0.19675658D+06 0.10983712D+01  1  2  2  2  7  2        2 0.106599129416D-02 0.100000000000D+01
-.221711805646D-05 0.000000000000D+00 -.153349895726D-06 0.455303924074D-05 0.000000000000D+00  7 -2 2 24 -13 13 -24 21 2 0.37144811D-01 0.13107450D+00 0.19675658D+06 0.19675658D+06 0.19675658D+06 0.10983712D+01  1  2  3  2  7  2        2 -.714032914264D-04 0.100000000000D+01
0.249157646013D-05 0.000000000000D+00 0.000000000000D+00 0.455303924074D-05 0.000000000000D+00  7 -2 2 24 -13 13 -24 21 2 0.37144811D-01 0.13107450D+00 0.19675658D+06 0.19675658D+06 0.19675658D+06 0.10983712D+01  1  2 15  2  7  2        2 0.802423486540D-04 0.100000000000D+01
0.132081413555D-04 0.000000000000D+00 0.000000000000D+00 0.455303924074D-05 0.000000000000D+00  7 -2 2 24 -13 13 -24 21 2 0.37144811D-01 0.19770588D+00 0.33251483D+06 0.33251483D+06 0.33251483D+06 0.10812609D+01  1  2 12  2  7  2        2 0.221726892850D-03 0.100000000000D+01
-.227794161077D-04 0.000000000000D+00 0.000000000000D+00 0.455303924074D-05 0.000000000000D+00  7 -2 2 24 -13 13 -24 21 2 0.37144811D-01 0.13107450D+00 0.19675658D+06 0.19675658D+06 0.19675658D+06 0.10983712D+01  1  2  4  2  7  2        2 -.733621415475D-03 0.100000000000D+01
-.320299966778D-04 0.000000000000D+00 -.146753340361D-04 0.455303924074D-05 0.000000000000D+00  7 -2 2 24 -13 13 -24 21 2 0.37144811D-01 0.21097568D+00 0.19675658D+06 0.19675658D+06 0.19675658D+06 0.10983712D+01  1  2  5  2  7  2        2 -.504869934653D-03 0.100000000000D+01
0.363391204857D-04 0.000000000000D+00 0.131566387168D-04 0.455303924074D-05 0.000000000000D+00  7 -2 2 24 -13 13 -24 21 2 0.37144811D-01 0.13107450D+00 0.19675658D+06 0.19675658D+06 0.19675658D+06 0.10983712D+01  1  2  6  2  7  2        2 0.117031783790D-02 0.100000000000D+01
0.641402508412D-06 0.000000000000D+00 0.000000000000D+00 0.455303924074D-05 0.000000000000D+00  7 -2 21 24 -13 13 -24 -2 2 0.37144811D-01 0.19770588D+00 0.33251483D+06 0.33251483D+06 0.33251483D+06 0.10812609D+01  1  2 12  4  7  2        2 0.493255722698D-05 0.100000000000D+01
-.111232997254D-05 0.000000000000D+00 -.796120333486D-06 0.455303924074D-05 0.000000000000D+00  7 -2 21 24 -13 13 -24 -2 2 0.37144811D-01 0.21097568D+00 0.19675658D+06 0.19675658D+06 0.19675658D+06 0.10983712D+01  1  2  5  4  7  2        2 -.735303657979D-05 0.100000000000D+01
  </mgrwgt>
  </event>
  <event>
  8     66 0.27011060E-05 0.46985567E+03 0.75467711E-02 0.90950564E-01
       -2 -1    0    0    0  501 0.00000000E+00 0.00000000E+00 0.15279654E+03 0.15279687E+03 0.32000000E+00 0.0000E+00 0.9000E+01
        2 -1    0    0  501    0 0.00000000E+00 0.00000000E+00 -.17759338E+04 0.17759338E+04 0.32000000E+00 0.0000E+00 0.9000E+01
       25  2    1    2    0    0 0.43264227E+03 0.13989652E+02 -.51981920E+03 0.74007982E+03 0.30021840E+03 0.0000E+00 0.0000E+00
       23  2    1    2    0    0 -.43264227E+03 -.13989652E+02 -.11033180E+04 0.11886508E+04 0.90582103E+02 0.0000E+00 0.0000E+00
       24  1    3    3    0    0 0.20678069E+03 0.11032688E+03 -.35738435E+03 0.43488051E+03 0.80419002E+02 0.0000E+00 0.9000E+01
      -11  1    4    4    0    0 -.60474432E+02 -.10376891E+02 -.88109755E+02 0.10736930E+03 0.51099893E-03 0.0000E+00 0.9000E+01
       11  1    4    4    0    0 -.37216784E+03 -.36127607E+01 -.10152083E+04 0.10812815E+04 0.51099893E-03 0.0000E+00 0.9000E+01
      -24  1    3    3    0    0 0.22586159E+03 -.96337227E+02 -.16243485E+03 0.30519930E+03 0.80419002E+02 0.0000E+00 0.9000E+01
#aMCatNLO 1  0  0  2  1 0.38244754D+03 0.00000000D+00  -5  7  0 0.00000000D+00 0.00000000D+00 0.00000000D+00 0.00000000D+00 0.00000000D+00
  <mgrwgt>
 0.1385506650D-02    6    2    0
 0.520919261766693D+03 0.000000000000000D+00 0.000000000000000D+00 0.520919261766693D+03
 0.520919261766693D+03 0.000000000000000D+00 0.000000000000000D+00 -.520919261766693D+03
 0.248295234796287D+03 0.206780687171831D+03 0.110326878749777D+03 0.159070709513167D+02
 0.614991948534725D+02 -.604744323654546D+02 -.103768913512055D+02 0.416102434344037D+01
 0.420102088068539D+03 -.372167840305543D+03 -.361276069001519D+01 -.194843041964684D+03
 0.311942005815086D+03 0.225861585499167D+03 -.963372267085566D+02 0.174774946669926D+03
 0.000000000000000D+00 0.000000000000000D+00 0.000000000000000D+00 -.000000000000000D+00
 0.742870161190727D+03 0.000000000000000D+00 0.000000000000000D+00 0.742870161190727D+03
 0.749450931307540D+03 0.000000000000000D+00 0.000000000000000D+00 -.749450931307540D+03
 0.189374498526812D+03 0.164702382544764D+03 0.448951558159570D+02 0.159070709513167D+02
 0.807234336793156D+02 -.741479551901343D+02 -.316392060980358D+02 0.416102434344037D+01
 0.522524913812037D+03 -.462793586421619D+03 -.144535708111320D+03 -.194843041964684D+03
 0.317194090279666D+03 0.165375382575430D+03 -.190393213661961D+03 0.174774946669926D+03
 0.382504156200437D+03 0.206863776491560D+03 0.321672972055359D+03 -.658077011681393D+01
0.519819351270D-04 0.000000000000D+00 0.000000000000D+00 0.602372469175D-05 0.000000000000D+00  7 -2 2 24 -11 11 -24 21 0 0.23507187D-01 0.27322061D+00 0.22076435D+06 0.22076435D+06 0.22076435D+06 0.10945458D+01  1  2  2  2  7  2        2 0.914564969988D-03 0.100000000000D+01
-.285051175786D-05 0.000000000000D+00 -.199624318045D-06 0.602372469175D-05 0.000000000000D+00  7 -2 2 24 -11 11 -24 21 2 0.23507187D-01 0.27322061D+00 0.22076435D+06 0.22076435D+06 0.22076435D+06 0.10945458D+01  1  2  3  2  7  2        2 -.600831643975D-04 0.100000000000D+01
0.330875670231D-05 0.000000000000D+00 0.000000000000D+00 0.602372469175D-05 0.000000000000D+00  7 -2 2 24 -11 11 -24 21 2 0.23507187D-01 0.27322061D+00 0.22076435D+06 0.22076435D+06 0.22076435D+06 0.10945458D+01  1  2 15  2  7  2        2 0.697420638060D-04 0.100000000000D+01
-.197656991129D-04 0.000000000000D+00 -.152847973693D-04 0.602372469175D-05 0.000000000000D+00  7 -2 2 24 -11 11 -24 21 2 0.23507187D-01 0.45790472D+00 0.22076435D+06 0.22076435D+06 0.22076435D+06 0.10945458D+01  1  2  5  2  7  2        2 -.856496268800D-04 0.100000000000D+01
0.259541594962D-04 0.000000000000D+00 0.134512090456D-04 0.602372469175D-05 0.000000000000D+00  7 -2 2 24 -11 11 -24 21 2 0.23507187D-01 0.27322061D+00 0.22076435D+06 0.22076435D+06 0.22076435D+06 0.10945458D+01  1  2  6  2  7  2        2 0.547062480100D-03 0.100000000000D+01
-.429048972672D-06 0.000000000000D+00 -.884277436079D-06 0.602372469175D-05 0.000000000000D+00  7 -2 21 24 -11 11 -24 -2 2 0.23507187D-01 0.45790472D+00 0.22076435D+06 0.22076435D+06 0.22076435D+06 0.10945458D+01  1  2  5  4  7  2        2 -.130072755376D-06 0.100000000000D+01
  </mgrwgt>
  </event>
  <event>
  8     66 0.27011060E-05 0.28826419E+03 0.75467711E-02 0.90606691E-01
       -2 -1    0    0    0  501 0.00000000E+00 0.00000000E+00 0.13018474E+04 0.13018474E+04 0.32000000E+00 0.0000E+00 0.9000E+01
        2 -1    0    0  501    0 0.00000000E+00 0.00000000E+00 -.54403776E+03 0.54403786E+03 0.32000000E+00 0.0000E+00 0.9000E+01
       25  2    1    2    0    0 -.42491932E+03 0.36178001E+03 0.10370792E+04 0.12151958E+04 0.29954347E+03 0.0000E+00 0.0000E+00
       23  2    1    2    0    0 0.42491932E+03 -.36178001E+03 -.27926964E+03 0.63068945E+03 0.91304148E+02 0.0000E+00 0.0000E+00
       24  1    3    3    0    0 -.12230590E+03 0.25760937E+03 0.58182825E+03 0.65292622E+03 0.80419002E+02 0.0000E+00 0.9000E+01
      -13  1    4    4    0    0 0.32870276E+03 -.32381228E+03 -.21630637E+03 0.50959626E+03 0.10565837E+00 0.0000E+00 0.9000E+01
       13  1    4    4    0    0 0.96216562E+02 -.37967733E+02 -.62963275E+02 0.12109319E+03 0.10565837E+00 0.0000E+00 0.9000E+01
      -24  1    3    3    0    0 -.30261342E+03 0.10417064E+03 0.45525098E+03 0.56226957E+03 0.80419002E+02 0.0000E+00 0.9000E+01
#aMCatNLO 1  0  0  1  2 0.24773416D+03 0.00000000D+00  -5  7  0 0.00000000D+00 0.00000000D+00 0.00000000D+00 0.00000000D+00 0.00000000D+00
  <mgrwgt>
 0.8718699908D-03    9    2    0
 0.841578425362100D+03 0.000000000000000D+00 0.000000000000000D+00 0.841578425362100D+03
 0.841578425362100D+03 0.000000000000000D+00 0.000000000000000D+00 -.841578425362100D+03
 0.454094254960429D+03 -.122305899251753D+03 0.257609374098028D+03 0.344111978603969D+03
 0.656252790244371D+03 0.328703069029619D+03 -.323812662424631D+03 -.466655522594026D+03
 0.161147899683615D+03 0.962162506980281D+02 -.379673497596129D+02 -.123570057159029D+03
 0.411661905835786D+03 -.302613420475894D+03 0.104170638086216D+03 0.246113601149087D+03
 0.000000000000000D+00 0.000000000000000D+00 -.000000000000000D+00 0.000000000000000D+00
 0.100796131490069D+04 0.000000000000000D+00 0.000000000000000D+00 0.100796131490069D+04
 0.948175321138476D+03 0.000000000000000D+00 0.000000000000000D+00 -.948175321138476D+03
 0.486367279645433D+03 -.188698741508531D+03 0.275800010677459D+03 0.344111978603969D+03
 0.604068708089315D+03 0.239729386053035D+03 -.299435216345414D+03 -.466655522594026D+03
 0.147749229566253D+03 0.744093424713638D+02 -.319925860804490D+02 -.123570057159029D+03
 0.463105233304064D+03 -.364368499810068D+03 0.121090597631813D+03 0.246113601149087D+03
 0.254846185434103D+03 0.238928512794201D+03 -.654628058834089D+02 0.597859937622174D+02
0.707543039605D-03 0.000000000000D+00 0.000000000000D+00 0.915791265107D-05 0.000000000000D+00  7 -2 2 24 -13 13 -24 21 0 0.20028422D+00 0.83698128D-01 0.35469724D+06 0.35469724D+06 0.35469724D+06 0.10792112D+01  1  2  2  1  7  1       -2 0.603045677823D-03 0.100000000000D+01
-.335940201751D-04 0.000000000000D+00 -.271715157244D-05 0.915791265107D-05 0.000000000000D+00  7 -2 2 24 -13 13 -24 21 2 0.20028422D+00 0.83698128D-01 0.35469724D+06 0.35469724D+06 0.35469724D+06 0.10792112D+01  1  2  3  1  7  1       -2 -.333481838818D-04 0.100000000000D+01
0.430789065993D-04 0.000000000000D+00 0.000000000000D+00 0.915791265107D-05 0.000000000000D+00  7 -2 2 24 -13 13 -24 21 2 0.20028422D+00 0.83698128D-01 0.35469724D+06 0.35469724D+06 0.35469724D+06 0.10792112D+01  1  2 15  1  7  1       -2 0.427636612472D-04 0.100000000000D+01
0.380989367161D-03 0.000000000000D+00 0.000000000000D+00 0.915791265107D-05 0.000000000000D+00  7 -2 2 24 -13 13 -24 21 2 0.25049335D+00 0.83698128D-01 0.52440493D+06 0.52440493D+06 0.52440493D+06 0.10670507D+01  1  2 12  1  7  1       -2 0.168411372170D-03 0.100000000000D+01
-.446554727031D-03 0.000000000000D+00 0.000000000000D+00 0.915791265107D-05 0.000000000000D+00  7 -2 2 24 -13 13 -24 21 2 0.20028422D+00 0.83698128D-01 0.35469724D+06 0.35469724D+06 0.35469724D+06 0.10792112D+01  1  2  4  1  7  1       -2 -.443286902630D-03 0.100000000000D+01
-.888507314718D-03 0.000000000000D+00 -.338431288945D-03 0.915791265107D-05 0.000000000000D+00  7 -2 2 24 -13 13 -24 21 2 0.25672255D+00 0.83698128D-01 0.35469724D+06 0.35469724D+06 0.35469724D+06 0.10792112D+01  1  2  5  1  7  1       -2 -.374731135908D-03 0.100000000000D+01
0.953169457119D-03 0.000000000000D+00 0.328263415209D-03 0.915791265107D-05 0.000000000000D+00  7 -2 2 24 -13 13 -24 21 2 0.20028422D+00 0.83698128D-01 0.35469724D+06 0.35469724D+06 0.35469724D+06 0.10792112D+01  1  2  6  1  7  1       -2 0.946194297700D-03 0.100000000000D+01
0.118698351669D-04 0.000000000000D+00 0.000000000000D+00 0.915791265107D-05 0.000000000000D+00  7 21 2 24 -13 13 -24 2 2 0.25049335D+00 0.83698128D-01 0.52440493D+06 0.52440493D+06 0.52440493D+06 0.10670507D+01  1  2 12  3  7  1       -2 0.382858341163D-04 0.100000000000D+01
-.243081420191D-04 0.000000000000D+00 -.113946656648D-04 0.915791265107D-05 0.000000000000D+00  7 21 2 24 -13 13 -24 2 2 0.25672255D+00 0.83698128D-01 0.35469724D+06 0.35469724D+06 0.35469724D+06 0.10792112D+01  1  2  5  3  7  1       -2 -.754646297918D-04 0.100000000000D+01
  </mgrwgt>
  </event>
  <event>
  8     66 0.27011060E-05 0.51047061E+03 0.75467711E-02 0.86933208E-01
       -2 -1    0    0    0  501 0.00000000E+00 0.00000000E+00 0.12241694E+03 0.12241736E+03 0.32000000E+00 0.0000E+00 0.9000E+01
        2 -1    0    0  501    0 0.00000000E+00 0.00000000E+00 -.27283855E+04 0.27283855E+04 0.32000000E+00 0.0000E+00 0.9000E+01
       25  2    1    2    0    0 -.47403918E+03 -.13071648E+03 -.86627936E+03 0.10406262E+04 0.30110290E+03 0.0000E+00 0.0000E+00
       23  2    1    2    0    0 0.47403918E+03 0.13071648E+03 -.17396891E+04 0.18101767E+04 0.91767533E+02 0.0000E+00 0.0000E+00
       24  1    3    3    0    0 -.33778184E+03 -.12420653E+03 -.77396694E+03 0.85733067E+03 0.80419002E+02 0.0000E+00 0.9000E+01
      -13  1    4    4    0    0 0.41154700E+03 0.97051850E+02 -.13712559E+04 0.14349679E+04 0.10565837E+00 0.0000E+00 0.9000E+01
       13  1    4    4    0    0 0.62492177E+02 0.33664634E+02 -.36843322E+03 0.37520878E+03 0.10565837E+00 0.0000E+00 0.9000E+01
      -24  1    3    3    0    0 -.13625734E+03 -.65099582E+01 -.92312416E+02 0.18329550E+03 0.80419002E+02 0.0000E+00 0.9000E+01
#aMCatNLO 1  0  0  2  1 0.81636198D+03 0.00000000D+00  -5  7  0 0.00000000D+00 0.00000000D+00 0.00000000D+00 0.00000000D+00 0.00000000D+00
  <mgrwgt>
 0.1029132964D-02    3    2    0
 0.577928397834070D+03 0.000000000000000D+00 0.000000000000000D+00 0.577928397834070D+03
 0.577928397834070D+03 0.000000000000000D+00 0.000000000000000D+00 -.577928397834070D+03
 0.369550294029910D+03 -.337781836148875D+03 -.124206525694795D+03 0.240077905260954D+02
 0.447599811150725D+03 0.411547462900810D+03 0.970519339716970D+02 -.146816888791531D+03
 0.947525206224477D+02 0.624917146095775D+02 0.336645499081372D+02 -.627656263327710D+02
 0.243954169865058D+03 -.136257341361512D+03 -.650995818503949D+01 0.185574724598207D+03
 0.000000000000000D+00 -.000000000000000D+00 -.000000000000000D+00 0.000000000000000D+00
 0.121475292116919D+04 0.000000000000000D+00 0.000000000000000D+00 0.121475292116919D+04
 0.103602488838784D+04 0.000000000000000D+00 0.000000000000000D+00 -.103602488838784D+04
 0.200693504446448D+03 -.178132145844494D+03 -.387715280007973D+02 0.240077905260954D+02
 0.836604832160689D+03 0.771082935517818D+03 0.289453887369670D+03 -.146816888791531D+03
 0.166136159242690D+03 0.135532047631480D+03 0.727513822809265D+02 -.627656263327710D+02
 0.211645647409261D+03 -.870423175309010D+01 0.617488627652612D+02 0.185574724598207D+03
 0.835697666297944D+03 -.719778605551714D+03 -.385182604415061D+03 0.178728032781347D+03
0.138379477024D-03 0.000000000000D+00 0.000000000000D+00 0.123244932057D-05 0.000000000000D+00  7 -2 2 24 -13 13 -24 21 0 0.18833410D-01 0.41975164D+00 0.26058025D+06 0.26058025D+06 0.26058025D+06 0.10891074D+01  1  2  2  2  7  2        2 0.102171700005D-02 0.100000000000D+01
-.754375532870D-05 0.000000000000D+00 -.531413627927D-06 0.123244932057D-05 0.000000000000D+00  7 -2 2 24 -13 13 -24 21 2 0.18833410D-01 0.41975164D+00 0.26058025D+06 0.26058025D+06 0.26058025D+06 0.10891074D+01  1  2  3  2  7  2        2 -.660675161946D-04 0.100000000000D+01
0.839052877289D-05 0.000000000000D+00 0.000000000000D+00 0.123244932057D-05 0.000000000000D+00  7 -2 2 24 -13 13 -24 21 2 0.18833410D-01 0.41975164D+00 0.26058025D+06 0.26058025D+06 0.26058025D+06 0.10891074D+01  1  2 15  2  7  2        2 0.734834802337D-04 0.100000000000D+01
  </mgrwgt>
  </event>
  <event>
  8     66 0.27011060E-05 0.29423653E+03 0.75467711E-02 0.90580673E-01
       -2 -1    0    0    0  501 0.00000000E+00 0.00000000E+00 0.52793895E+02 0.52794865E+02 0.32000000E+00 0.0000E+00 0.9000E+01
        2 -1    0    0  501    0 0.00000000E+00 0.00000000E+00 -.21729210E+04 0.21729210E+04 0.32000000E+00 0.0000E+00 0.9000E+01
       25  2    1    2    0    0 0.19279448E+03 -.16616121E+03 -.10601829E+04 0.11316446E+04 0.30307172E+03 0.0000E+00 0.0000E+00
       23  2    1    2    0    0 -.19279448E+03 0.16616121E+03 -.10599442E+04 0.10940713E+04 0.93439790E+02 0.0000E+00 0.0000E+00
       24  1    3    3    0    0 0.11127755E+03 -.16768535E+03 -.34551027E+03 0.40785492E+03 0.80419002E+02 0.0000E+00 0.9000E+01
      -13  1    4    4    0    0 -.72458006E+01 0.19240934E+02 -.23358142E+03 0.23448456E+03 0.10565837E+00 0.0000E+00 0.9000E+01
       13  1    4    4    0    0 -.18554868E+03 0.14692028E+03 -.82636278E+03 0.85958672E+03 0.10565837E+00 0.0000E+00 0.9000E+01
      -24  1    3    3    0    0 0.81516933E+02 0.15241421E+01 -.71467258E+03 0.72378965E+03 0.80419002E+02 0.0000E+00 0.9000E+01
#aMCatNLO 1  0  0  1  2 0.60406261D+03 0.00000000D+00  -5  7  0 0.00000000D+00 0.00000000D+00 0.00000000D+00 0.00000000D+00 0.00000000D+00
  <mgrwgt>
 0.1962096718D-02    3    2    0
 0.338700556756173D+03 0.000000000000000D+00 0.000000000000000D+00 0.338700556756173D+03
 0.338700556756173D+03 0.000000000000000D+00 0.000000000000000D+00 -.338700556756173D+03
 0.258699714042998D+03 0.111277547528297D+03 -.167685352015177D+03 0.141270153348796D+03
 0.393762645033564D+02 -.724557477804662D+01 0.192407714342944D+02 -.335825038820405D+02
 0.237971073438702D+03 -.185548905956129D+03 0.146920438959765D+03 -.248237770680027D+02
 0.141354061527288D+03 0.815169332058791D+02 0.152414162111732D+01 -.828638723987532D+02
 0.000000000000000D+00 -.000000000000000D+00 0.000000000000000D+00 -.000000000000000D+00
 0.673828662681764D+03 0.000000000000000D+00 0.000000000000000D+00 0.673828662681764D+03
 0.868416352782185D+03 0.000000000000000D+00 0.000000000000000D+00 -.868416352782185D+03
 0.521769627851508D+03 0.325780675716267D+03 -.373745934689049D+03 0.141270153348796D+03
 0.362123458495256D+02 0.135290956743725D+02 -.716236812838659D+00 -.335825038820405D+02
 0.108759112935653D+03 -.902540549963714D+02 0.553762611173796D+02 -.248237770680027D+02
 0.240873319343536D+03 0.186567784629289D+03 -.993920540425891D+02 -.828638723987532D+02
 0.634630609483726D+03 -.435623501023557D+03 0.418477964427097D+03 -.194587690100421D+03
0.320744916933D-04 0.000000000000D+00 0.000000000000D+00 0.158287320457D-07 0.000000000000D+00  7 -2 2 24 -13 13 -24 21 0 0.81222142D-02 0.33429561D+00 0.86575133D+05 0.86575133D+05 0.86575133D+05 0.11268962D+01  1  2  2  1  7  1       -2 0.193245317054D-02 0.100000000000D+01
-.173900632858D-05 0.000000000000D+00 -.123174493510D-06 0.158287320457D-07 0.000000000000D+00  7 -2 2 24 -13 13 -24 21 2 0.81222142D-02 0.33429561D+00 0.86575133D+05 0.86575133D+05 0.86575133D+05 0.11268962D+01  1  2  3  1  7  1       -2 -.133051002000D-03 0.100000000000D+01
0.212645411318D-05 0.000000000000D+00 0.000000000000D+00 0.158287320457D-07 0.000000000000D+00  7 -2 2 24 -13 13 -24 21 2 0.81222142D-02 0.33429561D+00 0.86575133D+05 0.86575133D+05 0.86575133D+05 0.11268962D+01  1  2 15  1  7  1       -2 0.162694549075D-03 0.100000000000D+01
  </mgrwgt>
  </event>
  <event>
  8     66 0.27011060E-05 0.37668861E+03 0.75467711E-02 0.92071463E-01
       -2 -1    0    0    0  501 0.00000000E+00 0.00000000E+00 0.82827809E+03 0.82827815E+03 0.32000000E+00 0.0000E+00 0.9000E+01
        2 -1    0    0  501    0 0.00000000E+00 0.00000000E+00 -.17604786E+03 0.17604816E+03 0.32000000E+00 0.0000E+00 0.9000E+01
       25  2    1    2    0    0 0.18675083E+03 -.25390534E+03 0.39326074E+03 0.58633481E+03 0.29965098E+03 0.0000E+00 0.0000E+00
       23  2    1    2    0    0 -.18675083E+03 0.25390534E+03 0.25896949E+03 0.41799150E+03 0.91147709E+02 0.0000E+00 0.0000E+00
       24  1    3    3    0    0 0.22779895E+03 -.13432775E+03 0.19706715E+03 0.33946867E+03 0.80419002E+02 0.0000E+00 0.9000E+01
      -13  1    4    4    0    0 -.13018849E+03 0.10311006E+03 0.11536789E+03 0.20221396E+03 0.10565837E+00 0.0000E+00 0.9000E+01
       13  1    4    4    0    0 -.56562347E+02 0.15079528E+03 0.14360160E+03 0.21577754E+03 0.10565837E+00 0.0000E+00 0.9000E+01
      -24  1    3    3    0    0 -.41048116E+02 -.11957759E+03 0.19619359E+03 0.24686613E+03 0.80419002E+02 0.0000E+00 0.9000E+01
#aMCatNLO 1  0  0  2  2 0.40557416D+03 0.00000000D+00  -5  7  0 0.00000000D+00 0.00000000D+00 0.00000000D+00 0.00000000D+00 0.00000000D+00
  <mgrwgt>
 0.1744136672D-03    3    2    0
 0.381859616232246D+03 0.000000000000000D+00 0.000000000000000D+00 0.381859616232246D+03
 0.381859616232246D+03 0.000000000000000D+00 0.000000000000000D+00 -.381859616232246D+03
 0.278118138609447D+03 0.227798948318091D+03 -.134327748413759D+03 -.307600100857360D+02
 0.167394482425842D+03 -.130188583987437D+03 0.103109995431647D+03 -.209803285972208D+02
 0.161119087569522D+03 -.565622484069797D+02 0.150795340138100D+03 0.456484687774066D+01
 0.157087523859681D+03 -.410481159236746D+02 -.119577587155988D+03 0.471754918052161D+02
 0.000000000000000D+00 0.000000000000000D+00 -.000000000000000D+00 0.000000000000000D+00
 0.113661048063962D+04 0.000000000000000D+00 0.000000000000000D+00 0.113661048063962D+04
 0.490757264395951D+03 0.000000000000000D+00 0.000000000000000D+00 -.490757264395951D+03
 0.179819618965056D+03 0.117455905481967D+03 -.105478962155038D+03 -.307600100857360D+02
 0.270273244449285D+03 -.235647432784622D+03 0.130681826965775D+03 -.209803285972208D+02
 0.231745371505270D+03 -.151225462172287D+03 0.175544692252077D+03 0.456484687774066D+01
 0.182891472078638D+03 -.122968237799848D+03 -.981598699574160D+02 0.471754918052161D+02
 0.762638038037323D+03 0.392385227274790D+03 -.102587687105398D+03 0.645853216243670D+03
0.154228552676D-04 0.000000000000D+00 0.000000000000D+00 0.275376308138D-06 0.000000000000D+00  7 -2 2 24 -13 13 -24 21 0 0.12742743D+00 0.27084314D-01 0.14189431D+06 0.14189431D+06 0.14189431D+06 0.11094608D+01  1  2  2  2  7  2        2 0.173086766988D-03 0.100000000000D+01
-.856631636958D-06 0.000000000000D+00 -.592278251585D-07 0.275376308138D-06 0.000000000000D+00  7 -2 2 24 -13 13 -24 21 2 0.12742743D+00 0.27084314D-01 0.14189431D+06 0.14189431D+06 0.14189431D+06 0.11094608D+01  1  2  3  2  7  2        2 -.118336073456D-04 0.100000000000D+01
0.952685585335D-06 0.000000000000D+00 0.000000000000D+00 0.275376308138D-06 0.000000000000D+00  7 -2 2 24 -13 13 -24 21 2 0.12742743D+00 0.27084314D-01 0.14189431D+06 0.14189431D+06 0.14189431D+06 0.11094608D+01  1  2 15  2  7  2        2 0.131605075674D-04 0.100000000000D+01
  </mgrwgt>
  </event>
  <event>
  8     66 0.27011060E-05 0.42018948E+03 0.75467711E-02 0.89094142E-01
       -2 -1    0    0    0  501 0.00000000E+00 0.00000000E+00 0.44253051E+03 0.44253063E+03 0.32000000E+00 0.0000E+00 0.9000E+01
        2 -1    0    0  501    0 0.00000000E+00 0.00000000E+00 -.16685480E+04 0.16685480E+04 0.32000000E+00 0.0000E+00 0.9000E+01
       25  2    1    2    0    0 0.40163695E+03 0.67002048E+03 -.98156871E+03 0.12897257E+04 0.29945867E+03 0.0000E+00 0.0000E+00
       23  2    1    2    0    0 -.40163695E+03 -.67002048E+03 -.24444873E+03 0.82135294E+03 0.68013160E+02 0.0000E+00 0.0000E+00
       24  1    3    3    0    0 0.10073197E+03 0.19211818E+03 -.13184083E+03 0.26628095E+03 0.80419002E+02 0.0000E+00 0.9000E+01
      -13  1    4    4    0    0 -.89265037E+02 -.12524511E+03 -.73866015E+02 0.17061883E+03 0.10565837E+00 0.0000E+00 0.9000E+01
       13  1    4    4    0    0 -.31237191E+03 -.54477537E+03 -.17058272E+03 0.65073411E+03 0.10565837E+00 0.0000E+00 0.9000E+01
      -24  1    3    3    0    0 0.30090497E+03 0.47790230E+03 -.84972787E+03 0.10234447E+04 0.80419002E+02 0.0000E+00 0.9000E+01
#aMCatNLO 1  0  0  1  2 0.94497379D+02 0.00000000D+00  -5  7  0 0.00000000D+00 0.00000000D+00 0.00000000D+00 0.00000000D+00 0.00000000D+00
  <mgrwgt>
 0.3186081055D-02    9    2    0
 0.859292461497517D+03 0.000000000000000D+00 0.000000000000000D+00 0.859292461497517D+03
 0.859292461497517D+03 0.000000000000000D+00 0.000000000000000D+00 -.859292461497517D+03
 0.233041067817573D+03 0.100731974595501D+03 0.192118178538064D+03 0.280106784011325D+02
 0.156888711248362D+03 -.892644985280321D+02 -.125244099127031D+03 0.309811661105505D+02
 0.677659640653266D+03 -.312372446717049D+03 -.544776381265526D+03 0.254685565978042D+03
 0.650995503275834D+03 0.300904970649580D+03 0.477902301854492D+03 -.313677410489725D+03
 0.000000000000000D+00 0.000000000000000D+00 0.000000000000000D+00 0.000000000000000D+00
 0.919482882153218D+03 0.000000000000000D+00 0.000000000000000D+00 0.919482882153218D+03
 0.898497552828551D+03 0.000000000000000D+00 0.000000000000000D+00 -.898497552828551D+03
 0.226854851405653D+03 0.881573820737439D+02 0.190891554379240D+03 0.280106784011325D+02
 0.162679375702581D+03 -.980022113634775D+02 -.126096444015207D+03 0.309811661105505D+02
 0.698686353138959D+03 -.350004852914787D+03 -.548447340663770D+03 0.254685565978042D+03
 0.632960378319681D+03 0.265798718664897D+03 0.474477763306967D+03 -.313677410489725D+03
 0.967994764148944D+02 0.940509635396233D+02 0.917446699276944D+01 0.209853293246670D+02
0.715576870448D-03 0.000000000000D+00 0.000000000000D+00 0.181073137680D-07 0.000000000000D+00  7 -2 2 24 -13 13 -24 21 0 0.68081628D-01 0.25669970D+00 0.62692342D+06 0.62692342D+06 0.62692342D+06 0.10616355D+01  1  2  2  1  7  1       -2 0.182176174873D-02 0.100000000000D+01
-.394306926956D-04 0.000000000000D+00 -.274800359824D-05 0.181073137680D-07 0.000000000000D+00  7 -2 2 24 -13 13 -24 21 2 0.68081628D-01 0.25669970D+00 0.62692342D+06 0.62692342D+06 0.62692342D+06 0.10616355D+01  1  2  3  1  7  1       -2 -.113141142907D-03 0.100000000000D+01
0.394728749080D-04 0.000000000000D+00 0.000000000000D+00 0.181073137680D-07 0.000000000000D+00  7 -2 2 24 -13 13 -24 21 2 0.68081628D-01 0.25669970D+00 0.62692342D+06 0.62692342D+06 0.62692342D+06 0.10616355D+01  1  2 15  1  7  1       -2 0.113262179171D-03 0.100000000000D+01
0.125850368677D-02 0.000000000000D+00 0.000000000000D+00 0.181073137680D-07 0.000000000000D+00  7 -2 2 24 -13 13 -24 21 2 0.74313492D-01 0.25669970D+00 0.70534823D+06 0.70534823D+06 0.70534823D+06 0.10581068D+01  1  2 12  1  7  1       -2 0.294241731664D-02 0.100000000000D+01
-.111641484081D-02 0.000000000000D+00 0.000000000000D+00 0.181073137680D-07 0.000000000000D+00  7 -2 2 24 -13 13 -24 21 2 0.68081628D-01 0.25669970D+00 0.62692342D+06 0.62692342D+06 0.62692342D+06 0.10616355D+01  1  2  4  1  7  1       -2 -.320340431306D-02 0.100000000000D+01
-.397771953945D-02 0.000000000000D+00 -.825277315549D-03 0.181073137680D-07 0.000000000000D+00  7 -2 2 24 -13 13 -24 21 2 0.75956420D-01 0.25669970D+00 0.62692342D+06 0.62692342D+06 0.62692342D+06 0.10616355D+01  1  2  5  1  7  1       -2 -.897357689651D-02 0.100000000000D+01
0.404869135362D-02 0.000000000000D+00 0.820358534833D-03 0.181073137680D-07 0.000000000000D+00  7 -2 2 24 -13 13 -24 21 2 0.68081628D-01 0.25669970D+00 0.62692342D+06 0.62692342D+06 0.62692342D+06 0.10616355D+01  1  2  6  1  7  1       -2 0.116171828521D-01 0.100000000000D+01
0.182107705418D-04 0.000000000000D+00 0.000000000000D+00 0.181073137680D-07 0.000000000000D+00  7 21 2 24 -13 13 -24 2 2 0.74313492D-01 0.25669970D+00 0.70534823D+06 0.70534823D+06 0.70534823D+06 0.10581068D+01  1  2 12  3  7  1       -2 0.403145578788D-03 0.100000000000D+01
-.665950923887D-04 0.000000000000D+00 -.144849449473D-04 0.181073137680D-07 0.000000000000D+00  7 21 2 24 -13 13 -24 2 2 0.75956420D-01 0.25669970D+00 0.62692342D+06 0.62692342D+06 0.62692342D+06 0.10616355D+01  1  2  5  3  7  1       -2 -.142156626800D-02 0.100000000000D+01
  </mgrwgt>
  </event>
  <event>
  7     66 0.27011060E-05 0.31118569E+03 0.75467711E-02 0.91187556E-01
       -2 -1    0    0    0  501 0.00000000E+00 0.00000000E+00 0.36126830E+03 0.36126845E+03 0.32000000E+00 0.0000E+00 0.9000E+01
        2 -1    0    0  501    0 0.00000000E+00 0.00000000E+00 -.10818217E+04 0.10818217E+04 0.32000000E+00 0.0000E+00 0.9000E+01
       25  2    1    2    0    0 -.23062887E+03 -.72854618E+02 0.23236915E+03 0.45010346E+03 0.30016701E+03 0.0000E+00 0.0000E+00
       24  1    3    3    0    0 -.25440394E+02 0.44804739E+02 -.17123488E+02 0.97031480E+02 0.80419002E+02 0.0000E+00 0.9000E+01
      -13  1    1    2    0    0 0.24452873E+03 0.84690861E+02 -.85225094E+03 0.89067306E+03 0.10565837E+00 0.0000E+00 0.9000E+01
       13  1    1    2    0    0 -.13899859E+02 -.11836243E+02 -.10067157E+03 0.10231363E+03 0.10565837E+00 0.0000E+00 0.9000E+01
      -24  1    3    3    0    0 -.20518847E+03 -.11765936E+03 0.24949263E+03 0.35307198E+03 0.80419002E+02 0.0000E+00 0.9000E+01
#aMCatNLO 1  0  0  1  1 0.56270606D+03 0.00000000D+00  -5  7  0 0.00000000D+00 0.00000000D+00 0.00000000D+00 0.00000000D+00 0.00000000D+00
  <mgrwgt>
 0.1012584499D-02    5    2    0
 0.625162391299031D+03 0.000000000000000D+00 0.000000000000000D+00 0.625162391299031D+03
 0.625162391299031D+03 0.000000000000000D+00 0.000000000000000D+00 -.625162391299031D+03
 0.102122896055730D+03 -.254403947419700D+02 0.448047383837159D+02 0.361551058382952D+02
 0.536844192879984D+03 0.244528841572546D+03 0.846908982431503D+02 -.470356019226839D+03
 0.600709487169400D+02 -.138999669849695D+02 -.118362784015213D+02 -.572294706525551D+02
 0.551286744945408D+03 -.205188479845606D+03 -.117659358225345D+03 0.491430384041099D+03
 0.000000000000000D+00 -.000000000000000D+00 -.000000000000000D+00 0.000000000000000D+00
 0.157894901612773D+04 0.000000000000000D+00 0.000000000000000D+00 0.157894901612773D+04
 0.774161904351770D+03 0.000000000000000D+00 0.000000000000000D+00 -.774161904351770D+03
 0.131412817401060D+03 -.223666566677388D+02 0.948401476920136D+02 0.361551058382952D+02
 0.633497189584893D+03 0.259932579244541D+03 0.335438457300768D+03 -.470356019226839D+03
 0.601736802424122D+02 -.123173375499108D+02 0.139263304005744D+02 -.572294706525551D+02
 0.546029062837659D+03 -.190745886342824D+03 0.117442351788057D+03 0.491430384041099D+03
 0.981998170413477D+03 -.345026986840670D+02 -.561647287181413D+03 0.804787111775961D+03
0.107762661954D-03 0.000000000000D+00 0.000000000000D+00 0.116717189681D-07 0.000000000000D+00  7 -2 2 24 -13 13 -24 21 0 0.55579754D-01 0.16643412D+00 0.96836534D+05 0.96836534D+05 0.96836534D+05 0.11228695D+01  1  2  2  1  7  1       -2 0.971111030865D-03 0.100000000000D+01
-.244425478179D-05 0.000000000000D+00 -.413836996465D-06 0.116717189681D-07 0.000000000000D+00  7 -2 2 24 -13 13 -24 21 2 0.55579754D-01 0.16643412D+00 0.96836534D+05 0.96836534D+05 0.96836534D+05 0.11228695D+01  1  2  3  1  7  1       -2 -.277719012648D-04 0.100000000000D+01
0.650052347032D-05 0.000000000000D+00 0.000000000000D+00 0.116717189681D-07 0.000000000000D+00  7 -2 2 24 -13 13 -24 21 2 0.55579754D-01 0.16643412D+00 0.96836534D+05 0.96836534D+05 0.96836534D+05 0.11228695D+01  1  2 15  1  7  1       -2 0.738596881684D-04 0.100000000000D+01
-.980166390998D-05 0.000000000000D+00 -.320626139187D-04 0.116717189681D-07 0.000000000000D+00  7 -2 2 24 -13 13 -24 21 2 0.15961206D+00 0.16643412D+00 0.96836534D+05 0.96836534D+05 0.96836534D+05 0.11228695D+01  1  2  5  1  7  1       -2 -.921824159893D-05 0.100000000000D+01
0.559768042816D-06 0.000000000000D+00 -.381663766772D-05 0.116717189681D-07 0.000000000000D+00  7 21 2 24 -13 13 -24 2 2 0.15961206D+00 0.16643412D+00 0.96836534D+05 0.96836534D+05 0.96836534D+05 0.11228695D+01  1  2  5  3  7  1       -2 0.460392315026D-05 0.100000000000D+01
  </mgrwgt>
  </event>
  <event>
  9     66 0.27011060E-05 0.17812530E+03 0.75467711E-02 0.99050333E-01
       -2 -1    0    0    0  502 0.00000000E+00 0.00000000E+00 0.19853565E+03 0.19853591E+03 0.32000000E+00 0.0000E+00 0.9000E+01
        2 -1    0    0  501    0 0.00000000E+00 0.00000000E+00 -.10727188E+04 0.10727189E+04 0.32000000E+00 0.0000E+00 0.9000E+01
       25  2    1    2    0    0 -.60995555E+02 0.85119480E+02 -.17108962E+03 0.36135432E+03 0.30056530E+03 0.0000E+00 0.0000E+00
       23  2    1    2    0    0 -.33672691E+02 0.13734211E+03 -.63672277E+03 0.65918774E+03 0.95477137E+02 0.0000E+00 0.0000E+00
       24  1    3    3    0    0 -.13069800E+03 0.72702567E+01 -.11098167E+02 0.15402990E+03 0.80419002E+02 0.0000E+00 0.9000E+01
      -13  1    4    4    0    0 -.21261830E+02 -.25085578E+01 -.32869238E+02 0.39226983E+02 0.10565837E+00 0.0000E+00 0.9000E+01
       13  1    4    4    0    0 -.12410861E+02 0.13985067E+03 -.60385353E+03 0.61996075E+03 0.10565837E+00 0.0000E+00 0.9000E+01
      -24  1    3    3    0    0 0.69702448E+02 0.77849224E+02 -.15999145E+03 0.20732442E+03 0.80419002E+02 0.0000E+00 0.9000E+01
       21  1    1    2  501  502 0.94668246E+02 -.22246159E+03 -.66370804E+02 0.25071275E+03 0.75000000E+00 0.0000E+00 0.9000E+01
#aMCatNLO 2  0  0  1  2 0.24176690D+03 0.00000000D+00  -5  7  0 0.00000000D+00 0.00000000D+00 0.00000000D+00 0.00000000D+00 0.00000000D+00
  <mgrwgt>
 0.1490987811D-03    1    2    0
 0.287443034812884D+03 0.000000000000000D+00 0.000000000000000D+00 0.287443034812884D+03
 0.287443034812884D+03 0.000000000000000D+00 0.000000000000000D+00 -.287443034812884D+03
 0.233504454452509D+03 -.934811013245649D+02 -.801860131397151D+02 0.181352147179726D+03
 0.209184268397695D+02 -.179022475063001D+02 -.104034107531954D+02 -.297643417099364D+01
 0.195881364611672D+03 0.214122118082459D+02 0.603697397871108D+02 -.185112184109113D+03
 0.124581823721818D+03 0.899711370226191D+02 0.302196841057997D+02 0.673647110038101D+01
 0.000000000000000D+00 0.000000000000000D+00 -.000000000000000D+00 0.000000000000000D+00
 0.582042286385433D+03 0.000000000000000D+00 0.000000000000000D+00 0.582042286385433D+03
 0.365905835582696D+03 0.000000000000000D+00 0.000000000000000D+00 -.365905835582696D+03
 0.237677602352597D+03 -.130698006002434D+03 0.727025762950288D+01 0.181352147179726D+03
 0.216152237579812D+02 -.212618211510008D+02 -.250872459153871D+01 -.297643417099364D+01
 0.232333394932601D+03 -.124108671003126D+02 0.139850835081811D+03 -.185112184109113D+03
 0.132028513971326D+03 0.697024482231391D+02 0.778492210360542D+02 0.673647110038101D+01
 0.324293386953624D+03 0.946682460306087D+02 -.222461589155830D+03 0.216136450802737D+03
0.428903881862D-05 0.000000000000D+00 0.000000000000D+00 0.105056164804D-06 0.151119717851D-10  7 -2 2 24 -13 13 -24 21 2 0.30543937D-01 0.16503351D+00 0.11870187D+06 0.11870187D+06 0.11870187D+06 0.11156627D+01  1  2  1  1  7  1       -2 0.149098781135D-03 0.100000000000D+01
  </mgrwgt>
  </event>
  <event>
  8     66 0.27011060E-05 0.18599162E+03 0.75467711E-02 0.98740276E-01
       -2 -1    0    0    0  501 0.00000000E+00 0.00000000E+00 0.51331197E+02 0.51332194E+02 0.32000000E+00 0.0000E+00 0.9000E+01
        2 -1    0    0  501    0 0.00000000E+00 0.00000000E+00 -.16923593E+04 0.16923593E+04 0.32000000E+00 0.0000E+00 0.9000E+01
       25  2    1    2    0    0 0.40810228E+02 0.19507562E+03 -.86795870E+03 0.94010304E+03 0.30120001E+03 0.0000E+00 0.0000E+00
       23  2    1    2    0    0 -.40810228E+02 -.19507562E+03 -.77306935E+03 0.80358843E+03 0.91641552E+02 0.0000E+00 0.0000E+00
       24  1    3    3    0    0 0.99842689E+02 0.54903930E+02 -.63710307E+03 0.65218903E+03 0.80419002E+02 0.0000E+00 0.9000E+01
      -13  1    4    4    0    0 -.19377973E+02 -.49015998E+01 -.16260388E+03 0.16382785E+03 0.10565837E+00 0.0000E+00 0.9000E+01
       13  1    4    4    0    0 -.21432254E+02 -.19017402E+03 -.61046548E+03 0.63976059E+03 0.10565837E+00 0.0000E+00 0.9000E+01
      -24  1    3    3    0    0 -.59032462E+02 0.14017169E+03 -.23085564E+03 0.28791401E+03 0.80419002E+02 0.0000E+00 0.9000E+01
#aMCatNLO 1  0  0  2  1 0.16590916D+03 0.00000000D+00  -5  7  0 0.00000000D+00 0.00000000D+00 0.00000000D+00 0.00000000D+00 0.00000000D+00
  <mgrwgt>
 0.1049595315D-02    9    2    0
 0.294740091239182D+03 0.000000000000000D+00 0.000000000000000D+00 0.294740091239182D+03
 0.294740091239182D+03 0.000000000000000D+00 0.000000000000000D+00 -.294740091239182D+03
 0.155581911362142D+03 0.998426866717577D+02 0.549039325583821D+02 -.689602153166364D+02
 0.319392761869487D+02 -.193779705590772D+02 -.490135440487580D+01 -.249116106535793D+02
 0.192973812231704D+03 -.214322578954102D+02 -.190174272228873D+03 -.247648281027734D+02
 0.208985182697570D+03 -.590324582172702D+02 0.140171694075367D+03 0.118636654072989D+03
 0.000000000000000D+00 -.000000000000000D+00 0.000000000000000D+00 -.000000000000000D+00
 0.372127737231208D+03 0.000000000000000D+00 0.000000000000000D+00 0.372127737231208D+03
 0.410556694211825D+03 0.000000000000000D+00 0.000000000000000D+00 -.410556694211825D+03
 0.182578748359593D+03 0.143595919154112D+03 0.386326818115663D+02 -.689602153166364D+02
 0.285491435670537D+02 -.115516199298677D+02 -.781187109805326D+01 -.249116106535793D+02
 0.213474205216907D+03 0.311563980826529D+02 -.209731300574200D+03 -.247648281027734D+02
 0.187780736545903D+03 -.769652954945951D+01 0.121080538513056D+03 0.118636654072989D+03
 0.170301597753576D+03 -.155504167757438D+03 0.578299513476314D+02 -.384289569806171D+02
0.743258565031D-05 0.000000000000D+00 0.000000000000D+00 0.201058746787D-06 0.000000000000D+00  7 -2 2 24 -13 13 -24 21 0 0.78971862D-02 0.26036304D+00 0.68350183D+05 0.68350183D+05 0.68350183D+05 0.11355412D+01  1  2  2  2  7  2        2 0.847619549638D-03 0.100000000000D+01
-.405704619796D-06 0.000000000000D+00 -.285430859419D-07 0.201058746787D-06 0.000000000000D+00  7 -2 2 24 -13 13 -24 21 2 0.78971862D-02 0.26036304D+00 0.68350183D+05 0.68350183D+05 0.68350183D+05 0.11355412D+01  1  2  3  2  7  2        2 -.596591162647D-04 0.100000000000D+01
0.471000917718D-06 0.000000000000D+00 0.000000000000D+00 0.201058746787D-06 0.000000000000D+00  7 -2 2 24 -13 13 -24 21 2 0.78971862D-02 0.26036304D+00 0.68350183D+05 0.68350183D+05 0.68350183D+05 0.11355412D+01  1  2 15  2  7  2        2 0.692609774202D-04 0.100000000000D+01
0.102995639253D-05 0.000000000000D+00 0.000000000000D+00 0.201058746787D-06 0.000000000000D+00  7 -2 2 24 -13 13 -24 21 2 0.78971862D-02 0.38581477D+00 0.12478527D+06 0.12478527D+06 0.12478527D+06 0.11139151D+01  1  2 12  2  7  2        2 0.517884989724D-04 0.100000000000D+01
-.293551807831D-05 0.000000000000D+00 0.000000000000D+00 0.201058746787D-06 0.000000000000D+00  7 -2 2 24 -13 13 -24 21 2 0.78971862D-02 0.26036304D+00 0.68350183D+05 0.68350183D+05 0.68350183D+05 0.11355412D+01  1  2  4  2  7  2        2 -.431669756236D-03 0.100000000000D+01
-.457314158341D-05 0.000000000000D+00 -.246154924495D-05 0.201058746787D-06 0.000000000000D+00  7 -2 2 24 -13 13 -24 21 2 0.78971862D-02 0.40129395D+00 0.68350183D+05 0.68350183D+05 0.68350183D+05 0.11355412D+01  1  2  5  2  7  2        2 -.213121194370D-03 0.100000000000D+01
0.534379273666D-05 0.000000000000D+00 0.224789273160D-05 0.201058746787D-06 0.000000000000D+00  7 -2 2 24 -13 13 -24 21 2 0.78971862D-02 0.26036304D+00 0.68350183D+05 0.68350183D+05 0.68350183D+05 0.11355412D+01  1  2  6  2  7  2        2 0.785808040173D-03 0.100000000000D+01
0.484208585045D-07 0.000000000000D+00 0.000000000000D+00 0.201058746787D-06 0.000000000000D+00  7 -2 21 24 -13 13 -24 -2 2 0.78971862D-02 0.38581477D+00 0.12478527D+06 0.12478527D+06 0.12478527D+06 0.11139151D+01  1  2 12  4  7  2        2 0.296655322745D-06 0.100000000000D+01
-.137506676562D-06 0.000000000000D+00 -.124174556106D-06 0.201058746787D-06 0.000000000000D+00  7 -2 21 24 -13 13 -24 -2 2 0.78971862D-02 0.40129395D+00 0.68350183D+05 0.68350183D+05 0.68350183D+05 0.11355412D+01  1  2  5  4  7  2        2 -.728339429218D-06 0.100000000000D+01
  </mgrwgt>
  </event>
  <event>
  8     66 0.27011060E-05 0.38854346E+03 0.75467711E-02 0.97168371E-01
       -2 -1    0    0    0  501 0.00000000E+00 0.00000000E+00 0.63722049E+03 0.63722057E+03 0.32000000E+00 0.0000E+00 0.9000E+01
        2 -1    0    0  501    0 0.00000000E+00 0.00000000E+00 -.15630615E+04 0.15630615E+04 0.32000000E+00 0.0000E+00 0.9000E+01
       25  2    1    2    0    0 0.29875112E+03 -.14192999E+03 0.53758052E+03 0.69726485E+03 0.29629225E+03 0.0000E+00 0.0000E+00
       23  2    1    2    0    0 -.29875112E+03 0.14192999E+03 -.14634215E+04 0.15030172E+04 0.89788255E+02 0.0000E+00 0.0000E+00
       24  1    3    3    0    0 0.16013701E+03 -.20331991E+03 0.35601068E+03 0.44743007E+03 0.80419002E+02 0.0000E+00 0.9000E+01
      -11  1    4    4    0    0 -.88386749E+02 0.17663422E+02 -.55691822E+03 0.56416497E+03 0.51099893E-03 0.0000E+00 0.9000E+01
       11  1    4    4    0    0 -.21036437E+03 0.12426657E+03 -.90650331E+03 0.93885228E+03 0.51099893E-03 0.0000E+00 0.9000E+01
      -24  1    3    3    0    0 0.13861411E+03 0.61389915E+02 0.18156985E+03 0.24983478E+03 0.80419002E+02 0.0000E+00 0.9000E+01
#aMCatNLO 1  0  0  1  1 0.25368760D+02 0.00000000D+00  -5  7  0 0.00000000D+00 0.00000000D+00 0.00000000D+00 0.00000000D+00 0.00000000D+00
  <mgrwgt>
 0.1188754526D-02    4    2    0
 0.998005477939529D+03 0.000000000000000D+00 0.000000000000000D+00 0.998005477939529D+03
 0.998005477939529D+03 0.000000000000000D+00 0.000000000000000D+00 -.998005477939529D+03
 0.658353924654147D+03 0.160137009225725D+03 -.203319907522001D+03 0.599983189460032D+03
 0.363577344960588D+03 -.883867487366566D+02 0.176634215440349D+02 -.352227585455358D+03
 0.614456507879976D+03 -.210364370857654D+03 0.124266571360612D+03 -.563792027960662D+03
 0.359623178384347D+03 0.138614110368586D+03 0.613899146173537D+02 0.316036423955987D+03
 0.000000000000000D+00 0.000000000000000D+00 -.000000000000000D+00 -.000000000000000D+00
 0.100605803710495D+04 0.000000000000000D+00 0.000000000000000D+00 0.100605803710495D+04
 0.101826852225390D+04 0.000000000000000D+00 0.000000000000000D+00 -.101826852225390D+04
 0.655233451496515D+03 0.156878321777385D+03 -.195634926655095D+03 0.599983189460032D+03
 0.364251942409488D+03 -.901923143247163D+02 0.219214969864189D+02 -.352227585455358D+03
 0.617003972639477D+03 -.213419321661730D+03 0.131471078957872D+03 -.563792027960662D+03
 0.359682797872247D+03 0.136829689020680D+03 0.655981254797188D+02 0.316036423955987D+03
 0.281543949411260D+02 0.990362518838225D+01 -.233557747689149D+02 -.122104851489471D+02
0.112843974586D-02 0.000000000000D+00 0.000000000000D+00 0.255595091786D-06 0.000000000000D+00  7 -2 2 24 -11 11 -24 21 0 0.98033930D-01 0.24047101D+00 0.15096602D+06 0.15096602D+06 0.15096602D+06 0.11073320D+01  1  2  2  1  7  1       -2 0.155243189635D-02 0.100000000000D+01
0.514119804069D-05 0.000000000000D+00 -.433350574910D-05 0.255595091786D-06 0.000000000000D+00  7 -2 2 24 -11 11 -24 21 2 0.98033930D-01 0.24047101D+00 0.15096602D+06 0.15096602D+06 0.15096602D+06 0.11073320D+01  1  2  3  1  7  1       -2 0.867269717713D-05 0.100000000000D+01
0.702513112718D-04 0.000000000000D+00 0.000000000000D+00 0.255595091786D-06 0.000000000000D+00  7 -2 2 24 -11 11 -24 21 2 0.98033930D-01 0.24047101D+00 0.15096602D+06 0.15096602D+06 0.15096602D+06 0.11073320D+01  1  2 15  1  7  1       -2 0.118507076392D-03 0.100000000000D+01
-.290981425419D-03 0.000000000000D+00 0.000000000000D+00 0.255595091786D-06 0.000000000000D+00  7 -2 2 24 -11 11 -24 21 2 0.98033930D-01 0.24047101D+00 0.15096602D+06 0.15096602D+06 0.15096602D+06 0.11073320D+01  1  2  4  1  7  1       -2 -.490857143968D-03 0.100000000000D+01
  </mgrwgt>
  </event>
  <event>
  8     66 -.27011060E-05 0.36172598E+03 0.75467711E-02 0.96813738E-01
       -2 -1    0    0    0  502 0.00000000E+00 0.00000000E+00 0.95925028E+02 0.95925562E+02 0.32000000E+00 0.0000E+00 0.9000E+01
        2 -1    0    0  501    0 0.00000000E+00 0.00000000E+00 -.22408963E+04 0.22408963E+04 0.32000000E+00 0.0000E+00 0.9000E+01
       25  2    1    2    0    0 -.27669903E+03 -.17563088E+03 -.90052977E+03 0.10041354E+04 0.29987560E+03 0.0000E+00 0.0000E+00
       24  1    3    3    0    0 -.15643319E+03 0.23866341E+02 -.53174724E+03 0.56059191E+03 0.80419002E+02 0.0000E+00 0.9000E+01
      -13  1    1    2    0    0 0.20308702E+03 0.16272796E+03 -.10345750E+04 0.10668037E+04 0.10565837E+00 0.0000E+00 0.9000E+01
       13  1    1    2    0    0 -.33580876E+01 -.46604973E+02 -.13577222E+03 0.14358763E+03 0.10565837E+00 0.0000E+00 0.9000E+01
      -24  1    3    3    0    0 -.12026584E+03 -.19949722E+03 -.36878254E+03 0.44354345E+03 0.80419002E+02 0.0000E+00 0.9000E+01
       21  1    1    2  501  502 0.76970101E+02 0.59507896E+02 -.74094263E+02 0.12229517E+03 0.75000000E+00 0.0000E+00 0.9000E+01
#aMCatNLO 2  0  0  1  2 0.97291244D+02 0.00000000D+00  -5  7  0 0.00000000D+00 0.00000000D+00 0.00000000D+00 0.00000000D+00 0.00000000D+00
  <mgrwgt>
 -.8662904617D-04    2    2    0
 0.389272200771100D+03 0.000000000000000D+00 0.000000000000000D+00 0.389272200771100D+03
 0.389272200771100D+03 0.000000000000000D+00 0.000000000000000D+00 -.389272200771100D+03
 0.166519067952818D+03 -.139431614978529D+03 0.370108721790640D+02 -.212227265573708D+02
 0.315079260561382D+03 0.232408585017209D+03 0.185396140815523D+03 -.104352580307901D+03
 0.433860313377906D+02 0.108937527835252D+01 -.431655572115786D+02 -.423032473465072D+01
 0.253560041690209D+03 -.940663453170326D+02 -.179241455783008D+03 0.129805631599922D+03
 0.000000000000000D+00 0.000000000000000D+00 0.000000000000000D+00 0.000000000000000D+00
 0.523932968419964D+03 0.000000000000000D+00 0.000000000000000D+00 0.523932968419964D+03
 0.410277164723516D+03 0.000000000000000D+00 0.000000000000000D+00 -.410277164723516D+03
 0.178770108460277D+03 -.156433847740464D+03 0.238659356219892D+02 -.212227265573708D+02
 0.280382342881206D+03 0.203087721595722D+03 0.162727301088955D+03 -.104352580307901D+03
 0.469151368432577D+02 -.335710490396287D+01 -.466032645243312D+02 -.423032473465072D+01
 0.278532291605702D+03 -.120266870324845D+03 -.199497868209075D+03 0.129805631599922D+03
 0.149610253353038D+03 0.769701013735494D+02 0.595078960224615D+02 0.113655803696448D+03
-.102157616586D-03 0.000000000000D+00 0.000000000000D+00 0.751000391190D-09 0.000000000000D+00  7 -2 2 24 -13 13 -24 21 2 0.14976995D-01 0.32710225D+00 0.17147762D+06 0.17147762D+06 0.17147762D+06 0.11029947D+01  1  2 13  1  7  1       -2 -.299841473089D-02 0.100000000000D+01
0.112083541069D-03 0.000000000000D+00 0.000000000000D+00 0.751000391190D-09 0.541272660515D-12  7 -2 2 24 -13 13 -24 21 2 0.14757707D-01 0.34475255D+00 0.17147762D+06 0.17147762D+06 0.17147762D+06 0.11029947D+01  1  2  1  1  7  1       -2 0.291178568473D-02 0.100000000000D+01
  </mgrwgt>
  </event>
  <event>
  7     66 0.27011060E-05 0.16680894E+03 0.75467711E-02 0.10166726E+00
       -2 -1    0    0    0  501 0.00000000E+00 0.00000000E+00 0.88836146E+03 0.88836152E+03 0.32000000E+00 0.0000E+00 0.9000E+01
        2 -1    0    0  501    0 0.00000000E+00 0.00000000E+00 -.59227198E+02 0.59228063E+02 0.32000000E+00 0.0000E+00 0.9000E+01
       23  2    1    2    0    0 0.29951572E+01 0.25387632E+02 0.25355805E+03 0.27102075E+03 0.92233706E+02 0.0000E+00 0.0000E+00
       24  1    1    2    0    0 0.13292932E+03 0.64649278E+02 0.21759571E+03 0.27507243E+03 0.80419002E+02 0.0000E+00 0.9000E+01
      -11  1    3    3    0    0 -.21579556E+02 -.11042549E+02 0.20124617E+03 0.20270086E+03 0.51099893E-03 0.0000E+00 0.9000E+01
       11  1    3    3    0    0 0.24574714E+02 0.36430181E+02 0.52311877E+02 0.68319888E+02 0.51099893E-03 0.0000E+00 0.9000E+01
      -24  1    1    2    0    0 -.13592448E+03 -.90036910E+02 0.35798050E+03 0.40149641E+03 0.80419002E+02 0.0000E+00 0.9000E+01
#aMCatNLO 1  0  0  1  2 0.13156721D+03 0.00000000D+00  -5  7  0 0.00000000D+00 0.00000000D+00 0.00000000D+00 0.00000000D+00 0.00000000D+00
  <mgrwgt>
 0.2913419900D-03    9    2    0
 0.229380900599373D+03 0.000000000000000D+00 0.000000000000000D+00 0.229380900599373D+03
 0.229380900599373D+03 0.000000000000000D+00 0.000000000000000D+00 -.229380900599373D+03
 0.174904951531437D+03 0.132929318503578D+03 0.646492722804460D+02 -.476948004674200D+02
 0.549677917129993D+02 -.215795526920999D+02 -.110425397563188D+02 0.493339978832314D+02
 0.465724109158010D+02 0.245747112583853D+02 0.364301830609462D+02 -.154244866113319D+02
 0.182316647038509D+03 -.135924477069863D+03 -.900369155850734D+02 0.137852891955205D+02
 0.000000000000000D+00 -.000000000000000D+00 -.000000000000000D+00 0.000000000000000D+00
 0.350842343647040D+03 0.000000000000000D+00 0.000000000000000D+00 0.350842343647040D+03
 0.277191753184101D+03 0.000000000000000D+00 0.000000000000000D+00 -.277191753184101D+03
 0.222077091155837D+03 0.172542322091856D+03 0.103948889159002D+03 -.476948004674200D+02
 0.505597520387803D+02 -.110494467432158D+02 -.595739665547429D+00 0.493339978832314D+02
 0.608113007594431D+02 0.352900356270119D+02 0.470607362700215D+02 -.154244866113319D+02
 0.143806841540193D+03 -.103382121159153D+03 -.577520090198222D+02 0.137852891955205D+02
 0.150779111336888D+03 -.934007898164991D+02 -.926618767436544D+02 0.736505904629395D+02
0.723438484654D-05 0.000000000000D+00 0.000000000000D+00 0.468090830208D-10 0.000000000000D+00  7 -2 2 24 -11 11 -24 21 0 0.13667107D+00 0.91119476D-02 0.43734500D+05 0.43734500D+05 0.43734500D+05 0.11524453D+01  1  2  2  1  7  1       -2 0.257255405097D-03 0.100000000000D+01
-.397734767684D-06 0.000000000000D+00 -.277819426680D-07 0.468090830208D-10 0.000000000000D+00  7 -2 2 24 -11 11 -24 21 2 0.13667107D+00 0.91119476D-02 0.43734500D+05 0.43734500D+05 0.43734500D+05 0.11524453D+01  1  2  3  1  7  1       -2 -.187843887585D-04 0.100000000000D+01
0.432028970426D-06 0.000000000000D+00 0.000000000000D+00 0.468090830208D-10 0.000000000000D+00  7 -2 2 24 -11 11 -24 21 2 0.13667107D+00 0.91119476D-02 0.43734500D+05 0.43734500D+05 0.43734500D+05 0.11524453D+01  1  2 15  1  7  1       -2 0.204040501229D-04 0.100000000000D+01
0.123948802936D-05 0.000000000000D+00 0.000000000000D+00 0.468090830208D-10 0.000000000000D+00  7 -2 2 24 -11 11 -24 21 2 0.21719784D+00 0.91119476D-02 0.78819132D+05 0.78819132D+05 0.78819132D+05 0.11303046D+01  1  2 12  1  7  1       -2 0.146728179747D-04 0.100000000000D+01
-.354964548893D-05 0.000000000000D+00 0.000000000000D+00 0.468090830208D-10 0.000000000000D+00  7 -2 2 24 -11 11 -24 21 2 0.13667107D+00 0.91119476D-02 0.43734500D+05 0.43734500D+05 0.43734500D+05 0.11524453D+01  1  2  4  1  7  1       -2 -.167644184609D-03 0.100000000000D+01
-.415946934491D-05 0.000000000000D+00 -.220981606671D-05 0.468090830208D-10 0.000000000000D+00  7 -2 2 24 -11 11 -24 21 2 0.23273276D+00 0.91119476D-02 0.43734500D+05 0.43734500D+05 0.43734500D+05 0.11524453D+01  1  2  5  1  7  1       -2 -.411724751236D-04 0.100000000000D+01
0.490432279996D-05 0.000000000000D+00 0.192987557958D-05 0.468090830208D-10 0.000000000000D+00  7 -2 2 24 -11 11 -24 21 2 0.13667107D+00 0.91119476D-02 0.43734500D+05 0.43734500D+05 0.43734500D+05 0.11524453D+01  1  2  6  1  7  1       -2 0.231623467589D-03 0.100000000000D+01
0.658489395193D-07 0.000000000000D+00 0.000000000000D+00 0.468090830208D-10 0.000000000000D+00  7 21 2 24 -11 11 -24 2 2 0.21719784D+00 0.91119476D-02 0.78819132D+05 0.78819132D+05 0.78819132D+05 0.11303046D+01  1  2 12  3  7  1       -2 0.634276375565D-05 0.100000000000D+01
-.139955105820D-06 0.000000000000D+00 -.131038739986D-06 0.468090830208D-10 0.000000000000D+00  7 21 2 24 -11 11 -24 2 2 0.23273276D+00 0.91119476D-02 0.43734500D+05 0.43734500D+05 0.43734500D+05 0.11524453D+01  1  2  5  3  7  1       -2 -.113554660726D-04 0.100000000000D+01
  </mgrwgt>
  </event>
  <event>
  8     66 0.27011060E-05 0.20504814E+03 0.75467711E-02 0.89563036E-01
       -2 -1    0    0    0  501 0.00000000E+00 0.00000000E+00 0.51347669E+03 0.51347679E+03 0.32000000E+00 0.0000E+00 0.9000E+01
        2 -1    0    0  501    0 0.00000000E+00 0.00000000E+00 -.29008312E+03 0.29008329E+03 0.32000000E+00 0.0000E+00 0.9000E+01
       25  2    1    2    0    0 -.13327849E+02 -.11043587E+02 -.20145067E+03 0.36126999E+03 0.29938944E+03 0.0000E+00 0.0000E+00
       23  2    1    2    0    0 0.13327849E+02 0.11043587E+02 0.42484424E+03 0.44229009E+03 0.12177151E+03 0.0000E+00 0.0000E+00
       24  1    3    3    0    0 0.10789194E+03 -.45377383E+02 -.55820469E+02 0.15258741E+03 0.80419002E+02 0.0000E+00 0.9000E+01
      -13  1    4    4    0    0 -.22352321E+01 -.52830066E+02 0.13285274E+03 0.14298907E+03 0.10565837E+00 0.0000E+00 0.9000E+01
       13  1    4    4    0    0 0.15563081E+02 0.63873653E+02 0.29199150E+03 0.29930102E+03 0.10565837E+00 0.0000E+00 0.9000E+01
      -24  1    3    3    0    0 -.12121979E+03 0.34333796E+02 -.14563020E+03 0.20868258E+03 0.80419002E+02 0.0000E+00 0.9000E+01
#aMCatNLO 1  0  0  2  2 0.74945479D+03 0.00000000D+00  -5  7  0 0.00000000D+00 0.00000000D+00 0.00000000D+00 0.00000000D+00 0.00000000D+00
  <mgrwgt>
 0.9261861583D-03    3    2    0
 0.385941742450776D+03 0.000000000000000D+00 0.000000000000000D+00 0.385941742450776D+03
 0.385941742450776D+03 0.000000000000000D+00 0.000000000000000D+00 -.385941742450776D+03
 0.175004540792163D+03 0.107891935989809D+03 -.453773848972002D+02 -.102272168412366D+03
 0.110407498296223D+03 -.223520285858139D+01 -.528298065297964D+02 0.969217782040533D+02
 0.227077501109736D+03 0.155630585403400D+02 0.638733989219617D+02 0.217352643483506D+03
 0.259393944703431D+03 -.121219791671568D+03 0.343337925050349D+02 -.212002253275193D+03
 0.000000000000000D+00 0.000000000000000D+00 -.000000000000000D+00 0.000000000000000D+00
 0.459200920752371D+04 0.000000000000000D+00 0.000000000000000D+00 0.459200920752371D+04
 0.572569648842731D+03 0.000000000000000D+00 0.000000000000000D+00 -.572569648842731D+03
 0.130478921780827D+03 -.896668507052777D+01 -.418750543821276D+01 -.102272168412366D+03
 0.138882933754553D+03 -.975979301487004D+02 -.192167174284610D+02 0.969217782040533D+02
 0.322869832915213D+03 -.194811953477238D+03 0.138025577918777D+03 0.217352643483506D+03
 0.483633819760463D+03 -.405455145145241D+03 0.134519981947732D+03 -.212002253275193D+03
 0.408871334815539D+04 0.706831713841707D+03 -.249141336999835D+03 0.401943955868098D+04
0.430716815795D-04 0.000000000000D+00 0.000000000000D+00 0.314485639025D-08 0.000000000000D+00  7 -2 2 24 -13 13 -24 21 0 0.78996435D-01 0.44628193D-01 0.42044739D+05 0.42044739D+05 0.42044739D+05 0.11539745D+01  1  2  2  2  7  2        2 0.887258141026D-03 0.100000000000D+01
-.122916923250D-05 0.000000000000D+00 -.165406598299D-06 0.314485639025D-08 0.000000000000D+00  7 -2 2 24 -13 13 -24 21 2 0.78996435D-01 0.44628193D-01 0.42044739D+05 0.42044739D+05 0.42044739D+05 0.11539745D+01  1  2  3  2  7  2        2 -.337180360856D-04 0.100000000000D+01
0.264826496376D-05 0.000000000000D+00 0.000000000000D+00 0.314485639025D-08 0.000000000000D+00  7 -2 2 24 -13 13 -24 21 2 0.78996435D-01 0.44628193D-01 0.42044739D+05 0.42044739D+05 0.42044739D+05 0.11539745D+01  1  2 15  2  7  2        2 0.726460533269D-04 0.100000000000D+01
  </mgrwgt>
  </event>
  <event>
  8     66 0.27011060E-05 0.26722447E+03 0.75467711E-02 0.98296893E-01
       -2 -1    0    0    0  501 0.00000000E+00 0.00000000E+00 0.13496394E+03 0.13496432E+03 0.32000000E+00 0.0000E+00 0.9000E+01
        2 -1    0    0  501    0 0.00000000E+00 0.00000000E+00 -.58572310E+03 0.58572318E+03 0.32000000E+00 0.0000E+00 0.9000E+01
       25  2    1    2    0    0 0.11677013E+03 -.14328634E+03 -.23728314E+03 0.42375234E+03 0.29849040E+03 0.0000E+00 0.0000E+00
       23  2    1    2    0    0 -.11677013E+03 0.14328634E+03 -.21347602E+03 0.29693516E+03 0.91827235E+02 0.0000E+00 0.0000E+00
       24  1    3    3    0    0 -.32898733E+02 -.13567039E+03 -.18608395E+03 0.24613662E+03 0.80419002E+02 0.0000E+00 0.9000E+01
      -13  1    4    4    0    0 -.11327454E+03 0.77188738E+02 -.11864808E+03 0.18129148E+03 0.10565837E+00 0.0000E+00 0.9000E+01
       13  1    4    4    0    0 -.34955916E+01 0.66097606E+02 -.94827934E+02 0.11564368E+03 0.10565837E+00 0.0000E+00 0.9000E+01
      -24  1    3    3    0    0 0.14966887E+03 -.76159502E+01 -.51199189E+02 0.17761572E+03 0.80419002E+02 0.0000E+00 0.9000E+01
#aMCatNLO 1  0  0  1  2 0.17365631D+03 0.00000000D+00  -5  7  0 0.00000000D+00 0.00000000D+00 0.00000000D+00 0.00000000D+00 0.00000000D+00
  <mgrwgt>
 0.5008500646D-03    3    2    0
 0.281161279885468D+03 0.000000000000000D+00 0.000000000000000D+00 0.281161279885468D+03
 0.281161279885468D+03 0.000000000000000D+00 0.000000000000000D+00 -.281161279885468D+03
 0.166289861105700D+03 -.328987321732417D+02 -.135670393772387D+03 -.411864009986465D+02
 0.137239460514002D+03 -.113274685814749D+03 0.771887534068025D+02 -.673879983736330D+01
 0.721976154336031D+02 -.349544726749794D+01 0.660975917658966D+02 -.288337629429018D+02
 0.186595622717631D+03 0.149668865255489D+03 -.761595140031260D+01 0.767589637789116D+02
 0.000000000000000D+00 0.000000000000000D+00 -.000000000000000D+00 -.000000000000000D+00
 0.317461928142021D+03 0.000000000000000D+00 0.000000000000000D+00 0.317461928142021D+03
 0.619242526088815D+03 0.000000000000000D+00 0.000000000000000D+00 -.619242526088815D+03
 0.149263625364561D+03 -.643203338998059D+02 -.998948893707662D+02 -.411864009986465D+02
 0.184629385226601D+03 -.145325146711822D+03 0.113680254218100D+03 -.673879983736330D+01
 0.916109781390203D+02 -.198068765728835D+02 0.846691978854599D+02 -.288337629429018D+02
 0.163022286300423D+03 0.114855259433787D+03 0.320215667360604D+02 0.767589637789116D+02
 0.348178179200230D+03 0.114597097750725D+03 -.130476129468855D+03 -.301780597946794D+03
0.424793579102D-05 0.000000000000D+00 0.000000000000D+00 0.525276069185D-07 0.000000000000D+00  7 -2 2 24 -13 13 -24 21 0 0.20763719D-01 0.90111281D-01 0.71408917D+05 0.71408917D+05 0.71408917D+05 0.11339246D+01  1  2  2  1  7  1       -2 0.496824495762D-03 0.100000000000D+01
-.235254800830D-06 0.000000000000D+00 -.163131919447D-07 0.525276069185D-07 0.000000000000D+00  7 -2 2 24 -13 13 -24 21 2 0.20763719D-01 0.90111281D-01 0.71408917D+05 0.71408917D+05 0.71408917D+05 0.11339246D+01  1  2  3  1  7  1       -2 -.353778909869D-04 0.100000000000D+01
0.262023903773D-06 0.000000000000D+00 0.000000000000D+00 0.525276069185D-07 0.000000000000D+00  7 -2 2 24 -13 13 -24 21 2 0.20763719D-01 0.90111281D-01 0.71408917D+05 0.71408917D+05 0.71408917D+05 0.11339246D+01  1  2 15  1  7  1       -2 0.394034598696D-04 0.100000000000D+01
  </mgrwgt>
  </event>
  <event>
  8     66 0.27011060E-05 0.58673040E+03 0.75467711E-02 0.90824775E-01
       -2 -1    0    0    0  501 0.00000000E+00 0.00000000E+00 0.95689602E+03 0.95689607E+03 0.32000000E+00 0.0000E+00 0.9000E+01
        2 -1    0    0  501    0 0.00000000E+00 0.00000000E+00 -.67364311E+03 0.67364318E+03 0.32000000E+00 0.0000E+00 0.9000E+01
       25  2    1    2    0    0 0.92832459E+02 -.56246761E+03 0.67571518E+03 0.93262269E+03 0.29699562E+03 0.0000E+00 0.0000E+00
       23  2    1    2    0    0 -.92832459E+02 0.56246761E+03 -.39246227E+03 0.69791656E+03 0.89851076E+02 0.0000E+00 0.0000E+00
       24  1    3    3    0    0 0.25530612E+02 -.11539786E+03 0.40077887E+02 0.14846525E+03 0.80419002E+02 0.0000E+00 0.9000E+01
      -13  1    4    4    0    0 -.96460884E+02 0.54219821E+03 -.39419151E+03 0.67725221E+03 0.10565837E+00 0.0000E+00 0.9000E+01
       13  1    4    4    0    0 0.36284247E+01 0.20269401E+02 0.17292348E+01 0.20664353E+02 0.10565837E+00 0.0000E+00 0.9000E+01
      -24  1    3    3    0    0 0.67301848E+02 -.44706975E+03 0.63563730E+03 0.78415744E+03 0.80419002E+02 0.0000E+00 0.9000E+01
#aMCatNLO 1  0  0  1  1 0.22404881D+03 0.00000000D+00  -5  7  0 0.00000000D+00 0.00000000D+00 0.00000000D+00 0.00000000D+00 0.00000000D+00
  <mgrwgt>
 0.2251495228D-02    4    2    0
 0.802873906741091D+03 0.000000000000000D+00 0.000000000000000D+00 0.802873906741091D+03
 0.802873906741091D+03 0.000000000000000D+00 0.000000000000000D+00 -.802873906741091D+03
 0.143687716970134D+03 0.255306115714719D+02 -.115397855096080D+03 0.145074796477368D+02
 0.757244585766277D+03 -.964610223848728D+02 0.542198930412325D+03 -.519745085299069D+03
 0.206773394345173D+02 0.362856315144913D+01 0.202686790317638D+02 -.188853007747630D+01
 0.684138171311253D+03 0.673018476619518D+02 -.447069754348008D+03 0.507126135728809D+03
 0.000000000000000D+00 -.000000000000000D+00 -.000000000000000D+00 -.000000000000000D+00
 0.889421545867094D+03 0.000000000000000D+00 0.000000000000000D+00 0.889421545867094D+03
 0.969969489333769D+03 0.000000000000000D+00 0.000000000000000D+00 -.969969489333769D+03
 0.146777525396290D+03 0.455648729651965D+02 -.113092004107382D+03 0.145074796477368D+02
 0.759859526739819D+03 0.817821122470100D+01 0.554242423083878D+03 -.519745085299069D+03
 0.217039805276101D+02 0.655173025886234D+01 0.206051220696325D+02 -.188853007747630D+01
 0.692962118999620D+03 0.162284596567441D+03 -.436137678482130D+03 0.507126135728809D+03
 0.238087883537524D+03 -.222579411016201D+03 -.256178625639984D+02 -.805479434666758D+02
0.212162841612D-02 0.000000000000D+00 0.000000000000D+00 0.291331152463D-06 0.000000000000D+00  7 -2 2 24 -13 13 -24 21 0 0.14721478D+00 0.10363741D+00 0.34425257D+06 0.34425257D+06 0.34425257D+06 0.10801584D+01  1  2  2  1  7  1       -2 0.346288628691D-02 0.100000000000D+01
-.103771472111D-03 0.000000000000D+00 -.814761175549D-05 0.291331152463D-06 0.000000000000D+00  7 -2 2 24 -13 13 -24 21 2 0.14721478D+00 0.10363741D+00 0.34425257D+06 0.34425257D+06 0.34425257D+06 0.10801584D+01  1  2  3  1  7  1       -2 -.197615835092D-03 0.100000000000D+01
0.121621408641D-03 0.000000000000D+00 0.000000000000D+00 0.291331152463D-06 0.000000000000D+00  7 -2 2 24 -13 13 -24 21 2 0.14721478D+00 0.10363741D+00 0.34425257D+06 0.34425257D+06 0.34425257D+06 0.10801584D+01  1  2 15  1  7  1       -2 0.231608126441D-03 0.100000000000D+01
-.653972205966D-03 0.000000000000D+00 0.000000000000D+00 0.291331152463D-06 0.000000000000D+00  7 -2 2 24 -13 13 -24 21 2 0.14721478D+00 0.10363741D+00 0.34425257D+06 0.34425257D+06 0.34425257D+06 0.10801584D+01  1  2  4  1  7  1       -2 -.124538335036D-02 0.100000000000D+01
  </mgrwgt>
  </event>
  <event>
  8     66 0.27011060E-05 0.15950952E+03 0.75467711E-02 0.10622144E+00
       -2 -1    0    0    0  501 0.00000000E+00 0.00000000E+00 0.35464669E+02 0.35466113E+02 0.32000000E+00 0.0000E+00 0.9000E+01
        2 -1    0    0  501    0 0.00000000E+00 0.00000000E+00 -.14971773E+04 0.14971773E+04 0.32000000E+00 0.0000E+00 0.9000E+01
       25  2    1    2    0    0 -.94389539E+02 -.36180781E+02 -.88886255E+03 0.94357598E+03 0.30006761E+03 0.0000E+00 0.0000E+00
       23  2    1    2    0    0 0.94389539E+02 0.36180781E+02 -.57285009E+03 0.58906748E+03 0.92869943E+02 0.0000E+00 0.0000E+00
       24  1    3    3    0    0 -.79530559E+02 0.21684873E+02 -.11324308E+03 0.16151333E+03 0.80419002E+02 0.0000E+00 0.9000E+01
      -11  1    4    4    0    0 0.27017999E+02 0.21962146E+02 -.41980542E+03 0.42124684E+03 0.51099893E-03 0.0000E+00 0.9000E+01
       11  1    4    4    0    0 0.67371540E+02 0.14218636E+02 -.15304468E+03 0.16782064E+03 0.51099893E-03 0.0000E+00 0.9000E+01
      -24  1    3    3    0    0 -.14858980E+02 -.57865655E+02 -.77561947E+03 0.78206266E+03 0.80419002E+02 0.0000E+00 0.9000E+01
#aMCatNLO 1  0  0  2  1 0.78643706D+02 0.00000000D+00  -5  7  0 0.00000000D+00 0.00000000D+00 0.00000000D+00 0.00000000D+00 0.00000000D+00
  <mgrwgt>
 0.8225959375D-03    3    2    0
 0.230430098758252D+03 0.000000000000000D+00 0.000000000000000D+00 0.230430098758252D+03
 0.230430098758252D+03 0.000000000000000D+00 0.000000000000000D+00 -.230430098758252D+03
 0.177957441386950D+03 -.795305594224776D+02 0.216848732303483D+02 0.135669788020586D+03
 0.694056923810831D+02 0.270179988956899D+02 0.219621455540645D+02 -.600403367181774D+02
 0.726942075340963D+02 0.673715402968407D+02 0.142186360525852D+02 0.233099497177826D+02
 0.140802856214376D+03 -.148589797700531D+02 -.578656548369980D+02 -.989394010201909D+02
 0.000000000000000D+00 -.000000000000000D+00 -.000000000000000D+00 0.000000000000000D+00
 0.485917209127548D+03 0.000000000000000D+00 0.000000000000000D+00 0.485917209127548D+03
 0.239893018627149D+03 0.000000000000000D+00 0.000000000000000D+00 -.239893018627149D+03
 0.168556951783793D+03 -.513732638695545D+02 0.299787661205712D+02 0.135669788020586D+03
 0.758905481517403D+02 0.388245768273472D+02 0.254398407958247D+02 -.600403367181774D+02
 0.854587861175113D+02 0.802228407697582D+02 0.180040603104693D+02 0.233099497177826D+02
 0.137615856860509D+03 0.776495200888202D+01 -.512016459808379D+02 -.989394010201909D+02
 0.258288084841144D+03 -.754391057364329D+02 -.222210212460273D+02 0.246024190500399D+03
0.319872378259D-05 0.000000000000D+00 0.000000000000D+00 0.240137884024D-06 0.000000000000D+00  7 -2 2 24 -11 11 -24 21 0 0.54562166D-02 0.23033508D+00 0.25443286D+05 0.25443286D+05 0.25443286D+05 0.11740330D+01  1  2  2  2  7  2        2 0.803728469255D-03 0.100000000000D+01
-.148471209843D-06 0.000000000000D+00 -.122839415684D-07 0.240137884024D-06 0.000000000000D+00  7 -2 2 24 -11 11 -24 21 2 0.54562166D-02 0.23033508D+00 0.25443286D+05 0.25443286D+05 0.25443286D+05 0.11740330D+01  1  2  3  2  7  2        2 -.514204052827D-04 0.100000000000D+01
0.202949112496D-06 0.000000000000D+00 0.000000000000D+00 0.240137884024D-06 0.000000000000D+00  7 -2 2 24 -11 11 -24 21 2 0.54562166D-02 0.23033508D+00 0.25443286D+05 0.25443286D+05 0.25443286D+05 0.11740330D+01  1  2 15  2  7  2        2 0.702878735030D-04 0.100000000000D+01
  </mgrwgt>
  </event>
  <event>
  8     66 0.27011060E-05 0.91350982E+02 0.75467711E-02 0.10618531E+00
       -4 -1    0    0    0  501 0.00000000E+00 0.00000000E+00 0.27173655E+03 0.27174097E+03 0.15500000E+01 0.0000E+00 0.9000E+01
        4 -1    0    0  501    0 0.00000000E+00 0.00000000E+00 -.16986569E+03 0.16987276E+03 0.15500000E+01 0.0000E+00 0.9000E+01
       25  2    1    2    0    0 0.60274116E+02 -.49294720E+02 0.60805810E+02 0.31624975E+03 0.30042240E+03 0.0000E+00 0.0000E+00
       23  2    1    2    0    0 -.60274116E+02 0.49294720E+02 0.41065048E+02 0.12536398E+03 0.89257215E+02 0.0000E+00 0.0000E+00
       24  1    3    3    0    0 0.10148858E+03 0.36201738E+02 -.55960054E+02 0.14563393E+03 0.80419002E+02 0.0000E+00 0.9000E+01
      -13  1    4    4    0    0 -.79291519E+02 0.34092807E+02 0.11513715E+02 0.87074918E+02 0.10565837E+00 0.0000E+00 0.9000E+01
       13  1    4    4    0    0 0.19017403E+02 0.15201913E+02 0.29551333E+02 0.38289061E+02 0.10565837E+00 0.0000E+00 0.9000E+01
      -24  1    3    3    0    0 -.41214463E+02 -.85496458E+02 0.11676586E+03 0.17061582E+03 0.80419002E+02 0.0000E+00 0.9000E+01
#aMCatNLO 1  0  0  1  2 0.31788555D+02 0.00000000D+00  -5  7  0 0.00000000D+00 0.00000000D+00 0.00000000D+00 0.00000000D+00 0.00000000D+00
  <mgrwgt>
 0.6693193300D-04    9    2    0
 0.214851702198033D+03 0.000000000000000D+00 0.000000000000000D+00 0.214851702198033D+03
 0.214851702198033D+03 0.000000000000000D+00 0.000000000000000D+00 -.214851702198033D+03
 0.162937157553028D+03 0.101488621038188D+03 0.362017038568567D+02 -.920369371215568D+02
 0.867589349415114D+02 -.792916643115031D+02 0.340928833011221D+02 -.881022537245077D+01
 0.323444069086769D+02 0.190174687425775D+02 0.152019017162659D+02 0.212931614634405D+02
 0.147662904992849D+03 -.412144254692623D+02 -.854964888742448D+02 0.795540010305671D+02
 0.000000000000000D+00 -.000000000000000D+00 0.000000000000000D+00 0.000000000000000D+00
 0.233589499884647D+03 0.000000000000000D+00 0.000000000000000D+00 0.233589499884647D+03
 0.229357186987536D+03 0.000000000000000D+00 0.000000000000000D+00 -.229357186987536D+03
 0.168370024516143D+03 0.111908147216096D+03 0.297828472973838D+02 -.920369371215568D+02
 0.806789366890754D+02 -.740257860539532D+02 0.308488857701668D+02 -.881022537245077D+01
 0.330407573478433D+02 0.210738154428292D+02 0.139351075952965D+02 0.212931614634405D+02
 0.148787906750246D+03 -.318911232271320D+02 -.912400264143424D+02 0.795540010305671D+02
 0.320690615688744D+02 -.270650533778404D+02 0.166731857514952D+02 0.423231289711040D+01
0.288950256617D-05 0.000000000000D+00 0.000000000000D+00 0.630224849656D-07 0.000000000000D+00  7 -4 4 24 -13 13 -24 21 0 0.41806507D-01 0.26134067D-01 0.34134613D+05 0.34134613D+05 0.34134613D+05 0.11621688D+01  1  2  2  1  7  1       -4 0.554293282553D-04 0.100000000000D+01
-.156082696066D-06 0.000000000000D+00 -.110964506776D-07 0.630224849656D-07 0.000000000000D+00  7 -4 4 24 -13 13 -24 21 2 0.41806507D-01 0.26134067D-01 0.34134613D+05 0.34134613D+05 0.34134613D+05 0.11621688D+01  1  2  3  1  7  1       -4 -.404398655116D-05 0.100000000000D+01
0.190652036546D-06 0.000000000000D+00 0.000000000000D+00 0.630224849656D-07 0.000000000000D+00  7 -4 4 24 -13 13 -24 21 2 0.41806507D-01 0.26134067D-01 0.34134613D+05 0.34134613D+05 0.34134613D+05 0.11621688D+01  1  2 15  1  7  1       -4 0.493965244820D-05 0.100000000000D+01
0.372113944308D-05 0.000000000000D+00 0.000000000000D+00 0.630224849656D-07 0.000000000000D+00  7 -4 4 24 -13 13 -24 21 2 0.46755995D-01 0.26134067D-01 0.40798244D+05 0.40798244D+05 0.40798244D+05 0.11551467D+01  1  2 12  1  7  1       -4 0.755969955832D-04 0.100000000000D+01
-.319239663023D-05 0.000000000000D+00 0.000000000000D+00 0.630224849656D-07 0.000000000000D+00  7 -4 4 24 -13 13 -24 21 2 0.41806507D-01 0.26134067D-01 0.34134613D+05 0.34134613D+05 0.34134613D+05 0.11621688D+01  1  2  4  1  7  1       -4 -.827126219882D-04 0.100000000000D+01
-.108139640863D-04 0.000000000000D+00 -.268410053546D-05 0.630224849656D-07 0.000000000000D+00  7 -4 4 24 -13 13 -24 21 2 0.48214126D-01 0.26134067D-01 0.34134613D+05 0.34134613D+05 0.34134613D+05 0.11621688D+01  1  2  5  1  7  1       -4 -.206079112702D-03 0.100000000000D+01
0.111106203984D-04 0.000000000000D+00 0.265703957082D-05 0.630224849656D-07 0.000000000000D+00  7 -4 4 24 -13 13 -24 21 2 0.41806507D-01 0.26134067D-01 0.34134613D+05 0.34134613D+05 0.34134613D+05 0.11621688D+01  1  2  6  1  7  1       -4 0.287867909760D-03 0.100000000000D+01
0.665485771619D-07 0.000000000000D+00 0.000000000000D+00 0.630224849656D-07 0.000000000000D+00  7 21 4 24 -13 13 -24 4 2 0.46755995D-01 0.26134067D-01 0.40798244D+05 0.40798244D+05 0.40798244D+05 0.11551467D+01  1  2 12  3  7  1       -4 0.299827620393D-04 0.100000000000D+01
-.219728469892D-06 0.000000000000D+00 -.587591373477D-07 0.630224849656D-07 0.000000000000D+00  7 21 4 24 -13 13 -24 4 2 0.48214126D-01 0.26134067D-01 0.34134613D+05 0.34134613D+05 0.34134613D+05 0.11621688D+01  1  2  5  3  7  1       -4 -.940489938475D-04 0.100000000000D+01
  </mgrwgt>
  </event>
  <event>
  8     66 0.27011060E-05 0.15433918E+03 0.75467711E-02 0.10403064E+00
       -2 -1    0    0    0  501 0.00000000E+00 0.00000000E+00 0.94821735E+02 0.94822274E+02 0.32000000E+00 0.0000E+00 0.9000E+01
        2 -1    0    0  501    0 0.00000000E+00 0.00000000E+00 -.56060024E+03 0.56060033E+03 0.32000000E+00 0.0000E+00 0.9000E+01
       25  2    1    2    0    0 0.97917886E+02 0.35767115E+02 -.27101855E+03 0.41594817E+03 0.29781643E+03 0.0000E+00 0.0000E+00
       23  2    1    2    0    0 -.97917886E+02 -.35767115E+02 -.19475995E+03 0.23947444E+03 0.92462791E+02 0.0000E+00 0.0000E+00
       24  1    3    3    0    0 0.10565232E+03 -.88112777E+02 -.92987176E+02 0.18449961E+03 0.80419002E+02 0.0000E+00 0.9000E+01
      -13  1    4    4    0    0 -.49163146E+02 0.24569496E+02 -.11883361E+03 0.13092790E+03 0.10565837E+00 0.0000E+00 0.9000E+01
       13  1    4    4    0    0 -.48754741E+02 -.60336611E+02 -.75926339E+02 0.10854654E+03 0.10565837E+00 0.0000E+00 0.9000E+01
      -24  1    3    3    0    0 -.77344361E+01 0.12387989E+03 -.17803138E+03 0.23144856E+03 0.80419002E+02 0.0000E+00 0.9000E+01
#aMCatNLO 1  0  0  2  1 0.30104027D+02 0.00000000D+00  -5  7  0 0.00000000D+00 0.00000000D+00 0.00000000D+00 0.00000000D+00 0.00000000D+00
  <mgrwgt>
 0.6165753391D-03    6    2    0
 0.230558656070961D+03 0.000000000000000D+00 0.000000000000000D+00 0.230558656070961D+03
 0.230558656070961D+03 0.000000000000000D+00 0.000000000000000D+00 -.230558656070961D+03
 0.168316787720350D+03 0.105652326911331D+03 -.881127651260700D+02 0.541945708921681D+02
 0.660633498454572D+02 -.491631533506989D+02 0.245696009091000D+02 -.366563126430698D+02
 0.775919888191649D+02 -.487547493873412D+02 -.603367218479765D+02 0.172369885156509D+01
 0.149145185756949D+03 -.773442417329067D+01 0.123879886064946D+03 -.192619571006635D+02
 0.000000000000000D+00 0.000000000000000D+00 0.000000000000000D+00 0.000000000000000D+00
 0.249022985008928D+03 0.000000000000000D+00 0.000000000000000D+00 0.249022985008928D+03
 0.243654854909470D+03 0.000000000000000D+00 0.000000000000000D+00 -.243654854909470D+03
 0.171716676121426D+03 0.101854104744685D+03 -.985296439468484D+02 0.541945708921681D+02
 0.657964981482548D+02 -.506360466120907D+02 0.205300924373223D+02 -.366563126430698D+02
 0.825482701387360D+02 -.505435388625715D+02 -.652425968552339D+02 0.172369885156509D+01
 0.142037493061858D+03 -.109869761213763D+02 0.114959544385351D+03 -.192619571006635D+02
 0.305789024481232D+02 0.103124568513535D+02 0.282826039794092D+02 0.536813009945837D+01
0.198296240088D-05 0.000000000000D+00 0.000000000000D+00 0.954953153886D-08 0.000000000000D+00  7 -2 2 24 -13 13 -24 21 0 0.14588008D-01 0.86246239D-01 0.48352279D+05 0.48352279D+05 0.48352279D+05 0.11485777D+01  1  2  2  2  7  2        2 0.429989787344D-03 0.100000000000D+01
-.109864006004D-06 0.000000000000D+00 -.761509774536D-08 0.954953153886D-08 0.000000000000D+00  7 -2 2 24 -13 13 -24 21 2 0.14588008D-01 0.86246239D-01 0.48352279D+05 0.48352279D+05 0.48352279D+05 0.11485777D+01  1  2  3  2  7  2        2 -.314282233120D-04 0.100000000000D+01
0.126116850398D-06 0.000000000000D+00 0.000000000000D+00 0.954953153886D-08 0.000000000000D+00  7 -2 2 24 -13 13 -24 21 2 0.14588008D-01 0.86246239D-01 0.48352279D+05 0.48352279D+05 0.48352279D+05 0.11485777D+01  1  2 15  2  7  2        2 0.360775897574D-04 0.100000000000D+01
0.263078927042D-05 0.000000000000D+00 0.000000000000D+00 0.954953153886D-08 0.000000000000D+00  7 -2 2 24 -13 13 -24 21 2 0.14588008D-01 0.94375372D-01 0.55446051D+05 0.55446051D+05 0.55446051D+05 0.11433668D+01  1  2 12  2  7  2        2 0.674255879862D-03 0.100000000000D+01
-.177482352262D-05 0.000000000000D+00 0.000000000000D+00 0.954953153886D-08 0.000000000000D+00  7 -2 2 24 -13 13 -24 21 2 0.14588008D-01 0.86246239D-01 0.48352279D+05 0.48352279D+05 0.48352279D+05 0.11485777D+01  1  2  4  2  7  2        2 -.507714510306D-03 0.100000000000D+01
0.390154121615D-07 0.000000000000D+00 0.000000000000D+00 0.954953153886D-08 0.000000000000D+00  7 -2 21 24 -13 13 -24 -2 2 0.14588008D-01 0.94375372D-01 0.55446051D+05 0.55446051D+05 0.55446051D+05 0.11433668D+01  1  2 12  4  7  2        2 0.153948157944D-04 0.100000000000D+01
  </mgrwgt>
  </event>
  <event>
  8     66 0.27011060E-05 0.79734170E+02 0.75467711E-02 0.10810594E+00
       -2 -1    0    0    0  501 0.00000000E+00 0.00000000E+00 0.13118735E+03 0.13118774E+03 0.32000000E+00 0.0000E+00 0.9000E+01
        2 -1    0    0  501    0 0.00000000E+00 0.00000000E+00 -.39444477E+03 0.39444490E+03 0.32000000E+00 0.0000E+00 0.9000E+01
       25  2    1    2    0    0 -.10045124E+03 -.36523481E+01 -.17093624E+03 0.35895412E+03 0.29920740E+03 0.0000E+00 0.0000E+00
       23  2    1    2    0    0 0.10045124E+03 0.36523481E+01 -.92321178E+02 0.16667852E+03 0.95680395E+02 0.0000E+00 0.0000E+00
       24  1    3    3    0    0 -.16103603E+02 0.40460752E+02 0.50791061E+02 0.10461045E+03 0.80419002E+02 0.0000E+00 0.9000E+01
      -13  1    4    4    0    0 -.11531588E+02 -.17763704E+02 -.20913796E+01 0.21281723E+02 0.10565837E+00 0.0000E+00 0.9000E+01
       13  1    4    4    0    0 0.11198283E+03 0.21416052E+02 -.90229798E+02 0.14539680E+03 0.10565837E+00 0.0000E+00 0.9000E+01
      -24  1    3    3    0    0 -.84347637E+02 -.44113100E+02 -.22172730E+03 0.25434367E+03 0.80419002E+02 0.0000E+00 0.9000E+01
#aMCatNLO 1  0  0  1  2 0.27161451D+01 0.00000000D+00  -5  7  0 0.00000000D+00 0.00000000D+00 0.00000000D+00 0.00000000D+00 0.00000000D+00
  <mgrwgt>
 0.1606012778D-03   11    2    0
 0.227478133260138D+03 0.000000000000000D+00 0.000000000000000D+00 0.227478133260138D+03
 0.227478133260138D+03 0.000000000000000D+00 0.000000000000000D+00 -.227478133260138D+03
 0.150251345692253D+03 -.161036318588382D+02 0.404607494014922D+02 0.119213471247116D+03
 0.233774816494335D+02 -.115317071169827D+02 -.177637371359623D+02 0.989828380084964D+01
 0.115773105947891D+03 0.111983004542382D+03 0.214160872861278D+02 -.201139245259412D+02
 0.165554333230700D+03 -.843476655665615D+02 -.441130995516577D+02 -.108997830522025D+03
 0.000000000000000D+00 0.000000000000000D+00 -.000000000000000D+00 0.000000000000000D+00
 0.237020696203541D+03 0.000000000000000D+00 0.000000000000000D+00 0.237020696203541D+03
 0.227675546620457D+03 0.000000000000000D+00 0.000000000000000D+00 -.227675546620457D+03
 0.150354511893664D+03 -.170008044813742D+02 0.404769590336329D+02 0.119213471247116D+03
 0.234448169687950D+02 -.116714505164688D+02 -.177612123274217D+02 0.989828380084964D+01
 0.115109035543347D+03 0.111293925699934D+03 0.214285371918331D+02 -.201139245259412D+02
 0.166056009902928D+03 -.853373725656150D+02 -.440952180581984D+02 -.108997830522025D+03
 0.973186851526495D+01 0.271570186352374D+01 -.490658398458250D-01 0.934514958308422D+01
0.146007249605D-05 0.000000000000D+00 0.000000000000D+00 0.136320702566D-07 0.000000000000D+00  7 -2 2 24 -13 13 -24 21 0 0.20182709D-01 0.60683851D-01 0.30844851D+05 0.30844851D+05 0.30844851D+05 0.11662185D+01  1  2  2  1  7  1       -2 0.274596425163D-03 0.100000000000D+01
-.745150774841D-07 0.000000000000D+00 -.560706283075D-08 0.136320702566D-07 0.000000000000D+00  7 -2 2 24 -13 13 -24 21 2 0.20182709D-01 0.60683851D-01 0.30844851D+05 0.30844851D+05 0.30844851D+05 0.11662185D+01  1  2  3  1  7  1       -2 -.190600687973D-04 0.100000000000D+01
0.964354297671D-07 0.000000000000D+00 0.000000000000D+00 0.136320702566D-07 0.000000000000D+00  7 -2 2 24 -13 13 -24 21 2 0.20182709D-01 0.60683851D-01 0.30844851D+05 0.30844851D+05 0.30844851D+05 0.11662185D+01  1  2 15  1  7  1       -2 0.246670336786D-04 0.100000000000D+01
0.304457831658D-06 0.000000000000D+00 0.000000000000D+00 0.136320702566D-07 0.000000000000D+00  7 -2 2 24 -13 13 -24 21 2 0.21037920D-01 0.60683851D-01 0.31365340D+05 0.31365340D+05 0.31365340D+05 0.11655468D+01  1  2 12  1  7  1       -2 0.726984322254D-04 0.100000000000D+01
-.109609603074D-03 0.000000000000D+00 0.000000000000D+00 0.136320702566D-07 0.000000000000D+00  7 -2 2 24 -13 13 -24 21 2 0.20182709D-01 0.60683851D-01 0.30844851D+05 0.30844851D+05 0.30844851D+05 0.11662185D+01  1  2  4  1  7  1       -2 -.280368302091D-01 0.100000000000D+01
-.131031306428D-03 0.000000000000D+00 -.448010807650D-05 0.136320702566D-07 0.000000000000D+00  7 -2 2 24 -13 13 -24 21 2 0.21040347D-01 0.60683851D-01 0.30844851D+05 0.30844851D+05 0.30844851D+05 0.11662185D+01  1  2  5  1  7  1       -2 -.313116082774D-01 0.100000000000D+01
0.131108078762D-03 0.000000000000D+00 0.447623141198D-05 0.136320702566D-07 0.000000000000D+00  7 -2 2 24 -13 13 -24 21 2 0.20182709D-01 0.60683851D-01 0.30844851D+05 0.30844851D+05 0.30844851D+05 0.11662185D+01  1  2  6  1  7  1       -2 0.335358840851D-01 0.100000000000D+01
0.109381685260D-03 0.000000000000D+00 0.000000000000D+00 0.136320702566D-07 0.133975862315D-07  7 -2 2 24 -13 13 -24 21 2 0.21029361D-01 0.60736515D-01 0.31365340D+05 0.31365340D+05 0.31365340D+05 0.11655468D+01  1  2 11  1  7  1       -2 0.261113231079D-01 0.100000000000D+01
0.680756007194D-08 0.000000000000D+00 0.000000000000D+00 0.136320702566D-07 0.000000000000D+00  7 21 2 24 -13 13 -24 2 2 0.21037920D-01 0.60683851D-01 0.31365340D+05 0.31365340D+05 0.31365340D+05 0.11655468D+01  1  2 12  3  7  1       -2 0.212647810716D-04 0.100000000000D+01
-.961804338468D-06 0.000000000000D+00 -.328756985988D-07 0.136320702566D-07 0.000000000000D+00  7 21 2 24 -13 13 -24 2 2 0.21040347D-01 0.60683851D-01 0.30844851D+05 0.30844851D+05 0.30844851D+05 0.11662185D+01  1  2  5  3  7  1       -2 -.300772463975D-02 0.100000000000D+01
0.799006273491D-06 0.000000000000D+00 0.000000000000D+00 0.136320702566D-07 0.975669552169D-10  7 21 2 24 -13 13 -24 2 2 0.21029361D-01 0.60736515D-01 0.31365340D+05 0.31365340D+05 0.31365340D+05 0.11655468D+01  1  2 11  3  7  1       -2 0.249539060767D-02 0.100000000000D+01
  </mgrwgt>
  </event>
  <event>
  8     66 0.27011060E-05 0.40049900E+03 0.75467711E-02 0.92064200E-01
       -2 -1    0    0    0  501 0.00000000E+00 0.00000000E+00 0.20052043E+03 0.20052068E+03 0.32000000E+00 0.0000E+00 0.9000E+01
        2 -1    0    0  501    0 0.00000000E+00 0.00000000E+00 -.22696188E+04 0.22696189E+04 0.32000000E+00 0.0000E+00 0.9000E+01
       25  2    1    2    0    0 0.30887209E+03 0.50629577E+03 -.65109910E+03 0.93052055E+03 0.30033494E+03 0.0000E+00 0.0000E+00
       23  2    1    2    0    0 -.30887209E+03 -.50629577E+03 -.14179993E+04 0.15396190E+04 0.89259405E+02 0.0000E+00 0.0000E+00
       24  1    3    3    0    0 0.16920726E+03 0.45216434E+03 -.42913464E+03 0.65092814E+03 0.80419002E+02 0.0000E+00 0.9000E+01
      -13  1    4    4    0    0 -.12138959E+03 -.15979750E+03 -.57737339E+03 0.61125340E+03 0.10565837E+00 0.0000E+00 0.9000E+01
       13  1    4    4    0    0 -.18748250E+03 -.34649827E+03 -.84062593E+03 0.92836561E+03 0.10565837E+00 0.0000E+00 0.9000E+01
      -24  1    3    3    0    0 0.13966483E+03 0.54131428E+02 -.22196446E+03 0.27959241E+03 0.80419002E+02 0.0000E+00 0.9000E+01
#aMCatNLO 1  0  0  2  1 0.73193477D+01 0.00000000D+00  -5  7  0 0.00000000D+00 0.00000000D+00 0.00000000D+00 0.00000000D+00 0.00000000D+00
  <mgrwgt>
 0.7852350878D-03    8    2    0
 0.674614916942485D+03 0.000000000000000D+00 0.000000000000000D+00 0.674614916942485D+03
 0.674614916942485D+03 0.000000000000000D+00 0.000000000000000D+00 -.674614916942485D+03
 0.533609267039540D+03 0.169207260835467D+03 0.452164343395367D+03 0.212574559527944D+03
 0.233643285066240D+03 -.121389498233967D+03 -.159797235863212D+03 -.119660426982053D+03
 0.410497270869145D+03 -.187482591241692D+03 -.346498535282231D+03 -.115312845856762D+03
 0.171480010910045D+03 0.139664828640192D+03 0.541314277500765D+02 0.223987133108702D+02
 0.000000000000000D+00 0.000000000000000D+00 -.000000000000000D+00 0.000000000000000D+00
 0.679020819946885D+03 0.000000000000000D+00 0.000000000000000D+00 0.679020819946885D+03
 0.677671541430581D+03 0.000000000000000D+00 0.000000000000000D+00 -.677671541430581D+03
 0.535574491765064D+03 0.168162263863184D+03 0.454869574635352D+03 0.212574559527944D+03
 0.233075372977005D+03 -.121845658908451D+03 -.158616351956563D+03 -.119660426982053D+03
 0.409116373826920D+03 -.188283663807653D+03 -.344424762258566D+03 -.115312845856762D+03
 0.171483448292822D+03 0.139329623607831D+03 0.549991882789553D+02 0.223987133108702D+02
 0.744267451565480D+01 0.263743524508887D+01 -.682764869917746D+01 0.134927851630442D+01
0.126576492730D-03 0.000000000000D+00 0.000000000000D+00 0.207258232964D-05 0.000000000000D+00  7 -2 2 24 -13 13 -24 21 0 0.30849318D-01 0.34917215D+00 0.39318777D+06 0.39318777D+06 0.39318777D+06 0.10759658D+01  1  2  2  2  7  2        2 0.722968990738D-03 0.100000000000D+01
-.698631399502D-05 0.000000000000D+00 -.486087060438D-06 0.207258232964D-05 0.000000000000D+00  7 -2 2 24 -13 13 -24 21 2 0.30849318D-01 0.34917215D+00 0.39318777D+06 0.39318777D+06 0.39318777D+06 0.10759658D+01  1  2  3  2  7  2        2 -.461967754709D-04 0.100000000000D+01
0.770118503376D-05 0.000000000000D+00 0.000000000000D+00 0.207258232964D-05 0.000000000000D+00  7 -2 2 24 -13 13 -24 21 2 0.30849318D-01 0.34917215D+00 0.39318777D+06 0.39318777D+06 0.39318777D+06 0.10759658D+01  1  2 15  2  7  2        2 0.509238371074D-04 0.100000000000D+01
0.263482770246D-04 0.000000000000D+00 0.000000000000D+00 0.207258232964D-05 0.000000000000D+00  7 -2 2 24 -13 13 -24 21 2 0.30849318D-01 0.35188817D+00 0.39781897D+06 0.39781897D+06 0.39781897D+06 0.10755988D+01  1  2 12  2  7  2        2 0.170054974009D-03 0.100000000000D+01
-.433348682097D-04 0.000000000000D+00 0.000000000000D+00 0.207258232964D-05 0.000000000000D+00  7 -2 2 24 -13 13 -24 21 2 0.30849318D-01 0.34917215D+00 0.39318777D+06 0.39318777D+06 0.39318777D+06 0.10759658D+01  1  2  4  2  7  2        2 -.286550415307D-03 0.100000000000D+01
0.266469906774D-04 0.000000000000D+00 0.000000000000D+00 0.207258232964D-05 0.238715675674D-06  7 -2 2 24 -13 13 -24 21 2 0.31050795D-01 0.35075422D+00 0.39781897D+06 0.39781897D+06 0.39781897D+06 0.10755988D+01  1  2 11  2  7  2        2 0.171625168575D-03 0.100000000000D+01
0.253015996952D-05 0.000000000000D+00 0.000000000000D+00 0.207258232964D-05 0.000000000000D+00  7 -2 21 24 -13 13 -24 -2 2 0.30849318D-01 0.35188817D+00 0.39781897D+06 0.39781897D+06 0.39781897D+06 0.10755988D+01  1  2 12  4  7  2        2 0.235175165600D-05 0.100000000000D+01
0.615707822310D-07 0.000000000000D+00 0.000000000000D+00 0.207258232964D-05 0.202191751090D-09  7 -2 21 24 -13 13 -24 -2 2 0.31050795D-01 0.35075422D+00 0.39781897D+06 0.39781897D+06 0.39781897D+06 0.10755988D+01  1  2 11  4  7  2        2 0.575564622354D-07 0.100000000000D+01
  </mgrwgt>
  </event>
  <event>
  8     66 0.27011060E-05 0.47900263E+03 0.75467711E-02 0.92426058E-01
       -2 -1    0    0    0  501 0.00000000E+00 0.00000000E+00 0.13774145E+03 0.13774182E+03 0.32000000E+00 0.0000E+00 0.9000E+01
        2 -1    0    0  501    0 0.00000000E+00 0.00000000E+00 -.27538302E+04 0.27538302E+04 0.32000000E+00 0.0000E+00 0.9000E+01
       25  2    1    2    0    0 0.54600104E+03 0.16541710E+03 -.15553215E+04 0.16836572E+04 0.30032739E+03 0.0000E+00 0.0000E+00
       23  2    1    2    0    0 -.54600104E+03 -.16541710E+03 -.10607672E+04 0.12079149E+04 0.91385143E+02 0.0000E+00 0.0000E+00
       24  1    3    3    0    0 0.10756464E+03 0.14135379E+03 -.39709212E+03 0.44238040E+03 0.80419002E+02 0.0000E+00 0.9000E+01
      -13  1    4    4    0    0 -.38378019E+03 -.71665323E+02 -.71470803E+03 0.81438979E+03 0.10565837E+00 0.0000E+00 0.9000E+01
       13  1    4    4    0    0 -.16222085E+03 -.93751778E+02 -.34605921E+03 0.39352508E+03 0.10565837E+00 0.0000E+00 0.9000E+01
      -24  1    3    3    0    0 0.43843639E+03 0.24063315E+02 -.11582294E+04 0.12412768E+04 0.80419002E+02 0.0000E+00 0.9000E+01
#aMCatNLO 1  0  0  2  2 0.60755271D+00 0.00000000D+00  -5  7  0 0.00000000D+00 0.00000000D+00 0.00000000D+00 0.00000000D+00 0.00000000D+00
  <mgrwgt>
 0.3380438199D-03   10    2    0
 0.615887275887724D+03 0.000000000000000D+00 0.000000000000000D+00 0.615887275887724D+03
 0.615887275887724D+03 0.000000000000000D+00 0.000000000000000D+00 -.615887275887724D+03
 0.195122192782296D+03 0.107564641232323D+03 0.141353785991127D+03 0.737626628703666D+01
 0.393844356525127D+03 -.383780486220067D+03 -.716652935521948D+02 0.518652220997628D+02
 0.188820405244260D+03 -.162220549699113D+03 -.937518072748863D+02 0.234144682753395D+02
 0.453987597223765D+03 0.438436394686857D+03 0.240633148359539D+02 -.826559566621389D+02
 0.000000000000000D+00 -.000000000000000D+00 -.000000000000000D+00 -.000000000000000D+00
 0.616120757115193D+03 0.000000000000000D+00 0.000000000000000D+00 0.616120757115193D+03
 0.616282713181725D+03 0.000000000000000D+00 0.000000000000000D+00 -.616282713181725D+03
 0.195207043922959D+03 0.107601924895349D+03 0.141442534257725D+03 0.737626628703666D+01
 0.393738499405334D+03 -.383705257487386D+03 -.714862226379679D+02 0.518652220997628D+02
 0.188746805812464D+03 -.162184485045629D+03 -.936659606808970D+02 0.234144682753395D+02
 0.454082352467416D+03 0.438523132165951D+03 0.242697806253609D+02 -.826559566621389D+02
 0.628768688744533D+00 -.235314528284756D+00 -.560131564221313D+00 -.161956066532339D+00
0.979016156906D-05 0.000000000000D+00 0.000000000000D+00 0.129048297319D-05 0.000000000000D+00  7 -2 2 24 -13 13 -24 21 0 0.21191023D-01 0.42366622D+00 0.37158769D+06 0.37158769D+06 0.37158769D+06 0.10777420D+01  1  2  2  2  7  2        2 0.562339248160D-04 0.100000000000D+01
-.543827791090D-06 0.000000000000D+00 -.375967982339D-07 0.129048297319D-05 0.000000000000D+00  7 -2 2 24 -13 13 -24 21 2 0.21191023D-01 0.42366622D+00 0.37158769D+06 0.37158769D+06 0.37158769D+06 0.10777420D+01  1  2  3  2  7  2        2 -.362826960031D-05 0.100000000000D+01
0.601791140755D-06 0.000000000000D+00 0.000000000000D+00 0.129048297319D-05 0.000000000000D+00  7 -2 2 24 -13 13 -24 21 2 0.21191023D-01 0.42366622D+00 0.37158769D+06 0.37158769D+06 0.37158769D+06 0.10777420D+01  1  2 15  2  7  2        2 0.401498514329D-05 0.100000000000D+01
-.153112589928D-02 0.000000000000D+00 0.000000000000D+00 0.129048297319D-05 0.000000000000D+00  7 -2 2 24 -13 13 -24 21 2 0.21191023D-01 0.42366622D+00 0.37158769D+06 0.37158769D+06 0.37158769D+06 0.10777420D+01  1  2  4  2  7  2        2 -.102152513086D-01 0.100000000000D+01
-.155311383062D-01 0.000000000000D+00 -.103919198745D-02 0.129048297319D-05 0.000000000000D+00  7 -2 2 24 -13 13 -24 21 2 0.21191023D-01 0.42399681D+00 0.37158769D+06 0.37158769D+06 0.37158769D+06 0.10777420D+01  1  2  5  2  7  2        2 -.103309481916D+00 0.100000000000D+01
0.155319444742D-01 0.000000000000D+00 0.103919167132D-02 0.129048297319D-05 0.000000000000D+00  7 -2 2 24 -13 13 -24 21 2 0.21191023D-01 0.42366622D+00 0.37158769D+06 0.37158769D+06 0.37158769D+06 0.10777420D+01  1  2  6  2  7  2        2 0.103624865983D+00 0.100000000000D+01
0.153112791549D-02 0.000000000000D+00 0.000000000000D+00 0.129048297319D-05 0.216564839300D-04  7 -2 2 24 -13 13 -24 21 2 0.21199056D-01 0.42393824D+00 0.37195833D+06 0.37195833D+06 0.37195833D+06 0.10777106D+01  1  2 11  2  7  2        2 0.101824543437D-01 0.100000000000D+01
0.459803156556D-14 0.000000000000D+00 0.000000000000D+00 0.129048297319D-05 0.000000000000D+00  7 -2 21 24 -13 13 -24 -2 2 0.21191023D-01 0.42401850D+00 0.37195833D+06 0.37195833D+06 0.37195833D+06 0.10777106D+01  1  2 12  4  7  2        2 0.267354122315D-14 0.100000000000D+01
-.226855633208D-05 0.000000000000D+00 -.151805467487D-06 0.129048297319D-05 0.000000000000D+00  7 -2 21 24 -13 13 -24 -2 2 0.21191023D-01 0.42399681D+00 0.37158769D+06 0.37158769D+06 0.37158769D+06 0.10777420D+01  1  2  5  4  7  2        2 -.131974436818D-05 0.100000000000D+01
0.267809070659D-06 0.000000000000D+00 0.000000000000D+00 0.129048297319D-05 0.260556864430D-08  7 -2 21 24 -13 13 -24 -2 2 0.21199056D-01 0.42393824D+00 0.37195833D+06 0.37195833D+06 0.37195833D+06 0.10777106D+01  1  2 11  4  7  2        2 0.155822119979D-06 0.100000000000D+01
  </mgrwgt>
  </event>
  <event>
  8     66 0.27011060E-05 0.29617657E+03 0.75467711E-02 0.93276771E-01
       -2 -1    0    0    0  501 0.00000000E+00 0.00000000E+00 0.16140838E+03 0.16140870E+03 0.32000000E+00 0.0000E+00 0.9000E+01
        2 -1    0    0  501    0 0.00000000E+00 0.00000000E+00 -.22073119E+04 0.22073119E+04 0.32000000E+00 0.0000E+00 0.9000E+01
       25  2    1    2    0    0 0.22172318E+03 0.43765057E+02 -.73265105E+02 0.38049138E+03 0.29720257E+03 0.0000E+00 0.0000E+00
       23  2    1    2    0    0 -.22172318E+03 -.43765057E+02 -.19726384E+04 0.19882292E+04 0.10332783E+03 0.0000E+00 0.0000E+00
       24  1    3    3    0    0 -.17103120E+02 -.48016739E+02 0.18573760E+02 0.97006827E+02 0.80419002E+02 0.0000E+00 0.9000E+01
      -13  1    4    4    0    0 -.24978641E+02 0.66403379E+01 -.67229655E+02 0.72026830E+02 0.10565837E+00 0.0000E+00 0.9000E+01
       13  1    4    4    0    0 -.19674454E+03 -.50405395E+02 -.19054087E+04 0.19162024E+04 0.10565837E+00 0.0000E+00 0.9000E+01
      -24  1    3    3    0    0 0.23882630E+03 0.91781795E+02 -.91838865E+02 0.28348455E+03 0.80419002E+02 0.0000E+00 0.9000E+01
#aMCatNLO 1  0  0  1  2 0.52207405D+03 0.00000000D+00  -5  7  0 0.00000000D+00 0.00000000D+00 0.00000000D+00 0.00000000D+00 0.00000000D+00
  <mgrwgt>
 0.1237460778D-02    5    2    0
 0.596891143210504D+03 0.000000000000000D+00 0.000000000000000D+00 0.596891143210504D+03
 0.596891143210504D+03 0.000000000000000D+00 0.000000000000000D+00 -.596891143210504D+03
 0.224314092345347D+03 -.171031196685334D+02 -.480167384639985D+02 0.203104584377680D+03
 0.276980263234843D+02 -.249784595530996D+02 0.664039666314873D+01 -.995802956044206D+01
 0.536669293971122D+03 -.196744719251652D+03 -.504054536223123D+02 -.496754201575770D+03
 0.405100873781054D+03 0.238826298473285D+03 0.917817954231621D+02 0.303607646758532D+03
 0.000000000000000D+00 -.000000000000000D+00 -.000000000000000D+00 0.000000000000000D+00
 0.101683017430212D+04 0.000000000000000D+00 0.000000000000000D+00 0.101683017430212D+04
 0.837978983020115D+03 0.000000000000000D+00 0.000000000000000D+00 -.837978983020115D+03
 0.232334497290156D+03 0.753508205470002D+02 -.241429974187730D+02 0.203104584377680D+03
 0.203801507672705D+02 -.152444605628290D+02 0.915393984677566D+01 -.995802956044206D+01
 0.496925187899805D+03 0.125187813983252D+02 0.363121169544699D+01 -.496754201575770D+03
 0.553309685764448D+03 0.432867919503766D+03 0.141887820127766D+03 0.303607646758532D+03
 0.551859635600555D+03 -.505493060886262D+03 -.130529974251215D+03 0.178851191282005D+03
0.103456023244D-03 0.000000000000D+00 0.000000000000D+00 0.733536623805D-08 0.000000000000D+00  7 -2 2 24 -13 13 -24 21 0 0.24832085D-01 0.33958647D+00 0.87720561D+05 0.87720561D+05 0.87720561D+05 0.11264214D+01  1  2  2  1  7  1       -2 0.100354047343D-02 0.100000000000D+01
-.231571805641D-05 0.000000000000D+00 -.397298369854D-06 0.733536623805D-08 0.000000000000D+00  7 -2 2 24 -13 13 -24 21 2 0.24832085D-01 0.33958647D+00 0.87720561D+05 0.87720561D+05 0.87720561D+05 0.11264214D+01  1  2  3  1  7  1       -2 -.285014228791D-04 0.100000000000D+01
0.601881803080D-05 0.000000000000D+00 0.000000000000D+00 0.733536623805D-08 0.000000000000D+00  7 -2 2 24 -13 13 -24 21 2 0.24832085D-01 0.33958647D+00 0.87720561D+05 0.87720561D+05 0.87720561D+05 0.11264214D+01  1  2 15  1  7  1       -2 0.740784818140D-04 0.100000000000D+01
0.341791913258D-04 0.000000000000D+00 -.311944667098D-04 0.733536623805D-08 0.000000000000D+00  7 -2 2 24 -13 13 -24 21 2 0.64417641D-01 0.33958647D+00 0.87720561D+05 0.87720561D+05 0.87720561D+05 0.11264214D+01  1  2  5  1  7  1       -2 0.707810729456D-04 0.100000000000D+01
0.549086439021D-05 0.000000000000D+00 -.329340669624D-05 0.733536623805D-08 0.000000000000D+00  7 21 2 24 -13 13 -24 2 2 0.64417641D-01 0.33958647D+00 0.87720561D+05 0.87720561D+05 0.87720561D+05 0.11264214D+01  1  2  5  3  7  1       -2 0.117562173086D-03 0.100000000000D+01
  </mgrwgt>
  </event>
  <event>
  9     66 0.27011060E-05 0.23147253E+03 0.75467711E-02 0.10355199E+00
       -2 -1    0    0    0  501 0.00000000E+00 0.00000000E+00 0.74092474E+02 0.74093165E+02 0.32000000E+00 0.0000E+00 0.9000E+01
        2 -1    0    0  502    0 0.00000000E+00 0.00000000E+00 -.14056157E+04 0.14056157E+04 0.32000000E+00 0.0000E+00 0.9000E+01
       25  2    1    2    0    0 0.16480793E+03 0.82553069E+02 -.52019732E+03 0.62849228E+03 0.30070024E+03 0.0000E+00 0.0000E+00
       23  2    1    2    0    0 -.17500786E+03 -.10639968E+03 -.77347251E+03 0.80532389E+03 0.91313758E+02 0.0000E+00 0.0000E+00
       24  1    3    3    0    0 0.10033081E+03 0.78537474E+01 -.47696342E+03 0.49405392E+03 0.80419002E+02 0.0000E+00 0.9000E+01
      -13  1    4    4    0    0 -.14930669E+03 -.98015309E+02 -.74480259E+03 0.76591801E+03 0.10565837E+00 0.0000E+00 0.9000E+01
       13  1    4    4    0    0 -.25701174E+02 -.83843724E+01 -.28669919E+02 0.39405881E+02 0.10565837E+00 0.0000E+00 0.9000E+01
      -24  1    3    3    0    0 0.64477118E+02 0.74699322E+02 -.43233895E+02 0.13443836E+03 0.80419002E+02 0.0000E+00 0.9000E+01
       21  1    1    2  502  501 0.10199931E+02 0.23846613E+02 -.37853354E+02 0.45892684E+02 0.75000000E+00 0.0000E+00 0.9000E+01
#aMCatNLO 2  0  0  2  2 0.25936452D+02 0.00000000D+00  -5  7  0 0.00000000D+00 0.00000000D+00 0.00000000D+00 0.00000000D+00 0.00000000D+00
  <mgrwgt>
 0.9204786552D-03    2    2    0
 0.308858582714592D+03 0.000000000000000D+00 0.000000000000000D+00 0.308858582714592D+03
 0.308858582714592D+03 0.000000000000000D+00 0.000000000000000D+00 -.308858582714592D+03
 0.149841983098778D+03 0.102786712786826D+03 0.135954384115773D+02 -.723564763755072D+02
 0.211742360899547D+03 -.145762053885172D+03 -.897279702135650D+02 -.124648074224369D+03
 0.306760807444763D+02 -.251887539717384D+02 -.718664275727795D+01 0.159656120794702D+02
 0.225456740686382D+03 0.681640950700841D+02 0.833191745592657D+02 0.181038938520406D+03
 0.000000000000000D+00 0.000000000000000D+00 0.000000000000000D+00 0.000000000000000D+00
 0.326858381294967D+03 0.000000000000000D+00 0.000000000000000D+00 0.326858381294967D+03
 0.318617292639394D+03 0.000000000000000D+00 0.000000000000000D+00 -.318617292639394D+03
 0.147751918493516D+03 0.100330814977560D+03 0.785374793352277D+01 -.723564763755072D+02
 0.217799687921672D+03 -.149306855613445D+03 -.980154299983414D+02 -.124648074224369D+03
 0.313964695578336D+02 -.257010085558792D+02 -.838425255073268D+01 0.159656120794702D+02
 0.221313354159369D+03 0.644771186525345D+02 0.746993218481380D+02 0.181038938520406D+03
 0.272142438019701D+02 0.101999305392293D+02 0.238466127674133D+02 0.824108865557232D+01
-.277506332579D-06 0.000000000000D+00 0.000000000000D+00 0.745581312941D-06 0.000000000000D+00  7 -2 2 24 -13 13 -24 21 2 0.10770998D-01 0.20962192D+00 0.53579530D+05 0.53579530D+05 0.53579530D+05 0.11446634D+01  1  2  8  2  7  2        2 -.388252093758D-04 0.100000000000D+01
0.795769249552D-05 0.000000000000D+00 0.000000000000D+00 0.745581312941D-06 0.771060992858D-08  7 -2 2 24 -13 13 -24 21 2 0.11398715D-01 0.21624514D+00 0.59461382D+05 0.59461382D+05 0.59461382D+05 0.11407334D+01  1  2  1  2  7  2        2 0.959303864540D-03 0.100000000000D+01
  </mgrwgt>
  </event>
  <event>
  8     66 0.27011060E-05 0.96869058E+02 0.75467711E-02 0.10419984E+00
       -2 -1    0    0    0  501 0.00000000E+00 0.00000000E+00 0.38538574E+02 0.38539903E+02 0.32000000E+00 0.0000E+00 0.9000E+01
        2 -1    0    0  501    0 0.00000000E+00 0.00000000E+00 -.10812429E+04 0.10812429E+04 0.32000000E+00 0.0000E+00 0.9000E+01
       25  2    1    2    0    0 -.35629891E+02 0.10587305E+02 -.86918196E+03 0.92019904E+03 0.29984564E+03 0.0000E+00 0.0000E+00
       23  2    1    2    0    0 0.35629891E+02 -.10587305E+02 -.17352235E+03 0.19958380E+03 0.91335135E+02 0.0000E+00 0.0000E+00
       24  1    3    3    0    0 0.19249498E+02 0.11794153E+03 -.29900344E+03 0.33189007E+03 0.80419002E+02 0.0000E+00 0.9000E+01
      -11  1    4    4    0    0 0.35772567E+02 -.46788893E+02 -.80340408E+02 0.99616556E+02 0.51099893E-03 0.0000E+00 0.9000E+01
       11  1    4    4    0    0 -.14267580E+00 0.36201589E+02 -.93181947E+02 0.99967248E+02 0.51099893E-03 0.0000E+00 0.9000E+01
      -24  1    3    3    0    0 -.54879389E+02 -.10735422E+03 -.57017853E+03 0.58830897E+03 0.80419002E+02 0.0000E+00 0.9000E+01
#aMCatNLO 1  0  0  1  2 0.75957897D+02 0.00000000D+00  -5  7  0 0.00000000D+00 0.00000000D+00 0.00000000D+00 0.00000000D+00 0.00000000D+00
  <mgrwgt>
 0.1678144071D-02    9    2    0
 0.204133117473374D+03 0.000000000000000D+00 0.000000000000000D+00 0.204133117473374D+03
 0.204133117473374D+03 0.000000000000000D+00 0.000000000000000D+00 -.204133117473374D+03
 0.146650946250667D+03 0.192494973940651D+02 0.117941525117545D+03 0.275415610463319D+02
 0.680380046711146D+02 0.357725670642148D+02 -.467888933137990D+02 0.340630736683113D+02
 0.362028230539980D+02 -.142675619163732D+00 0.362015885398074D+02 -.262731690649858D+00
 0.157374460970968D+03 -.548793888391162D+02 -.107354220343553D+03 -.613419030239933D+02
 0.000000000000000D+00 0.000000000000000D+00 -.000000000000000D+00 0.000000000000000D+00
 0.269856662673017D+03 0.000000000000000D+00 0.000000000000000D+00 0.269856662673017D+03
 0.230818089488658D+03 0.000000000000000D+00 0.000000000000000D+00 -.230818089488658D+03
 0.161135144155477D+03 -.190136410655133D+01 0.136876462393288D+03 0.275415610463319D+02
 0.584405403472377D+02 0.270810430744444D+02 -.390079591153446D+02 0.340630736683113D+02
 0.413362887710243D+02 -.547111334332387D+01 0.409717788264647D+02 -.262731690649858D+00
 0.154360131079547D+03 -.763015888245383D+02 -.881763720549354D+02 -.613419030239933D+02
 0.854026478083898D+02 0.565930231999691D+02 -.506639100494726D+02 0.390385731843592D+02
0.366109959232D-05 0.000000000000D+00 0.000000000000D+00 0.338278206039D-06 0.000000000000D+00  7 -2 2 24 -11 11 -24 21 0 0.59291172D-02 0.16634517D+00 0.36877013D+05 0.36877013D+05 0.36877013D+05 0.11591097D+01  1  2  2  1  7  1       -2 0.137651268605D-02 0.100000000000D+01
-.202471192083D-06 0.000000000000D+00 -.140595864242D-07 0.338278206039D-06 0.000000000000D+00  7 -2 2 24 -11 11 -24 21 2 0.59291172D-02 0.16634517D+00 0.36877013D+05 0.36877013D+05 0.36877013D+05 0.11591097D+01  1  2  3  1  7  1       -2 -.102277713883D-03 0.100000000000D+01
0.221324306706D-06 0.000000000000D+00 0.000000000000D+00 0.338278206039D-06 0.000000000000D+00  7 -2 2 24 -11 11 -24 21 2 0.59291172D-02 0.16634517D+00 0.36877013D+05 0.36877013D+05 0.36877013D+05 0.11591097D+01  1  2 15  1  7  1       -2 0.111801308046D-03 0.100000000000D+01
0.214598215029D-05 0.000000000000D+00 0.000000000000D+00 0.338278206039D-06 0.000000000000D+00  7 -2 2 24 -11 11 -24 21 2 0.81278017D-02 0.16634517D+00 0.54100998D+05 0.54100998D+05 0.54100998D+05 0.11442962D+01  1  2 12  1  7  1       -2 0.662048667491D-03 0.100000000000D+01
-.256002623353D-05 0.000000000000D+00 0.000000000000D+00 0.338278206039D-06 0.000000000000D+00  7 -2 2 24 -11 11 -24 21 2 0.59291172D-02 0.16634517D+00 0.36877013D+05 0.36877013D+05 0.36877013D+05 0.11591097D+01  1  2  4  1  7  1       -2 -.129318955428D-02 0.100000000000D+01
-.384675163747D-05 0.000000000000D+00 -.150921689787D-05 0.338278206039D-06 0.000000000000D+00  7 -2 2 24 -11 11 -24 21 2 0.88912022D-02 0.16634517D+00 0.36877013D+05 0.36877013D+05 0.36877013D+05 0.11591097D+01  1  2  5  1  7  1       -2 -.106114996879D-02 0.100000000000D+01
0.422280043479D-05 0.000000000000D+00 0.139327230196D-05 0.338278206039D-06 0.000000000000D+00  7 -2 2 24 -11 11 -24 21 2 0.59291172D-02 0.16634517D+00 0.36877013D+05 0.36877013D+05 0.36877013D+05 0.11591097D+01  1  2  6  1  7  1       -2 0.213313494236D-02 0.100000000000D+01
0.860075252011D-07 0.000000000000D+00 0.000000000000D+00 0.338278206039D-06 0.000000000000D+00  7 21 2 24 -11 11 -24 2 2 0.81278017D-02 0.16634517D+00 0.54100998D+05 0.54100998D+05 0.54100998D+05 0.11442962D+01  1  2 12  3  7  1       -2 0.405729214745D-03 0.100000000000D+01
-.132429606139D-06 0.000000000000D+00 -.725218627941D-07 0.338278206039D-06 0.000000000000D+00  7 21 2 24 -11 11 -24 2 2 0.88912022D-02 0.16634517D+00 0.36877013D+05 0.36877013D+05 0.36877013D+05 0.11591097D+01  1  2  5  3  7  1       -2 -.554465510924D-03 0.100000000000D+01
  </mgrwgt>
  </event>
  <event>
  8     66 0.27011060E-05 0.40259306E+03 0.75467711E-02 0.94812347E-01
       -4 -1    0    0    0  501 0.00000000E+00 0.00000000E+00 0.14484594E+03 0.14485424E+03 0.15500000E+01 0.0000E+00 0.9000E+01
        4 -1    0    0  501    0 0.00000000E+00 0.00000000E+00 -.11351976E+04 0.11351987E+04 0.15500000E+01 0.0000E+00 0.9000E+01
       25  2    1    2    0    0 0.29864699E+03 -.16960456E+03 -.55288935E+03 0.71704415E+03 0.30084871E+03 0.0000E+00 0.0000E+00
       23  2    1    2    0    0 -.29864699E+03 0.16960456E+03 -.43746235E+03 0.56300879E+03 0.87463449E+02 0.0000E+00 0.0000E+00
       24  1    3    3    0    0 0.18150911E+03 -.22851538E+03 -.37197501E+03 0.47958051E+03 0.80419002E+02 0.0000E+00 0.9000E+01
      -13  1    4    4    0    0 -.29907678E+03 0.16025930E+03 -.43749476E+03 0.55365300E+03 0.10565837E+00 0.0000E+00 0.9000E+01
       13  1    4    4    0    0 0.42978490E+00 0.93452575E+01 0.32416573E-01 0.93557879E+01 0.10565837E+00 0.0000E+00 0.9000E+01
      -24  1    3    3    0    0 0.11713788E+03 0.58910821E+02 -.18091434E+03 0.23746364E+03 0.80419002E+02 0.0000E+00 0.9000E+01
#aMCatNLO 1  0  0  1  1 0.16277673D+03 0.00000000D+00  -5  7  0 0.00000000D+00 0.00000000D+00 0.00000000D+00 0.00000000D+00 0.00000000D+00
  <mgrwgt>
 0.2812302750D-04    3    2    0
 0.405505559134640D+03 0.000000000000000D+00 0.000000000000000D+00 0.405505559134640D+03
 0.405505559134640D+03 0.000000000000000D+00 0.000000000000000D+00 -.405505559134640D+03
 0.302711452631134D+03 0.181509115105346D+03 -.228515382504504D+03 -.147264801461334D+01
 0.339615379485387D+03 -.299077213898496D+03 0.160259525162843D+03 -.144329728156262D+02
 0.148057440931789D+02 0.430221905816680D+00 0.934503724624618D+01 0.114758549193832D+02
 0.153878542059580D+03 0.117137876887334D+03 0.589108200954154D+02 0.442976591085635D+01
 0.000000000000000D+00 -.000000000000000D+00 0.000000000000000D+00 -.000000000000000D+00
 0.421951323070272D+03 0.000000000000000D+00 0.000000000000000D+00 0.421951323070272D+03
 0.120606429500970D+04 0.000000000000000D+00 0.000000000000000D+00 -.120606429500970D+04
 0.363449156430441D+03 0.238489162236081D+03 -.262199969792878D+03 -.147264801461334D+01
 0.278346296832724D+03 -.246219862439070D+03 0.129012129649424D+03 -.144329728156262D+02
 0.142208555966806D+02 0.291301208565495D+01 0.787729956011205D+01 0.114758549193832D+02
 0.171168855703089D+03 0.144940805779107D+03 0.424747125053564D+02 0.442976591085635D+01
 0.800830453517036D+03 -.140123117661773D+03 0.828358280779850D+02 -.784112971939427D+03
0.463685732818D-04 0.000000000000D+00 0.000000000000D+00 0.957092478944D-07 0.000000000000D+00  7 -4 4 24 -13 13 -24 21 0 0.22284711D-01 0.17464651D+00 0.16208118D+06 0.16208118D+06 0.16208118D+06 0.11049069D+01  1  2  2  1  7  1       -4 0.277752394420D-04 0.100000000000D+01
-.257586910757D-05 0.000000000000D+00 -.178067530528D-06 0.957092478944D-07 0.000000000000D+00  7 -4 4 24 -13 13 -24 21 2 0.22284711D-01 0.17464651D+00 0.16208118D+06 0.16208118D+06 0.16208118D+06 0.11049069D+01  1  2  3  1  7  1       -4 -.188368905766D-05 0.100000000000D+01
0.305145529784D-05 0.000000000000D+00 0.000000000000D+00 0.957092478944D-07 0.000000000000D+00  7 -4 4 24 -13 13 -24 21 2 0.22284711D-01 0.17464651D+00 0.16208118D+06 0.16208118D+06 0.16208118D+06 0.11049069D+01  1  2 15  1  7  1       -4 0.223147711100D-05 0.100000000000D+01
  </mgrwgt>
  </event>
  <event>
  9     66 -.27011060E-05 0.28374759E+03 0.75467711E-02 0.10117498E+00
       -2 -1    0    0    0  502 0.00000000E+00 0.00000000E+00 0.21170243E+03 0.21170268E+03 0.32000000E+00 0.0000E+00 0.9000E+01
        2 -1    0    0  501    0 0.00000000E+00 0.00000000E+00 -.44626085E+03 0.44626096E+03 0.32000000E+00 0.0000E+00 0.9000E+01
       25  2    1    2    0    0 0.14346197E+03 -.11467550E+03 -.23306056E+03 0.42240107E+03 0.30062207E+03 0.0000E+00 0.0000E+00
       23  2    1    2    0    0 -.15854084E+03 0.11646262E+03 0.87807022E+01 0.21721108E+03 0.91677779E+02 0.0000E+00 0.0000E+00
       24  1    3    3    0    0 0.47987532E+02 0.77773265E+02 -.97380656E+02 0.15589000E+03 0.80419002E+02 0.0000E+00 0.9000E+01
      -11  1    4    4    0    0 0.94829578E+01 -.37068603E+01 0.27620779E+01 0.10549710E+02 0.51099893E-03 0.0000E+00 0.9000E+01
       11  1    4    4    0    0 -.16802379E+03 0.12016948E+03 0.60186243E+01 0.20666137E+03 0.51099893E-03 0.0000E+00 0.9000E+01
      -24  1    3    3    0    0 0.95474442E+02 -.19244877E+03 -.13567990E+03 0.26651107E+03 0.80419002E+02 0.0000E+00 0.9000E+01
       21  1    1    2  501  502 0.15078862E+02 -.17871180E+01 -.10278559E+02 0.18351489E+02 0.75000000E+00 0.0000E+00 0.9000E+01
#aMCatNLO 2  0  0  1  2 0.15184396D+02 0.00000000D+00  -5  7  0 0.00000000D+00 0.00000000D+00 0.00000000D+00 0.00000000D+00 0.00000000D+00
  <mgrwgt>
 -.5724469913D-03    3    2    0
 0.299404277357054D+03 0.000000000000000D+00 0.000000000000000D+00 0.299404277357054D+03
 0.299404277357054D+03 0.000000000000000D+00 0.000000000000000D+00 -.299404277357054D+03
 0.131015540256812D+03 0.512733452370959D+02 0.773838368473912D+02 -.456140515344537D+02
 0.125529565687212D+02 0.979581334838766D+01 -.374393934860896D+01 0.689939690217115D+01
 0.218408064489605D+03 -.162467970598310D+03 0.119511017114781D+03 0.838054768613157D+02
 0.236831993398969D+03 0.101398812012826D+03 -.193150914613563D+03 -.450908222290332D+02
 0.000000000000000D+00 0.000000000000000D+00 -.000000000000000D+00 -.000000000000000D+00
 0.305313106384080D+03 0.000000000000000D+00 0.000000000000000D+00 0.305313106384080D+03
 0.309417190052085D+03 0.000000000000000D+00 0.000000000000000D+00 -.309417190052085D+03
 0.129997467751254D+03 0.479875315873697D+02 0.777732652145393D+02 -.456140515344537D+02
 0.122991454558872D+02 0.948295776820017D+01 -.370686030191508D+01 0.689939690217115D+01
 0.222926125648511D+03 -.168023792957944D+03 0.120169482584927D+03 0.838054768613157D+02
 0.233778305441352D+03 0.954744415937723D+02 -.192448769530301D+03 -.450908222290332D+02
 0.157292521391614D+02 0.150788620086021D+02 -.178711796725044D+01 -.410408366800469D+01
-.134597668811D-04 0.000000000000D+00 0.000000000000D+00 0.609690952238D-06 0.000000000000D+00  7 -2 2 24 -11 11 -24 21 2 0.33088927D-01 0.66431876D-01 0.84989879D+05 0.84989879D+05 0.84989879D+05 0.11275648D+01  1  2 13  1  7  1       -2 -.126387291507D-02 0.100000000000D+01
-.730301892187D-05 0.000000000000D+00 0.000000000000D+00 0.609690952238D-06 0.000000000000D+00  7 -2 2 24 -11 11 -24 21 2 0.31938371D-01 0.66431876D-01 0.80512694D+05 0.80512694D+05 0.80512694D+05 0.11295298D+01  1  2  8  1  7  1       -2 -.732940210285D-03 0.100000000000D+01
0.152882688330D-04 0.000000000000D+00 0.000000000000D+00 0.609690952238D-06 0.179520721942D-07  7 -2 2 24 -11 11 -24 21 2 0.32568684D-01 0.68653543D-01 0.84989879D+05 0.84989879D+05 0.84989879D+05 0.11275648D+01  1  2  1  1  7  1       -2 0.142436613402D-02 0.100000000000D+01
  </mgrwgt>
  </event>
  <event>
  8     66 0.27011060E-05 0.16506632E+03 0.75467711E-02 0.95178909E-01
       -2 -1    0    0    0  501 0.00000000E+00 0.00000000E+00 0.14010078E+03 0.14010114E+03 0.32000000E+00 0.0000E+00 0.9000E+01
        2 -1    0    0  501    0 0.00000000E+00 0.00000000E+00 -.12959919E+04 0.12959919E+04 0.32000000E+00 0.0000E+00 0.9000E+01
       25  2    1    2    0    0 0.82297264E+02 -.31678445E+02 -.42232021E+02 0.31530378E+03 0.29976085E+03 0.0000E+00 0.0000E+00
       23  2    1    2    0    0 -.82297264E+02 0.31678445E+02 -.11136591E+04 0.11207893E+04 0.90308935E+02 0.0000E+00 0.0000E+00
       24  1    3    3    0    0 -.35715403E+02 0.28293123E+01 0.83941118E+02 0.12164260E+03 0.80419002E+02 0.0000E+00 0.9000E+01
      -13  1    4    4    0    0 -.54010927E+02 0.18136252E+01 -.23360610E+03 0.23977550E+03 0.10565837E+00 0.0000E+00 0.9000E+01
       13  1    4    4    0    0 -.28286338E+02 0.29864820E+02 -.88005297E+03 0.88101377E+03 0.10565837E+00 0.0000E+00 0.9000E+01
      -24  1    3    3    0    0 0.11801267E+03 -.34507757E+02 -.12617314E+03 0.19366118E+03 0.80419002E+02 0.0000E+00 0.9000E+01
#aMCatNLO 1  0  0  1  2 0.42834012D+03 0.00000000D+00  -5  7  0 0.00000000D+00 0.00000000D+00 0.00000000D+00 0.00000000D+00 0.00000000D+00
  <mgrwgt>
 0.1357069322D-02    3    2    0
 0.426110031184021D+03 0.000000000000000D+00 0.000000000000000D+00 0.426110031184021D+03
 0.426110031184021D+03 0.000000000000000D+00 0.000000000000000D+00 -.426110031184021D+03
 0.318834178317980D+03 -.357154026092846D+02 0.282931227385584D+01 0.306438284680366D+03
 0.872033953811056D+02 -.540109617691240D+02 0.181358680438482D+01 -.684394555623481D+02
 0.290972501732863D+03 -.282863027218987D+02 0.298648583326140D+02 -.288050294358084D+03
 0.155209986936094D+03 0.118012667100307D+03 -.345077574108547D+02 0.500514652400666D+02
 0.000000000000000D+00 -.000000000000000D+00 0.000000000000000D+00 -.000000000000000D+00
 0.643857597426751D+03 0.000000000000000D+00 0.000000000000000D+00 0.643857597426751D+03
 0.751647076377256D+03 0.000000000000000D+00 0.000000000000000D+00 -.751647076377256D+03
 0.346782231811983D+03 0.418542324466221D+02 -.134664402328859D+03 0.306438284680366D+03
 0.834657256705330D+02 -.341215160856814D+02 -.334408496311418D+02 -.684394555623481D+02
 0.305599034629321D+03 0.412369777382701D+02 -.933665333704087D+02 -.288050294358084D+03
 0.217963413367635D+03 0.161501565561329D+03 -.111592691342498D+03 0.500514652400666D+02
 0.441694268324535D+03 -.210471259660540D+03 0.373064476672907D+03 -.107789478950506D+03
0.319132881653D-04 0.000000000000D+00 0.000000000000D+00 0.351337822519D-05 0.000000000000D+00  7 -2 2 24 -13 13 -24 21 0 0.21553997D-01 0.19938340D+00 0.27246889D+05 0.27246889D+05 0.27246889D+05 0.11712346D+01  1  2  2  1  7  1       -2 0.124322552661D-02 0.100000000000D+01
0.165773038363D-06 0.000000000000D+00 -.122555429517D-06 0.351337822519D-05 0.000000000000D+00  7 -2 2 24 -13 13 -24 21 2 0.21553997D-01 0.19938340D+00 0.27246889D+05 0.27246889D+05 0.27246889D+05 0.11712346D+01  1  2  3  1  7  1       -2 0.885890467304D-05 0.100000000000D+01
0.196453907568D-05 0.000000000000D+00 0.000000000000D+00 0.351337822519D-05 0.000000000000D+00  7 -2 2 24 -13 13 -24 21 2 0.21553997D-01 0.19938340D+00 0.27246889D+05 0.27246889D+05 0.27246889D+05 0.11712346D+01  1  2 15  1  7  1       -2 0.104984891209D-03 0.100000000000D+01
  </mgrwgt>
  </event>
  <event>
  8     66 0.27011060E-05 0.99527116E+02 0.75467711E-02 0.99181850E-01
       -2 -1    0    0    0  501 0.00000000E+00 0.00000000E+00 0.13385796E+03 0.13385834E+03 0.32000000E+00 0.0000E+00 0.9000E+01
        2 -1    0    0  501    0 0.00000000E+00 0.00000000E+00 -.14040365E+04 0.14040365E+04 0.32000000E+00 0.0000E+00 0.9000E+01
       25  2    1    2    0    0 -.67379634E+02 0.13676868E+03 -.13144103E+04 0.13565936E+04 0.29904214E+03 0.0000E+00 0.0000E+00
       23  2    1    2    0    0 0.67379634E+02 -.13676868E+03 0.44231771E+02 0.18130122E+03 0.87567088E+02 0.0000E+00 0.0000E+00
       24  1    3    3    0    0 -.12216979E+03 0.36493612E+02 -.10156056E+04 0.10267323E+04 0.80419002E+02 0.0000E+00 0.9000E+01
      -13  1    4    4    0    0 0.32856898E+01 -.10360345E+03 0.25781964E+02 0.10681382E+03 0.10565837E+00 0.0000E+00 0.9000E+01
       13  1    4    4    0    0 0.64093944E+02 -.33165228E+02 0.18449807E+02 0.74487399E+02 0.10565837E+00 0.0000E+00 0.9000E+01
      -24  1    3    3    0    0 0.54790158E+02 0.10027507E+03 -.29880469E+03 0.32986135E+03 0.80419002E+02 0.0000E+00 0.9000E+01
#aMCatNLO 1  0  0  2  1 0.20401376D+03 0.00000000D+00  -5  7  0 0.00000000D+00 0.00000000D+00 0.00000000D+00 0.00000000D+00 0.00000000D+00
  <mgrwgt>
 0.6213224800D-03    9    2    0
 0.433522523154099D+03 0.000000000000000D+00 0.000000000000000D+00 0.433522523154099D+03
 0.433522523154099D+03 0.000000000000000D+00 0.000000000000000D+00 -.433522523154099D+03
 0.333322803743267D+03 -.122169791684302D+03 0.364936120054732D+02 -.297287123541384D+03
 0.227227184542679D+03 0.328560158033158D+01 -.103603555344606D+03 0.202207075883623D+03
 0.159147727675385D+03 0.640940322915192D+02 -.331651259458896D+02 0.141845086872424D+03
 0.147347330346867D+03 0.547901578124507D+02 0.100275069285023D+03 -.467650392146627D+02
 0.000000000000000D+00 -.000000000000000D+00 -.000000000000000D+00 -.000000000000000D+00
 0.488538677601940D+03 0.000000000000000D+00 0.000000000000000D+00 0.488538677601940D+03
 0.686356960056671D+03 0.000000000000000D+00 0.000000000000000D+00 -.686356960056671D+03
 0.331731937361087D+03 -.751657771428602D+02 0.977206960370679D+02 -.297287123541384D+03
 0.214566808472553D+03 0.345102361683451D+02 -.629305757187789D+02 0.202207075883623D+03
 0.166487677124859D+03 0.871089367143074D+02 -.318608052135892D+01 0.141845086872424D+03
 0.177937285495532D+03 0.777802695553940D+02 0.130221819946924D+03 -.467650392146627D+02
 0.284171929204581D+03 -.124233665295186D+03 -.161825859743855D+03 -.197818282454731D+03
0.257464187340D-04 0.000000000000D+00 0.000000000000D+00 0.949787178229D-07 0.000000000000D+00  7 -2 2 24 -13 13 -24 21 0 0.20593564D-01 0.21600564D+00 0.54358342D+05 0.54358342D+05 0.54358342D+05 0.11441164D+01  1  2  2  2  7  2        2 0.932245017629D-03 0.100000000000D+01
-.761268545989D-06 0.000000000000D+00 -.988730271264D-07 0.949787178229D-07 0.000000000000D+00  7 -2 2 24 -13 13 -24 21 2 0.20593564D-01 0.21600564D+00 0.54358342D+05 0.54358342D+05 0.54358342D+05 0.11441164D+01  1  2  3  2  7  2        2 -.360820795917D-04 0.100000000000D+01
0.146518490826D-05 0.000000000000D+00 0.000000000000D+00 0.949787178229D-07 0.000000000000D+00  7 -2 2 24 -13 13 -24 21 2 0.20593564D-01 0.21600564D+00 0.54358342D+05 0.54358342D+05 0.54358342D+05 0.11441164D+01  1  2 15  2  7  2        2 0.694458200789D-04 0.100000000000D+01
0.542925564109D-06 0.000000000000D+00 0.000000000000D+00 0.949787178229D-07 0.000000000000D+00  7 -2 2 24 -13 13 -24 21 2 0.20593564D-01 0.34912891D+00 0.11622309D+06 0.11622309D+06 0.11622309D+06 0.11164031D+01  1  2 12  2  7  2        2 0.821036669640D-05 0.100000000000D+01
-.202913377765D-04 0.000000000000D+00 0.000000000000D+00 0.949787178229D-07 0.000000000000D+00  7 -2 2 24 -13 13 -24 21 2 0.20593564D-01 0.21600564D+00 0.54358342D+05 0.54358342D+05 0.54358342D+05 0.11441164D+01  1  2  4  2  7  2        2 -.961754782236D-03 0.100000000000D+01
-.148829387559D-04 0.000000000000D+00 -.828827439826D-05 0.949787178229D-07 0.000000000000D+00  7 -2 2 24 -13 13 -24 21 2 0.20593564D-01 0.35688222D+00 0.54358342D+05 0.54358342D+05 0.54358342D+05 0.11441164D+01  1  2  5  2  7  2        2 -.229097733415D-03 0.100000000000D+01
0.177100202410D-04 0.000000000000D+00 0.734305168625D-05 0.949787178229D-07 0.000000000000D+00  7 -2 2 24 -13 13 -24 21 2 0.20593564D-01 0.21600564D+00 0.54358342D+05 0.54358342D+05 0.54358342D+05 0.11441164D+01  1  2  6  2  7  2        2 0.839407280484D-03 0.100000000000D+01
0.296527535125D-07 0.000000000000D+00 0.000000000000D+00 0.949787178229D-07 0.000000000000D+00  7 -2 21 24 -13 13 -24 -2 2 0.20593564D-01 0.34912891D+00 0.11622309D+06 0.11622309D+06 0.11622309D+06 0.11164031D+01  1  2 12  4  7  2        2 0.705019390287D-07 0.100000000000D+01
-.466328781914D-06 0.000000000000D+00 -.468871373392D-06 0.949787178229D-07 0.000000000000D+00  7 -2 21 24 -13 13 -24 -2 2 0.20593564D-01 0.35688222D+00 0.54358342D+05 0.54358342D+05 0.54358342D+05 0.11441164D+01  1  2  5  4  7  2        2 -.112191156392D-05 0.100000000000D+01
  </mgrwgt>
  </event>
  <event>
  8     66 0.27011060E-05 0.15266641E+03 0.75467711E-02 0.10492096E+00
       -2 -1    0    0    0  501 0.00000000E+00 0.00000000E+00 0.42963751E+02 0.42964943E+02 0.32000000E+00 0.0000E+00 0.9000E+01
        2 -1    0    0  501    0 0.00000000E+00 0.00000000E+00 -.15950725E+04 0.15950725E+04 0.32000000E+00 0.0000E+00 0.9000E+01
       25  2    1    2    0    0 -.62974434E+02 0.43709252E+02 -.57239739E+03 0.65091792E+03 0.30029833E+03 0.0000E+00 0.0000E+00
       23  2    1    2    0    0 0.62974434E+02 -.43709252E+02 -.97971134E+03 0.98711954E+03 0.93243731E+02 0.0000E+00 0.0000E+00
       24  1    3    3    0    0 0.39912345E+02 0.12173131E+03 -.21885552E+03 0.26603846E+03 0.80419002E+02 0.0000E+00 0.9000E+01
      -13  1    4    4    0    0 -.19911053E+02 -.29008051E+02 -.22607837E+03 0.22879982E+03 0.10565837E+00 0.0000E+00 0.9000E+01
       13  1    4    4    0    0 0.82885488E+02 -.14701202E+02 -.75363297E+03 0.75831971E+03 0.10565837E+00 0.0000E+00 0.9000E+01
      -24  1    3    3    0    0 -.10288678E+03 -.78022055E+02 -.35354187E+03 0.38487947E+03 0.80419002E+02 0.0000E+00 0.9000E+01
#aMCatNLO 1  0  0  2  1 0.20360710D+02 0.00000000D+00  -5  7  0 0.00000000D+00 0.00000000D+00 0.00000000D+00 0.00000000D+00 0.00000000D+00
  <mgrwgt>
 0.1113106849D-02    9    2    0
 0.261784835669558D+03 0.000000000000000D+00 0.000000000000000D+00 0.261784835669558D+03
 0.261784835669558D+03 0.000000000000000D+00 0.000000000000000D+00 -.261784835669558D+03
 0.183535069157994D+03 0.399123431439527D+02 0.121731306414673D+03 0.103953833790752D+03
 0.456183806783246D+02 -.199111815351320D+02 -.290080677731580D+02 -.290364169562196D+02
 0.138349978053480D+03 0.828856178415848D+02 -.147011861651332D+02 -.109793287170734D+03
 0.156066243449318D+03 -.102886779450405D+03 -.780220524763820D+02 0.348758703362017D+02
 0.000000000000000D+00 0.000000000000000D+00 -.000000000000000D+00 -.000000000000000D+00
 0.265461301633775D+03 0.000000000000000D+00 0.000000000000000D+00 0.265461301633775D+03
 0.291776260204468D+03 0.000000000000000D+00 0.000000000000000D+00 -.291776260204468D+03
 0.184046717803687D+03 0.333090048724684D+02 0.124459186139675D+03 0.103953833790752D+03
 0.459378027404809D+02 -.215559214852739D+02 -.283286155660422D+02 -.290364169562196D+02
 0.135257185105194D+03 0.779704650349898D+02 -.126707062570699D+02 -.109793287170734D+03
 0.158723712348171D+03 -.108541751041294D+03 -.756859488702923D+02 0.348758703362017D+02
 0.332721438407105D+02 0.188182026191098D+02 -.777391544627020D+01 -.263149585706932D+02
0.372923854282D-05 0.000000000000D+00 0.000000000000D+00 0.261748919521D-06 0.000000000000D+00  7 -2 2 24 -13 13 -24 21 0 0.66099021D-02 0.24539586D+00 0.44677289D+05 0.44677289D+05 0.44677289D+05 0.11516201D+01  1  2  2  2  7  2        2 0.626927187938D-03 0.100000000000D+01
-.195653297369D-06 0.000000000000D+00 -.143212579355D-07 0.261748919521D-06 0.000000000000D+00  7 -2 2 24 -13 13 -24 21 2 0.66099021D-02 0.24539586D+00 0.44677289D+05 0.44677289D+05 0.44677289D+05 0.11516201D+01  1  2  3  2  7  2        2 -.436217006407D-04 0.100000000000D+01
0.226036029803D-06 0.000000000000D+00 0.000000000000D+00 0.261748919521D-06 0.000000000000D+00  7 -2 2 24 -13 13 -24 21 2 0.66099021D-02 0.24539586D+00 0.44677289D+05 0.44677289D+05 0.44677289D+05 0.11516201D+01  1  2 15  2  7  2        2 0.503956547560D-04 0.100000000000D+01
0.174884476491D-04 0.000000000000D+00 0.000000000000D+00 0.261748919521D-06 0.000000000000D+00  7 -2 2 24 -13 13 -24 21 2 0.66099021D-02 0.27510837D+00 0.48768893D+05 0.48768893D+05 0.48768893D+05 0.11482490D+01  1  2 12  2  7  2        2 0.306617608113D-02 0.100000000000D+01
-.178017937829D-04 0.000000000000D+00 0.000000000000D+00 0.261748919521D-06 0.000000000000D+00  7 -2 2 24 -13 13 -24 21 2 0.66099021D-02 0.24539586D+00 0.44677289D+05 0.44677289D+05 0.44677289D+05 0.11516201D+01  1  2  4  2  7  2        2 -.396898253036D-02 0.100000000000D+01
-.287615071908D-04 0.000000000000D+00 -.377817711081D-05 0.261748919521D-06 0.000000000000D+00  7 -2 2 24 -13 13 -24 21 2 0.66099021D-02 0.27500069D+00 0.44677289D+05 0.44677289D+05 0.44677289D+05 0.11516201D+01  1  2  5  2  7  2        2 -.508021274647D-02 0.100000000000D+01
0.290277231466D-04 0.000000000000D+00 0.375380094479D-05 0.261748919521D-06 0.000000000000D+00  7 -2 2 24 -13 13 -24 21 2 0.66099021D-02 0.24539586D+00 0.44677289D+05 0.44677289D+05 0.44677289D+05 0.11516201D+01  1  2  6  2  7  2        2 0.647184926811D-02 0.100000000000D+01
0.318450406069D-06 0.000000000000D+00 0.000000000000D+00 0.261748919521D-06 0.000000000000D+00  7 -2 21 24 -13 13 -24 -2 2 0.66099021D-02 0.27510837D+00 0.48768893D+05 0.48768893D+05 0.48768893D+05 0.11482490D+01  1  2 12  4  7  2        2 0.154112907517D-04 0.100000000000D+01
-.506331608391D-06 0.000000000000D+00 -.685977776224D-07 0.261748919521D-06 0.000000000000D+00  7 -2 21 24 -13 13 -24 -2 2 0.66099021D-02 0.27500069D+00 0.44677289D+05 0.44677289D+05 0.44677289D+05 0.11516201D+01  1  2  5  4  7  2        2 -.248356560681D-04 0.100000000000D+01
  </mgrwgt>
  </event>
  <event>
  8     66 0.27011060E-05 0.42811115E+03 0.75467711E-02 0.92085908E-01
       -2 -1    0    0    0  501 0.00000000E+00 0.00000000E+00 0.48845762E+03 0.48845772E+03 0.32000000E+00 0.0000E+00 0.9000E+01
        2 -1    0    0  501    0 0.00000000E+00 0.00000000E+00 -.93458710E+03 0.93458716E+03 0.32000000E+00 0.0000E+00 0.9000E+01
       25  2    1    2    0    0 0.25409418E+03 0.51673516E+03 -.52407003E+03 0.83447619E+03 0.30020332E+03 0.0000E+00 0.0000E+00
       23  2    1    2    0    0 -.25409418E+03 -.51673516E+03 0.77940542E+02 0.58856869E+03 0.93591102E+02 0.0000E+00 0.0000E+00
       24  1    3    3    0    0 0.44054678E+02 0.24367244E+02 -.24767695E+02 0.98057289E+02 0.80419002E+02 0.0000E+00 0.9000E+01
      -11  1    4    4    0    0 -.25829767E+03 -.48400450E+03 0.84028128E+02 0.55501240E+03 0.51099893E-03 0.0000E+00 0.9000E+01
       11  1    4    4    0    0 0.42034898E+01 -.32730669E+02 -.60875864E+01 0.33556292E+02 0.51099893E-03 0.0000E+00 0.9000E+01
      -24  1    3    3    0    0 0.21003950E+03 0.49236792E+03 -.49930233E+03 0.73641890E+03 0.80419002E+02 0.0000E+00 0.9000E+01
#aMCatNLO 1  0  0  1  2 0.40719078D+02 0.00000000D+00  -5  7  0 0.00000000D+00 0.00000000D+00 0.00000000D+00 0.00000000D+00 0.00000000D+00
  <mgrwgt>
 0.1681780944D-02    6    2    0
 0.675652500798904D+03 0.000000000000000D+00 0.000000000000000D+00 0.675652500798904D+03
 0.675652500798904D+03 0.000000000000000D+00 0.000000000000000D+00 -.675652500798904D+03
 0.950861010297499D+02 0.440546781153631D+02 0.243672443946285D+02 0.629073854435818D+01
 0.612219281113943D+03 -.258297665569599D+03 -.484004495650941D+03 0.271724883510228D+03
 0.333279734578738D+02 0.420348985640340D+01 -.327306687439515D+02 0.466774157484863D+01
 0.610671645996241D+03 0.210039497597833D+03 0.492367920000264D+03 -.282683363629434D+03
 0.000000000000000D+00 0.000000000000000D+00 0.000000000000000D+00 -.000000000000000D+00
 0.693869561061974D+03 0.000000000000000D+00 0.000000000000000D+00 0.693869561061974D+03
 0.699102787193942D+03 0.000000000000000D+00 0.000000000000000D+00 -.699102787193942D+03
 0.940095630758985D+02 0.431451941474957D+02 0.216679677379363D+02 0.629073854435818D+01
 0.628803511319488D+03 -.264266550889178D+03 -.501719676323550D+03 0.271724883510228D+03
 0.342373077572087D+02 0.387852449910553D+01 -.336951402840542D+02 0.466774157484863D+01
 0.594867977321239D+03 0.204241273903906D+03 0.475159249567079D+03 -.282683363629434D+03
 0.410539887820824D+02 0.130015583386710D+02 0.385875993025890D+02 -.523322613196784D+01
0.183534514618D-03 0.000000000000D+00 0.000000000000D+00 0.274651823770D-05 0.000000000000D+00  7 -2 2 24 -11 11 -24 21 0 0.75147338D-01 0.14378264D+00 0.37075670D+06 0.37075670D+06 0.37075670D+06 0.10778126D+01  1  2  2  1  7  1       -2 0.102691421980D-02 0.100000000000D+01
-.100622000392D-04 0.000000000000D+00 -.704820861882D-06 0.274651823770D-05 0.000000000000D+00  7 -2 2 24 -11 11 -24 21 2 0.75147338D-01 0.14378264D+00 0.37075670D+06 0.37075670D+06 0.37075670D+06 0.10778126D+01  1  2  3  1  7  1       -2 -.654027261973D-04 0.100000000000D+01
0.115505732910D-04 0.000000000000D+00 0.000000000000D+00 0.274651823770D-05 0.000000000000D+00  7 -2 2 24 -11 11 -24 21 2 0.75147338D-01 0.14378264D+00 0.37075670D+06 0.37075670D+06 0.37075670D+06 0.10778126D+01  1  2 15  1  7  1       -2 0.750769195038D-04 0.100000000000D+01
0.314982678705D-03 0.000000000000D+00 0.000000000000D+00 0.274651823770D-05 0.000000000000D+00  7 -2 2 24 -11 11 -24 21 2 0.78438296D-01 0.14378264D+00 0.39621213D+06 0.39621213D+06 0.39621213D+06 0.10757256D+01  1  2 12  1  7  1       -2 0.184891168904D-02 0.100000000000D+01
-.215602591306D-03 0.000000000000D+00 0.000000000000D+00 0.274651823770D-05 0.000000000000D+00  7 -2 2 24 -11 11 -24 21 2 0.75147338D-01 0.14378264D+00 0.37075670D+06 0.37075670D+06 0.37075670D+06 0.10778126D+01  1  2  4  1  7  1       -2 -.140138311619D-02 0.100000000000D+01
0.353172484063D-05 0.000000000000D+00 0.000000000000D+00 0.274651823770D-05 0.000000000000D+00  7 21 2 24 -11 11 -24 2 2 0.78438296D-01 0.14378264D+00 0.39621213D+06 0.39621213D+06 0.39621213D+06 0.10757256D+01  1  2 12  3  7  1       -2 0.197663958241D-03 0.100000000000D+01
  </mgrwgt>
  </event>
  <event>
  9     66 0.27011060E-05 0.20662918E+03 0.75467711E-02 0.10331727E+00
       -2 -1    0    0    0  502 0.00000000E+00 0.00000000E+00 0.19637757E+03 0.19637783E+03 0.32000000E+00 0.0000E+00 0.9000E+01
        2 -1    0    0  501    0 0.00000000E+00 0.00000000E+00 -.10041580E+04 0.10041581E+04 0.32000000E+00 0.0000E+00 0.9000E+01
       25  2    1    2    0    0 0.56168541E+02 -.95212773E+02 -.89107480E+03 0.94680078E+03 0.30032821E+03 0.0000E+00 0.0000E+00
       23  2    1    2    0    0 -.46709611E+02 0.41062143E+01 0.11751113E+03 0.15595360E+03 0.91181207E+02 0.0000E+00 0.0000E+00
       24  1    3    3    0    0 -.98744175E+02 -.63501958E+02 -.37554666E+03 0.40160356E+03 0.80419002E+02 0.0000E+00 0.9000E+01
      -11  1    4    4    0    0 -.52532811E+02 0.28529232E+02 0.11636228E+03 0.13081970E+03 0.51099893E-03 0.0000E+00 0.9000E+01
       11  1    4    4    0    0 0.58231999E+01 -.24423017E+02 0.11488497E+01 0.25133907E+02 0.51099893E-03 0.0000E+00 0.9000E+01
      -24  1    3    3    0    0 0.15491272E+03 -.31710815E+02 -.51552815E+03 0.54519722E+03 0.80419002E+02 0.0000E+00 0.9000E+01
       21  1    1    2  501  502 -.94589303E+01 0.91106559E+02 -.34216774E+02 0.97781524E+02 0.75000000E+00 0.0000E+00 0.9000E+01
#aMCatNLO 2  0  0  1  2 0.91596268D+02 0.00000000D+00  -5  7  0 0.00000000D+00 0.00000000D+00 0.00000000D+00 0.00000000D+00 0.00000000D+00
  <mgrwgt>
 0.2126375721D-03    2    2    0
 0.390280858713744D+03 0.000000000000000D+00 0.000000000000000D+00 0.390280858713744D+03
 0.390280858713744D+03 0.000000000000000D+00 0.000000000000000D+00 -.390280858713744D+03
 0.188978525103783D+03 -.101055904538242D+03 -.412358294107968D+02 -.131654766441598D+03
 0.304103729619122D+03 -.561690710032432D+02 0.635529727652862D+02 0.292036185229824D+03
 0.337257844117624D+02 0.539977339425386D+01 -.203446564020062D+02 0.263508242255094D+02
 0.253753678292821D+03 0.151825202147232D+03 -.197248695248324D+01 -.186732243013735D+03
 0.000000000000000D+00 -.000000000000000D+00 0.000000000000000D+00 0.000000000000000D+00
 0.468835315884502D+03 0.000000000000000D+00 0.000000000000000D+00 0.468835315884502D+03
 0.420601990752814D+03 0.000000000000000D+00 0.000000000000000D+00 -.420601990752814D+03
 0.193863622736134D+03 -.987441745678071D+02 -.635019584590751D+02 -.131654766441598D+03
 0.298091842853155D+03 -.525328110961191D+02 0.285292315063267D+02 0.292036185229824D+03
 0.363972438800098D+02 0.582319988225787D+01 -.244230171729147D+02 0.263508242255094D+02
 0.257564888693927D+03 0.154912716054497D+03 -.317108145152788D+02 -.186732243013735D+03
 0.103519708474091D+03 -.945893027282912D+01 0.911065586409418D+02 0.482333251316886D+02
-.165473440015D-04 0.000000000000D+00 0.000000000000D+00 0.471598734931D-05 0.000000000000D+00  7 -2 2 24 -11 11 -24 21 2 0.31040262D-01 0.14334856D+00 0.61550260D+05 0.61550260D+05 0.61550260D+05 0.11394398D+01  1  2 13  1  7  1       -2 -.719503153167D-03 0.100000000000D+01
0.226407094781D-04 0.000000000000D+00 0.000000000000D+00 0.471598734931D-05 0.396108733693D-08  7 -2 2 24 -11 11 -24 21 2 0.30211864D-01 0.15448539D+00 0.61550260D+05 0.61550260D+05 0.61550260D+05 0.11394398D+01  1  2  1  1  7  1       -2 0.932140725252D-03 0.100000000000D+01
  </mgrwgt>
  </event>
  <event>
  8     66 0.27011060E-05 0.14968384E+03 0.75467711E-02 0.96046417E-01
       -2 -1    0    0    0  501 0.00000000E+00 0.00000000E+00 0.20547545E+04 0.20547546E+04 0.32000000E+00 0.0000E+00 0.9000E+01
        2 -1    0    0  501    0 0.00000000E+00 0.00000000E+00 -.16272877E+03 0.16272909E+03 0.32000000E+00 0.0000E+00 0.9000E+01
       25  2    1    2    0    0 0.21226472E+03 0.37219762E+02 0.19425035E+04 0.19773533E+04 0.30027409E+03 0.0000E+00 0.0000E+00
       23  2    1    2    0    0 -.21226472E+03 -.37219762E+02 -.50477703E+02 0.24013040E+03 0.93128860E+02 0.0000E+00 0.0000E+00
       24  1    3    3    0    0 -.14329596E+02 -.60120346E+02 0.37232441E+03 0.38589179E+03 0.80419002E+02 0.0000E+00 0.9000E+01
      -11  1    4    4    0    0 -.72886118E+02 0.31366201E+01 -.60365855E+02 0.94690343E+02 0.51099893E-03 0.0000E+00 0.9000E+01
       11  1    4    4    0    0 -.13937861E+03 -.40356382E+02 0.98881520E+01 0.14544005E+03 0.51099893E-03 0.0000E+00 0.9000E+01
      -24  1    3    3    0    0 0.22659432E+03 0.97340109E+02 0.15701791E+04 0.15914615E+04 0.80419002E+02 0.0000E+00 0.9000E+01
#aMCatNLO 1  0  0  1  2 0.26046895D+03 0.00000000D+00  -5  7  0 0.00000000D+00 0.00000000D+00 0.00000000D+00 0.00000000D+00 0.00000000D+00
  <mgrwgt>
 0.7831718115D-03    9    2    0
 0.578245671472412D+03 0.000000000000000D+00 0.000000000000000D+00 0.578245671472412D+03
 0.578245671472412D+03 0.000000000000000D+00 0.000000000000000D+00 -.578245671472412D+03
 0.130793337867771D+03 -.143295956443981D+02 -.601203464983265D+02 0.825826125877095D+02
 0.280320334637435D+03 -.728861179586016D+02 0.313662012290021D+01 -.270660794047407D+03
 0.262693103213936D+03 -.139378605561829D+03 -.403563821968018D+02 -.218980896892385D+03
 0.482684567225681D+03 0.226594319164829D+03 0.973401085722281D+02 0.407059078352083D+03
 0.000000000000000D+00 0.000000000000000D+00 0.000000000000000D+00 0.000000000000000D+00
 0.813271315234962D+03 0.000000000000000D+00 0.000000000000000D+00 0.813271315234962D+03
 0.669636562121301D+03 0.000000000000000D+00 0.000000000000000D+00 -.669636562121301D+03
 0.141662486912868D+03 -.428669775158452D+02 -.703105865486292D+02 0.825826125877095D+02
 0.302564136617357D+03 -.133938205050250D+03 -.186640981713859D+02 -.270660794047407D+03
 0.301892984520901D+03 -.198514095867340D+03 -.614727146066938D+02 -.218980896892385D+03
 0.439340766937793D+03 0.130020171493894D+03 0.628550338077188D+02 0.407059078352083D+03
 0.297447502367344D+03 0.245299106939541D+03 0.875923655189901D+02 0.143634753113662D+03
0.124287300063D-02 0.000000000000D+00 0.000000000000D+00 0.198970371775D-05 0.000000000000D+00  7 -2 2 24 -11 11 -24 21 0 0.31611611D+00 0.25035222D-01 0.83775500D+05 0.83775500D+05 0.83775500D+05 0.11280863D+01  1  2  2  1  7  1       -2 0.787766012009D-03 0.100000000000D+01
-.288405626902D-04 0.000000000000D+00 -.477295957841D-05 0.198970371775D-05 0.000000000000D+00  7 -2 2 24 -11 11 -24 21 2 0.31611611D+00 0.25035222D-01 0.83775500D+05 0.83775500D+05 0.83775500D+05 0.11280863D+01  1  2  3  1  7  1       -2 -.232626334105D-04 0.100000000000D+01
0.724083564179D-04 0.000000000000D+00 0.000000000000D+00 0.198970371775D-05 0.000000000000D+00  7 -2 2 24 -11 11 -24 21 2 0.31611611D+00 0.25035222D-01 0.83775500D+05 0.83775500D+05 0.83775500D+05 0.11280863D+01  1  2 15  1  7  1       -2 0.584041673978D-04 0.100000000000D+01
0.101799305323D-04 0.000000000000D+00 0.000000000000D+00 0.198970371775D-05 0.000000000000D+00  7 -2 2 24 -11 11 -24 21 2 0.46152136D+00 0.25035222D-01 0.19532618D+06 0.19532618D+06 0.19532618D+06 0.10986150D+01  1  2 12  1  7  1       -2 0.629794794928D-06 0.100000000000D+01
-.632630871309D-03 0.000000000000D+00 0.000000000000D+00 0.198970371775D-05 0.000000000000D+00  7 -2 2 24 -11 11 -24 21 2 0.31611611D+00 0.25035222D-01 0.83775500D+05 0.83775500D+05 0.83775500D+05 0.11280863D+01  1  2  4  1  7  1       -2 -.510276453394D-03 0.100000000000D+01
-.513726360219D-03 0.000000000000D+00 -.362990687608D-03 0.198970371775D-05 0.000000000000D+00  7 -2 2 24 -11 11 -24 21 2 0.46581662D+00 0.25035222D-01 0.83775500D+05 0.83775500D+05 0.83775500D+05 0.11280863D+01  1  2  5  1  7  1       -2 -.330903649094D-04 0.100000000000D+01
0.632026055751D-03 0.000000000000D+00 0.337322220569D-03 0.198970371775D-05 0.000000000000D+00  7 -2 2 24 -11 11 -24 21 2 0.31611611D+00 0.25035222D-01 0.83775500D+05 0.83775500D+05 0.83775500D+05 0.11280863D+01  1  2  6  1  7  1       -2 0.509788612613D-03 0.100000000000D+01
0.465328117577D-06 0.000000000000D+00 0.000000000000D+00 0.198970371775D-05 0.000000000000D+00  7 21 2 24 -11 11 -24 2 2 0.46152136D+00 0.25035222D-01 0.19532618D+06 0.19532618D+06 0.19532618D+06 0.10986150D+01  1  2 12  3  7  1       -2 0.250753612189D-06 0.100000000000D+01
-.120295861612D-04 0.000000000000D+00 -.168872959909D-04 0.198970371775D-05 0.000000000000D+00  7 21 2 24 -11 11 -24 2 2 0.46581662D+00 0.25035222D-01 0.83775500D+05 0.83775500D+05 0.83775500D+05 0.11280863D+01  1  2  5  3  7  1       -2 -.703807720407D-05 0.100000000000D+01
  </mgrwgt>
  </event>
  <event>
  8     66 0.27011060E-05 0.17161763E+03 0.75467711E-02 0.89528998E-01
       -2 -1    0    0    0  501 0.00000000E+00 0.00000000E+00 0.73293741E+02 0.73294440E+02 0.32000000E+00 0.0000E+00 0.9000E+01
        2 -1    0    0  501    0 0.00000000E+00 0.00000000E+00 -.11455622E+04 0.11455623E+04 0.32000000E+00 0.0000E+00 0.9000E+01
       25  2    1    2    0    0 -.91960264E+02 0.14605037E+02 -.30040399E+03 0.43634273E+03 0.30246061E+03 0.0000E+00 0.0000E+00
       23  2    1    2    0    0 0.91960264E+02 -.14605037E+02 -.77186451E+03 0.78251400E+03 0.88788188E+02 0.0000E+00 0.0000E+00
       24  1    3    3    0    0 -.11883080E+03 -.15638431E+02 -.24852163E+02 0.14645875E+03 0.80419002E+02 0.0000E+00 0.9000E+01
      -13  1    4    4    0    0 0.54160243E+02 -.36390348E+02 -.23532889E+03 0.24420746E+03 0.10565837E+00 0.0000E+00 0.9000E+01
       13  1    4    4    0    0 0.37800021E+02 0.21785311E+02 -.53653563E+03 0.53830654E+03 0.10565837E+00 0.0000E+00 0.9000E+01
      -24  1    3    3    0    0 0.26870537E+02 0.30243467E+02 -.27555183E+03 0.28988398E+03 0.80419002E+02 0.0000E+00 0.9000E+01
#aMCatNLO 1  0  0  1  2 0.76922767D+03 0.00000000D+00  -5  7  0 0.00000000D+00 0.00000000D+00 0.00000000D+00 0.00000000D+00 0.00000000D+00
  <mgrwgt>
 0.9473215329D-03    5    2    0
 0.289763689544995D+03 0.000000000000000D+00 0.000000000000000D+00 0.289763689544995D+03
 0.289763689544995D+03 0.000000000000000D+00 0.000000000000000D+00 -.289763689544995D+03
 0.262048085967521D+03 -.118830798459228D+03 -.156384261041092D+02 0.218715944483705D+03
 0.781983940230095D+02 0.541602690352901D+02 -.363904303775868D+02 -.430974554090710D+02
 0.139438368048162D+03 0.378000033028521D+02 0.217853923920219D+02 -.132437211208047D+03
 0.998425310512978D+02 0.268705261210862D+02 0.302434640896741D+02 -.431812778665875D+02
 0.000000000000000D+00 0.000000000000000D+00 0.000000000000000D+00 0.000000000000000D+00
 0.364960470412259D+04 0.000000000000000D+00 0.000000000000000D+00 0.364960470412259D+04
 0.528243992483442D+03 0.000000000000000D+00 0.000000000000000D+00 -.528243992483442D+03
 0.589272876284053D+03 -.511487173430939D+03 -.176973200835436D+03 0.218715944483705D+03
 0.818183398762937D+02 -.196445513012564D+02 -.667153781488808D+02 -.430974554090710D+02
 0.174330500322462D+03 -.106920204346607D+03 -.376772920018797D+02 -.132437211208047D+03
 0.117679104906517D+03 -.734573887786195D+02 -.109793011099840D+02 -.431812778665875D+02
 0.321474787521671D+04 0.711509317857422D+03 0.292345172096180D+03 0.312136071163915D+04
0.706367820544D-05 0.000000000000D+00 0.000000000000D+00 0.159860686405D-07 0.000000000000D+00  7 -2 2 24 -13 13 -24 21 0 0.11276017D-01 0.17624040D+00 0.29452610D+05 0.29452610D+05 0.29452610D+05 0.11680787D+01  1  2  2  1  7  1       -2 0.927776811356D-03 0.100000000000D+01
-.261518741393D-06 0.000000000000D+00 -.271263842181D-07 0.159860686405D-07 0.000000000000D+00  7 -2 2 24 -13 13 -24 21 2 0.11276017D-01 0.17624040D+00 0.29452610D+05 0.29452610D+05 0.29452610D+05 0.11680787D+01  1  2  3  1  7  1       -2 -.468661853953D-04 0.100000000000D+01
0.406226095072D-06 0.000000000000D+00 0.000000000000D+00 0.159860686405D-07 0.000000000000D+00  7 -2 2 24 -13 13 -24 21 2 0.11276017D-01 0.17624040D+00 0.29452610D+05 0.29452610D+05 0.29452610D+05 0.11680787D+01  1  2 15  1  7  1       -2 0.727988647494D-04 0.100000000000D+01
0.867084765493D-06 0.000000000000D+00 -.918515015705D-05 0.159860686405D-07 0.000000000000D+00  7 -2 2 24 -13 13 -24 21 2 0.22005895D+00 0.17624040D+00 0.29452610D+05 0.29452610D+05 0.29452610D+05 0.11680787D+01  1  2  5  1  7  1       -2 0.336926833615D-06 0.100000000000D+01
-.204702510317D-05 0.000000000000D+00 -.294246663805D-05 0.159860686405D-07 0.000000000000D+00  7 21 2 24 -13 13 -24 2 2 0.22005895D+00 0.17624040D+00 0.29452610D+05 0.29452610D+05 0.29452610D+05 0.11680787D+01  1  2  5  3  7  1       -2 -.672488469054D-05 0.100000000000D+01
  </mgrwgt>
  </event>
  <event>
  8     66 0.27011060E-05 0.19435128E+03 0.75467711E-02 0.86120348E-01
       -2 -1    0    0    0  501 0.00000000E+00 0.00000000E+00 0.24146156E+03 0.24146177E+03 0.32000000E+00 0.0000E+00 0.9000E+01
        2 -1    0    0  501    0 0.00000000E+00 0.00000000E+00 -.31611284E+03 0.31611301E+03 0.32000000E+00 0.0000E+00 0.9000E+01
       25  2    1    2    0    0 0.11716041E+03 -.35567280E+02 0.86619253E+02 0.33543246E+03 0.30003408E+03 0.0000E+00 0.0000E+00
       23  2    1    2    0    0 -.11716041E+03 0.35567280E+02 -.16127054E+03 0.22214231E+03 0.91364266E+02 0.0000E+00 0.0000E+00
       24  1    3    3    0    0 0.18485121E+02 -.71420835E+02 0.15262477E+03 0.18762775E+03 0.80419002E+02 0.0000E+00 0.9000E+01
      -13  1    4    4    0    0 -.49559494E+02 0.57819892E+02 -.53788433E+02 0.93233524E+02 0.10565837E+00 0.0000E+00 0.9000E+01
       13  1    4    4    0    0 -.67600916E+02 -.22252612E+02 -.10748210E+03 0.12890879E+03 0.10565837E+00 0.0000E+00 0.9000E+01
      -24  1    3    3    0    0 0.98675288E+02 0.35853555E+02 -.66005518E+02 0.14780472E+03 0.80419002E+02 0.0000E+00 0.9000E+01
#aMCatNLO 1  0  0  1  2 0.11041915D+04 0.00000000D+00  -5  7  0 0.00000000D+00 0.00000000D+00 0.00000000D+00 0.00000000D+00 0.00000000D+00
  <mgrwgt>
 0.7752471132D-03    3    2    0
 0.276277405840723D+03 0.000000000000000D+00 0.000000000000000D+00 0.276277405840723D+03
 0.276277405840723D+03 0.000000000000000D+00 0.000000000000000D+00 -.276277405840723D+03
 0.209952266504064D+03 0.184851218137083D+02 -.714208345543509D+02 0.179360260143978D+03
 0.868135864192042D+02 -.495594698477818D+02 0.578199986199601D+02 -.416809968086086D+02
 0.115558914974481D+03 -.676009403690119D+02 -.222527185498896D+02 -.910428042650487D+02
 0.140230043783697D+03 0.986752884030855D+02 0.358535544842803D+02 -.466364590703208D+02
 0.000000000000000D+00 0.000000000000000D+00 0.000000000000000D+00 -.000000000000000D+00
 0.986556449536019D+03 0.000000000000000D+00 0.000000000000000D+00 0.986556449536019D+03
 0.144297748606428D+04 0.000000000000000D+00 0.000000000000000D+00 -.144297748606428D+04
 0.608114690232874D+03 -.255764228185342D+02 -.574901734385578D+03 0.179360260143978D+03
 0.875221487904620D+02 -.589492902221129D+02 -.494752687334755D+02 -.416809968086086D+02
 0.314302194116588D+03 -.907535005450513D+02 -.286811574307727D+03 -.910428042650487D+02
 0.224789923234553D+03 0.790151084679531D+02 -.188798694255563D+03 -.466364590703208D+02
 0.119480497922582D+04 0.962641051177453D+02 0.109998727168234D+04 -.456421036528261D+03
0.900511056411D-05 0.000000000000D+00 0.000000000000D+00 0.101474598388D-05 0.000000000000D+00  7 -2 2 24 -13 13 -24 21 0 0.37147961D-01 0.48632774D-01 0.37772420D+05 0.37772420D+05 0.37772420D+05 0.11581651D+01  1  2  2  1  7  1       -2 0.757422168004D-03 0.100000000000D+01
-.425028612172D-06 0.000000000000D+00 -.345819956662D-07 0.101474598388D-05 0.000000000000D+00  7 -2 2 24 -13 13 -24 21 2 0.37147961D-01 0.48632774D-01 0.37772420D+05 0.37772420D+05 0.37772420D+05 0.11581651D+01  1  2  3  1  7  1       -2 -.479521458684D-04 0.100000000000D+01
0.583021785623D-06 0.000000000000D+00 0.000000000000D+00 0.101474598388D-05 0.000000000000D+00  7 -2 2 24 -13 13 -24 21 2 0.37147961D-01 0.48632774D-01 0.37772420D+05 0.37772420D+05 0.37772420D+05 0.11581651D+01  1  2 15  1  7  1       -2 0.657770910192D-04 0.100000000000D+01
  </mgrwgt>
  </event>
  <event>
  8     66 0.27011060E-05 0.62645894E+03 0.75467711E-02 0.89410970E-01
       -2 -1    0    0    0  501 0.00000000E+00 0.00000000E+00 0.50546064E+03 0.50546075E+03 0.32000000E+00 0.0000E+00 0.9000E+01
        2 -1    0    0  501    0 0.00000000E+00 0.00000000E+00 -.81646658E+03 0.81646664E+03 0.32000000E+00 0.0000E+00 0.9000E+01
       25  2    1    2    0    0 -.35526765E+03 -.48800086E+03 -.18033609E+03 0.69790164E+03 0.30030924E+03 0.0000E+00 0.0000E+00
       23  2    1    2    0    0 0.35526765E+03 0.48800086E+03 -.13066984E+03 0.62402575E+03 0.89294909E+02 0.0000E+00 0.0000E+00
       24  1    3    3    0    0 -.22842781E+03 -.17929995E+03 -.18683398E+03 0.35454462E+03 0.80419002E+02 0.0000E+00 0.9000E+01
      -13  1    4    4    0    0 0.17534187E+03 0.30404290E+03 -.51077809E+02 0.35467705E+03 0.10565837E+00 0.0000E+00 0.9000E+01
       13  1    4    4    0    0 0.17992578E+03 0.18395797E+03 -.79592033E+02 0.26934870E+03 0.10565837E+00 0.0000E+00 0.9000E+01
      -24  1    3    3    0    0 -.12683984E+03 -.30870092E+03 0.64978872E+01 0.34335702E+03 0.80419002E+02 0.0000E+00 0.9000E+01
#aMCatNLO 1  0  0  2  2 0.32868250D+03 0.00000000D+00  -5  7  0 0.00000000D+00 0.00000000D+00 0.00000000D+00 0.00000000D+00 0.00000000D+00
  <mgrwgt>
 0.4603202876D-03    4    2    0
 0.642410951553916D+03 0.000000000000000D+00 0.000000000000000D+00 0.642410951553916D+03
 0.642410951553916D+03 0.000000000000000D+00 0.000000000000000D+00 -.642410951553916D+03
 0.319558506047646D+03 -.228427813852053D+03 -.179299946269079D+03 -.106408110403813D+03
 0.352556236783314D+03 0.175341867866430D+03 0.304043065917834D+03 0.333008038222356D+02
 0.257861152538999D+03 0.179925783086809D+03 0.183957799031239D+03 -.166917567955455D+02
 0.354846007737873D+03 -.126839837101185D+03 -.308700918679995D+03 0.897990633771229D+02
 0.000000000000000D+00 0.000000000000000D+00 0.000000000000000D+00 0.000000000000000D+00
 0.108164099515217D+04 0.000000000000000D+00 0.000000000000000D+00 0.108164099515217D+04
 0.727627524433242D+03 0.000000000000000D+00 0.000000000000000D+00 -.727627524433242D+03
 0.392005828218595D+03 -.317671197627776D+03 -.186985768552049D+03 -.106408110403813D+03
 0.312545384085117D+03 0.919257713272121D+02 0.296859101500364D+03 0.333008038222356D+02
 0.216268402119234D+03 0.120461130675007D+03 0.178836581847182D+03 -.166917567955455D+02
 0.405377771224822D+03 -.222186019019309D+03 -.316912326389770D+03 0.897990633771229D+02
 0.483071133937644D+03 0.327470314644867D+03 0.282024115942730D+02 0.354013470718928D+03
0.828790795694D-04 0.000000000000D+00 0.000000000000D+00 0.837017126862D-06 0.000000000000D+00  7 -2 2 24 -13 13 -24 21 0 0.77763189D-01 0.12561026D+00 0.39245080D+06 0.39245080D+06 0.39245080D+06 0.10760247D+01  1  2  2  2  7  2        2 0.514092677269D-03 0.100000000000D+01
-.460085368951D-05 0.000000000000D+00 -.318277488109D-06 0.837017126862D-06 0.000000000000D+00  7 -2 2 24 -13 13 -24 21 2 0.77763189D-01 0.12561026D+00 0.39245080D+06 0.39245080D+06 0.39245080D+06 0.10760247D+01  1  2  3  2  7  2        2 -.330429918254D-04 0.100000000000D+01
0.507273037367D-05 0.000000000000D+00 0.000000000000D+00 0.837017126862D-06 0.000000000000D+00  7 -2 2 24 -13 13 -24 21 2 0.77763189D-01 0.12561026D+00 0.39245080D+06 0.39245080D+06 0.39245080D+06 0.10760247D+01  1  2 15  2  7  2        2 0.364319753640D-04 0.100000000000D+01
-.795905879269D-05 0.000000000000D+00 0.000000000000D+00 0.837017126862D-06 0.000000000000D+00  7 -2 2 24 -13 13 -24 21 2 0.77763189D-01 0.12561026D+00 0.39245080D+06 0.39245080D+06 0.39245080D+06 0.10760247D+01  1  2  4  2  7  2        2 -.571613731651D-04 0.100000000000D+01
  </mgrwgt>
  </event>
  <event>
  8     66 0.27011060E-05 0.10539501E+03 0.75467711E-02 0.10497004E+00
       -2 -1    0    0    0  501 0.00000000E+00 0.00000000E+00 0.28547338E+02 0.28549131E+02 0.32000000E+00 0.0000E+00 0.9000E+01
        2 -1    0    0  501    0 0.00000000E+00 0.00000000E+00 -.15618970E+04 0.15618970E+04 0.32000000E+00 0.0000E+00 0.9000E+01
       25  2    1    2    0    0 -.19380075E+02 0.64486290E+02 -.10455020E+04 0.10897501E+04 0.29991150E+03 0.0000E+00 0.0000E+00
       23  2    1    2    0    0 0.19380075E+02 -.64486290E+02 -.48784768E+03 0.50069602E+03 0.90371893E+02 0.0000E+00 0.0000E+00
       24  1    3    3    0    0 0.11707800E+03 0.34229645E+02 -.49102483E+03 0.51230023E+03 0.80419002E+02 0.0000E+00 0.9000E+01
      -13  1    4    4    0    0 0.27934850E+02 0.11856245E+02 -.21885327E+03 0.22094726E+03 0.10565837E+00 0.0000E+00 0.9000E+01
       13  1    4    4    0    0 -.85547756E+01 -.76342535E+02 -.26899441E+03 0.27974877E+03 0.10565837E+00 0.0000E+00 0.9000E+01
      -24  1    3    3    0    0 -.13645807E+03 0.30256645E+02 -.55447713E+03 0.57744989E+03 0.80419002E+02 0.0000E+00 0.9000E+01
#aMCatNLO 1  0  0  1  2 0.25241911D+02 0.00000000D+00  -5  7  0 0.00000000D+00 0.00000000D+00 0.00000000D+00 0.00000000D+00 0.00000000D+00
  <mgrwgt>
 0.2159038514D-02    9    2    0
 0.211162147864633D+03 0.000000000000000D+00 0.000000000000000D+00 0.211162147864633D+03
 0.211162147864633D+03 0.000000000000000D+00 0.000000000000000D+00 -.211162147864633D+03
 0.146506321041159D+03 0.117077981424734D+03 0.342297031090947D+02 0.108609318761142D+02
 0.374737813865456D+02 0.279348785640163D+02 0.118562743293062D+02 -.219853498959763D+02
 0.768672127644687D+02 -.855476742380002D+01 -.763426856786288D+02 0.267930884313030D+01
 0.161476980537092D+03 -.136458092564950D+03 0.302567082402279D+02 0.844510917673174D+01
 0.000000000000000D+00 0.000000000000000D+00 0.000000000000000D+00 0.000000000000000D+00
 0.228004682095406D+03 0.000000000000000D+00 0.000000000000000D+00 0.228004682095406D+03
 0.221212942932041D+03 0.000000000000000D+00 0.000000000000000D+00 -.221212942932041D+03
 0.140721614415629D+03 0.111596343071184D+03 0.276342754797646D+02 0.108609318761142D+02
 0.359284696164778D+02 0.265340238954230D+02 0.101707863437785D+02 -.219853498959763D+02
 0.808403515111747D+02 -.115645576505184D+02 -.799640215529537D+02 0.267930884313030D+01
 0.165587529902122D+03 -.142699997140344D+03 0.227465393379810D+02 0.844510917673174D+01
 0.261396595820439D+02 0.161341878242557D+02 0.194124203914296D+02 0.679173916336511D+01
0.695770180866D-05 0.000000000000D+00 0.000000000000D+00 0.213479155635D-06 0.000000000000D+00  7 -2 2 24 -13 13 -24 21 0 0.43920386D-02 0.24029198D+00 0.42958053D+05 0.42958053D+05 0.42958053D+05 0.11531397D+01  1  2  2  1  7  1       -2 0.222976140970D-02 0.100000000000D+01
-.386375756247D-06 0.000000000000D+00 -.267194069502D-07 0.213479155635D-06 0.000000000000D+00  7 -2 2 24 -13 13 -24 21 2 0.43920386D-02 0.24029198D+00 0.42958053D+05 0.42958053D+05 0.42958053D+05 0.11531397D+01  1  2  3  1  7  1       -2 -.164651729825D-03 0.100000000000D+01
0.452590928338D-06 0.000000000000D+00 0.000000000000D+00 0.213479155635D-06 0.000000000000D+00  7 -2 2 24 -13 13 -24 21 2 0.43920386D-02 0.24029198D+00 0.42958053D+05 0.42958053D+05 0.42958053D+05 0.11531397D+01  1  2 15  1  7  1       -2 0.192868931472D-03 0.100000000000D+01
0.117676529376D-04 0.000000000000D+00 0.000000000000D+00 0.213479155635D-06 0.000000000000D+00  7 -2 2 24 -13 13 -24 21 2 0.48401506D-02 0.24029198D+00 0.48428226D+05 0.48428226D+05 0.48428226D+05 0.11485175D+01  1  2 12  1  7  1       -2 0.431250675530D-02 0.100000000000D+01
-.106706258716D-04 0.000000000000D+00 0.000000000000D+00 0.213479155635D-06 0.000000000000D+00  7 -2 2 24 -13 13 -24 21 2 0.43920386D-02 0.24029198D+00 0.42958053D+05 0.42958053D+05 0.42958053D+05 0.11531397D+01  1  2  4  1  7  1       -2 -.454722373148D-02 0.100000000000D+01
-.349763902167D-04 0.000000000000D+00 -.743585322499D-05 0.213479155635D-06 0.000000000000D+00  7 -2 2 24 -13 13 -24 21 2 0.49897187D-02 0.24029198D+00 0.42958053D+05 0.42958053D+05 0.42958053D+05 0.11531397D+01  1  2  5  1  7  1       -2 -.123490605971D-01 0.100000000000D+01
0.356943008755D-04 0.000000000000D+00 0.737573987407D-05 0.213479155635D-06 0.000000000000D+00  7 -2 2 24 -13 13 -24 21 2 0.43920386D-02 0.24029198D+00 0.42958053D+05 0.42958053D+05 0.42958053D+05 0.11531397D+01  1  2  6  1  7  1       -2 0.152109139589D-01 0.100000000000D+01
0.186413478926D-06 0.000000000000D+00 0.000000000000D+00 0.213479155635D-06 0.000000000000D+00  7 21 2 24 -13 13 -24 2 2 0.48401506D-02 0.24029198D+00 0.48428226D+05 0.48428226D+05 0.48428226D+05 0.11485175D+01  1  2 12  3  7  1       -2 0.113411770515D-02 0.100000000000D+01
-.660074433551D-06 0.000000000000D+00 -.148510985065D-06 0.213479155635D-06 0.000000000000D+00  7 21 2 24 -13 13 -24 2 2 0.49897187D-02 0.24029198D+00 0.42958053D+05 0.42958053D+05 0.42958053D+05 0.11531397D+01  1  2  5  3  7  1       -2 -.386019418822D-02 0.100000000000D+01
  </mgrwgt>
  </event>
  <event>
  8     66 0.27011060E-05 0.73001772E+02 0.75467711E-02 0.10415356E+00
       -2 -1    0    0    0  501 0.00000000E+00 0.00000000E+00 0.29070183E+04 0.29070183E+04 0.32000000E+00 0.0000E+00 0.9000E+01
        2 -1    0    0  501    0 0.00000000E+00 0.00000000E+00 -.59718652E+02 0.59719510E+02 0.32000000E+00 0.0000E+00 0.9000E+01
       25  2    1    2    0    0 -.14797929E+03 -.54714327E+02 0.27299162E+04 0.27509546E+04 0.30069475E+03 0.0000E+00 0.0000E+00
       23  2    1    2    0    0 0.14797929E+03 0.54714327E+02 0.11738347E+03 0.21578323E+03 0.88836902E+02 0.0000E+00 0.0000E+00
       24  1    3    3    0    0 -.29003982E+02 -.10650982E+03 0.20297223E+04 0.20343121E+04 0.80419002E+02 0.0000E+00 0.9000E+01
      -11  1    4    4    0    0 0.30870048E+02 0.77008218E+00 -.11994390E+02 0.33127304E+02 0.51099893E-03 0.0000E+00 0.9000E+01
       11  1    4    4    0    0 0.11710924E+03 0.53944245E+02 0.12937786E+03 0.18265593E+03 0.51099893E-03 0.0000E+00 0.9000E+01
      -24  1    3    3    0    0 -.11897531E+03 0.51795494E+02 0.70019382E+03 0.71664252E+03 0.80419002E+02 0.0000E+00 0.9000E+01
#aMCatNLO 1  0  0  2  1 0.21191677D+02 0.00000000D+00  -5  7  0 0.00000000D+00 0.00000000D+00 0.00000000D+00 0.00000000D+00 0.00000000D+00
  <mgrwgt>
 0.1339630494D-03    9    2    0
 0.416658747248101D+03 0.000000000000000D+00 0.000000000000000D+00 0.416658747248101D+03
 0.416658747248101D+03 0.000000000000000D+00 0.000000000000000D+00 -.416658747248101D+03
 0.307257250978273D+03 -.290039822574952D+02 -.106509821829435D+03 0.275234861875134D+03
 0.158920999408560D+03 0.308700482023309D+02 0.770082174342559D+00 -.155892049670424D+03
 0.208221603353246D+03 0.117109242974052D+03 0.539442452597934D+02 -.163498256004130D+03
 0.158917640756124D+03 -.118975308918888D+03 0.517954943952985D+02 0.441554437994209D+02
 0.000000000000000D+00 0.000000000000000D+00 -.000000000000000D+00 -.000000000000000D+00
 0.426922057290234D+03 0.000000000000000D+00 0.000000000000000D+00 0.426922057290234D+03
 0.427878081422319D+03 0.000000000000000D+00 0.000000000000000D+00 -.427878081422319D+03
 0.305324150485440D+03 -.327058252871126D+02 -.996580188251294D+02 0.275234861875134D+03
 0.158616451647405D+03 0.289511623252454D+02 0.432178004816958D+01 -.155892049670424D+03
 0.208080247593190D+03 0.114593521632430D+03 0.586006358491861D+02 -.163498256004130D+03
 0.161566058636361D+03 -.120911999040180D+03 0.553801464416736D+02 0.441554437994209D+02
 0.212132303501575D+02 0.100731403696169D+02 -.186445435138999D+02 -.956024132085574D+00
0.350586872138D-03 0.000000000000D+00 0.000000000000D+00 0.314677849074D-06 0.000000000000D+00  7 -2 2 24 -11 11 -24 21 0 0.44723365D+00 0.91875523D-02 0.50411754D+05 0.50411754D+05 0.50411754D+05 0.11469822D+01  1  2  2  2  7  2        2 0.912797976551D-04 0.100000000000D+01
-.104244796584D-04 0.000000000000D+00 -.134634590065D-05 0.314677849074D-06 0.000000000000D+00  7 -2 2 24 -11 11 -24 21 2 0.44723365D+00 0.91875523D-02 0.50411754D+05 0.50411754D+05 0.50411754D+05 0.11469822D+01  1  2  3  2  7  2        2 -.357064587845D-05 0.100000000000D+01
0.220519847055D-04 0.000000000000D+00 0.000000000000D+00 0.314677849074D-06 0.000000000000D+00  7 -2 2 24 -11 11 -24 21 2 0.44723365D+00 0.91875523D-02 0.50411754D+05 0.50411754D+05 0.50411754D+05 0.11469822D+01  1  2 15  2  7  2        2 0.755335814167D-05 0.100000000000D+01
0.549121969419D-03 0.000000000000D+00 0.000000000000D+00 0.314677849074D-06 0.000000000000D+00  7 -2 2 24 -11 11 -24 21 2 0.44723365D+00 0.95452115D-02 0.54465187D+05 0.54465187D+05 0.54465187D+05 0.11440420D+01  1  2 12  2  7  2        2 0.177257082496D-03 0.100000000000D+01
-.433134438499D-03 0.000000000000D+00 0.000000000000D+00 0.314677849074D-06 0.000000000000D+00  7 -2 2 24 -11 11 -24 21 2 0.44723365D+00 0.91875523D-02 0.50411754D+05 0.50411754D+05 0.50411754D+05 0.11469822D+01  1  2  4  2  7  2        2 -.148359414409D-03 0.100000000000D+01
-.384348930592D-02 0.000000000000D+00 -.824929541054D-03 0.314677849074D-06 0.000000000000D+00  7 -2 2 24 -11 11 -24 21 2 0.44723365D+00 0.97800979D-02 0.50411754D+05 0.50411754D+05 0.50411754D+05 0.11469822D+01  1  2  5  2  7  2        2 -.121601096937D-02 0.100000000000D+01
0.388905765024D-02 0.000000000000D+00 0.823320971658D-03 0.314677849074D-06 0.000000000000D+00  7 -2 2 24 -11 11 -24 21 2 0.44723365D+00 0.91875523D-02 0.50411754D+05 0.50411754D+05 0.50411754D+05 0.11469822D+01  1  2  6  2  7  2        2 0.133209983855D-02 0.100000000000D+01
0.754399168492D-05 0.000000000000D+00 0.000000000000D+00 0.314677849074D-06 0.000000000000D+00  7 -2 21 24 -11 11 -24 -2 2 0.44723365D+00 0.95452115D-02 0.54465187D+05 0.54465187D+05 0.54465187D+05 0.11440420D+01  1  2 12  4  7  2        2 0.256197004333D-04 0.100000000000D+01
-.399910069604D-04 0.000000000000D+00 -.882283996716D-05 0.314677849074D-06 0.000000000000D+00  7 -2 21 24 -11 11 -24 -2 2 0.44723365D+00 0.97800979D-02 0.50411754D+05 0.50411754D+05 0.50411754D+05 0.11469822D+01  1  2  5  4  7  2        2 -.131905698196D-03 0.100000000000D+01
  </mgrwgt>
  </event>
  <event>
  8     66 0.27011060E-05 0.37592521E+03 0.75467711E-02 0.89626405E-01
       -2 -1    0    0    0  501 0.00000000E+00 0.00000000E+00 0.12884062E+03 0.12884102E+03 0.32000000E+00 0.0000E+00 0.9000E+01
        2 -1    0    0  501    0 0.00000000E+00 0.00000000E+00 -.12541713E+04 0.12541713E+04 0.32000000E+00 0.0000E+00 0.9000E+01
       25  2    1    2    0    0 -.26747967E+03 0.20808636E+03 -.62643892E+03 0.77310341E+03 0.30069560E+03 0.0000E+00 0.0000E+00
       23  2    1    2    0    0 0.26747967E+03 -.20808636E+03 -.49889174E+03 0.60990894E+03 0.90833062E+02 0.0000E+00 0.0000E+00
       24  1    3    3    0    0 -.26075700E+03 0.17917497E+03 -.32865580E+03 0.46322752E+03 0.80419002E+02 0.0000E+00 0.9000E+01
      -11  1    4    4    0    0 0.18170946E+02 -.73260440E+01 -.32030194E+01 0.19852293E+02 0.51099893E-03 0.0000E+00 0.9000E+01
       11  1    4    4    0    0 0.24930872E+03 -.20076031E+03 -.49568872E+03 0.59005665E+03 0.51099893E-03 0.0000E+00 0.9000E+01
      -24  1    3    3    0    0 -.67226721E+01 0.28911390E+02 -.29778312E+03 0.30987589E+03 0.80419002E+02 0.0000E+00 0.9000E+01
#aMCatNLO 1  0  0  2  1 0.62438943D+03 0.00000000D+00  -5  7  0 0.00000000D+00 0.00000000D+00 0.00000000D+00 0.00000000D+00 0.00000000D+00
  <mgrwgt>
 0.1848905741D-02    3    2    0
 0.401980737830604D+03 0.000000000000000D+00 0.000000000000000D+00 0.401980737830604D+03
 0.401980737830604D+03 0.000000000000000D+00 0.000000000000000D+00 -.401980737830604D+03
 0.336835697937849D+03 -.260756998484871D+03 0.179174965556774D+03 0.830252426060726D+02
 0.296674787367124D+02 0.181709458068309D+02 -.732604396432777D+01 0.222779061608411D+02
 0.321211805494243D+03 0.249308724791760D+03 -.200760311697683D+03 -.267858354102828D+02
 0.116246493492405D+03 -.672267211371974D+01 0.289113901052368D+02 -.785173133566309D+02
 0.000000000000000D+00 -.000000000000000D+00 0.000000000000000D+00 0.000000000000000D+00
 0.321892387195234D+04 0.000000000000000D+00 0.000000000000000D+00 0.321892387195234D+04
 0.544939332392726D+03 0.000000000000000D+00 0.000000000000000D+00 -.544939332392726D+03
 0.242439985973479D+03 -.212687679454946D+03 -.134421331165529D+02 0.830252426060726D+02
 0.465013424442940D+02 0.244915690733922D+02 -.326532202169023D+02 0.222779061608411D+02
 0.604868424387910D+03 0.326156497370328D+03 -.508694671749179D+03 -.267858354102828D+02
 0.124137306045994D+03 0.132247999976864D+02 -.510195155432117D+02 -.785173133566309D+02
 0.274591614549339D+04 -.151185186986461D+03 0.605809540625846D+03 0.267398453955961D+04
0.400495822473D-04 0.000000000000D+00 0.000000000000D+00 0.132901588441D-05 0.000000000000D+00  7 -2 2 24 -11 11 -24 21 0 0.19821668D-01 0.19294946D+00 0.14131976D+06 0.14131976D+06 0.14131976D+06 0.11096007D+01  1  2  2  2  7  2        2 0.183291747885D-02 0.100000000000D+01
-.221282787578D-05 0.000000000000D+00 -.153800941127D-06 0.132901588441D-05 0.000000000000D+00  7 -2 2 24 -11 11 -24 21 2 0.19821668D-01 0.19294946D+00 0.14131976D+06 0.14131976D+06 0.14131976D+06 0.11096007D+01  1  2  3  2  7  2        2 -.124688377727D-03 0.100000000000D+01
0.249656941110D-05 0.000000000000D+00 0.000000000000D+00 0.132901588441D-05 0.000000000000D+00  7 -2 2 24 -11 11 -24 21 2 0.19821668D-01 0.19294946D+00 0.14131976D+06 0.14131976D+06 0.14131976D+06 0.11096007D+01  1  2 15  2  7  2        2 0.140676639679D-03 0.100000000000D+01
  </mgrwgt>
  </event>
  <event>
  8     66 0.27011060E-05 0.60631933E+03 0.75467711E-02 0.88725428E-01
       -2 -1    0    0    0  501 0.00000000E+00 0.00000000E+00 0.66333865E+03 0.66333873E+03 0.32000000E+00 0.0000E+00 0.9000E+01
        2 -1    0    0  501    0 0.00000000E+00 0.00000000E+00 -.16521954E+04 0.16521954E+04 0.32000000E+00 0.0000E+00 0.9000E+01
       25  2    1    2    0    0 -.69893663E+03 -.42763028E+03 -.11816343E+04 0.14689347E+04 0.30021547E+03 0.0000E+00 0.0000E+00
       23  2    1    2    0    0 0.69893663E+03 0.42763028E+03 0.19277757E+03 0.84659949E+03 0.90484457E+02 0.0000E+00 0.0000E+00
       24  1    3    3    0    0 -.30415238E+03 -.46766011E+02 -.41704497E+03 0.52448971E+03 0.80419002E+02 0.0000E+00 0.9000E+01
      -11  1    4    4    0    0 0.33032497E+02 0.46385129E+02 0.16621786E+02 0.59321243E+02 0.51099893E-03 0.0000E+00 0.9000E+01
       11  1    4    4    0    0 0.66590413E+03 0.38124515E+03 0.17615578E+03 0.78727825E+03 0.51099893E-03 0.0000E+00 0.9000E+01
      -24  1    3    3    0    0 -.39478425E+03 -.38086427E+03 -.76458935E+03 0.94444496E+03 0.80419002E+02 0.0000E+00 0.9000E+01
#aMCatNLO 1  0  0  2  1 0.45273334D+02 0.00000000D+00  -5  7  0 0.00000000D+00 0.00000000D+00 0.00000000D+00 0.00000000D+00 0.00000000D+00
  <mgrwgt>
 0.1324344297D-02    9    2    0
 0.104688356308534D+04 0.000000000000000D+00 0.000000000000000D+00 0.104688356308534D+04
 0.104688356308534D+04 0.000000000000000D+00 0.000000000000000D+00 -.104688356308534D+04
 0.383077990617633D+03 -.304152382545193D+03 -.467660107436996D+02 -.213508312185910D+03
 0.734546487342139D+02 0.330324968543820D+02 0.463851293288569D+02 0.463989153900951D+02
 0.953860861739533D+03 0.665904133524610D+03 0.381245150921769D+03 0.566634241298530D+03
 0.683373625079307D+03 -.394784247833799D+03 -.380864269506927D+03 -.399524844502716D+03
 0.000000000000000D+00 -.000000000000000D+00 -.000000000000000D+00 -.000000000000000D+00
 0.105131686294495D+04 0.000000000000000D+00 0.000000000000000D+00 0.105131686294495D+04
 0.116946497639712D+04 0.000000000000000D+00 0.000000000000000D+00 -.116946497639712D+04
 0.376557891081813D+03 -.295946225500201D+03 -.464613992613325D+02 -.213508312185910D+03
 0.742227905763915D+02 0.346278194137561D+02 0.464443474948024D+02 0.463989153900951D+02
 0.968778490569717D+03 0.686673927113921D+03 0.382016122958864D+03 0.566634241298530D+03
 0.674697367313136D+03 -.380113345483993D+03 -.380319687519532D+03 -.399524844502716D+03
 0.126525299801010D+03 -.452421755434838D+02 -.167938367280236D+01 -.118148113452173D+03
0.827122585734D-03 0.000000000000D+00 0.000000000000D+00 0.192791623508D-04 0.000000000000D+00  7 -2 2 24 -11 11 -24 21 0 0.10205211D+00 0.25418392D+00 0.71973316D+06 0.71973316D+06 0.71973316D+06 0.10575060D+01  1  2  2  2  7  2        2 0.841107868795D-03 0.100000000000D+01
-.434813972593D-04 0.000000000000D+00 -.317636851560D-05 0.192791623508D-04 0.000000000000D+00  7 -2 2 24 -11 11 -24 21 2 0.10205211D+00 0.25418392D+00 0.71973316D+06 0.71973316D+06 0.71973316D+06 0.10575060D+01  1  2  3  2  7  2        2 -.494482564778D-04 0.100000000000D+01
0.518960238236D-04 0.000000000000D+00 0.000000000000D+00 0.192791623508D-04 0.000000000000D+00  7 -2 2 24 -11 11 -24 21 2 0.10205211D+00 0.25418392D+00 0.71973316D+06 0.71973316D+06 0.71973316D+06 0.10575060D+01  1  2 15  2  7  2        2 0.590176042620D-04 0.100000000000D+01
0.116356783759D-01 0.000000000000D+00 0.000000000000D+00 0.192791623508D-04 0.000000000000D+00  7 -2 2 24 -11 11 -24 21 2 0.10205211D+00 0.28444730D+00 0.75938638D+06 0.75938638D+06 0.75938638D+06 0.10559151D+01  1  2 12  2  7  2        2 0.102358790238D-01 0.100000000000D+01
-.117195483619D-01 0.000000000000D+00 0.000000000000D+00 0.192791623508D-04 0.000000000000D+00  7 -2 2 24 -11 11 -24 21 2 0.10205211D+00 0.25418392D+00 0.71973316D+06 0.71973316D+06 0.71973316D+06 0.10575060D+01  1  2  4  2  7  2        2 -.133277969368D-01 0.100000000000D+01
-.141777007480D-01 0.000000000000D+00 -.839815429316D-03 0.192791623508D-04 0.000000000000D+00  7 -2 2 24 -11 11 -24 21 2 0.10205211D+00 0.28436876D+00 0.71973316D+06 0.71973316D+06 0.71973316D+06 0.10575060D+01  1  2  5  2  7  2        2 -.125604540190D-01 0.100000000000D+01
0.141877799182D-01 0.000000000000D+00 0.834555581332D-03 0.192791623508D-04 0.000000000000D+00  7 -2 2 24 -11 11 -24 21 2 0.10205211D+00 0.25418392D+00 0.71973316D+06 0.71973316D+06 0.71973316D+06 0.10575060D+01  1  2  6  2  7  2        2 0.161347386346D-01 0.100000000000D+01
0.209038378906D-03 0.000000000000D+00 0.000000000000D+00 0.192791623508D-04 0.000000000000D+00  7 -2 21 24 -11 11 -24 -2 2 0.10205211D+00 0.28444730D+00 0.75938638D+06 0.75938638D+06 0.75938638D+06 0.10559151D+01  1  2 12  4  7  2        2 0.410819043788D-04 0.100000000000D+01
-.250743470355D-03 0.000000000000D+00 -.150560630799D-04 0.192791623508D-04 0.000000000000D+00  7 -2 21 24 -11 11 -24 -2 2 0.10205211D+00 0.28436876D+00 0.71973316D+06 0.71973316D+06 0.71973316D+06 0.10575060D+01  1  2  5  4  7  2        2 -.497815265634D-04 0.100000000000D+01
  </mgrwgt>
  </event>
  <event>
  8     66 0.27011060E-05 0.74070414E+03 0.75467711E-02 0.83758255E-01
       -2 -1    0    0    0  501 0.00000000E+00 0.00000000E+00 0.12475665E+04 0.12475665E+04 0.32000000E+00 0.0000E+00 0.9000E+01
        2 -1    0    0  501    0 0.00000000E+00 0.00000000E+00 -.10629208E+04 0.10629208E+04 0.32000000E+00 0.0000E+00 0.9000E+01
       25  2    1    2    0    0 0.10533737E+04 0.18049659E+03 -.27138650E+03 0.11430145E+04 0.30109194E+03 0.0000E+00 0.0000E+00
       23  2    1    2    0    0 -.10533737E+04 -.18049659E+03 0.45603220E+03 0.11674728E+04 0.11336780E+03 0.0000E+00 0.0000E+00
       24  1    3    3    0    0 0.68645046E+03 0.10632142E+03 -.50767249E+02 0.70111555E+03 0.80419002E+02 0.0000E+00 0.9000E+01
      -11  1    4    4    0    0 -.14076272E+03 -.33749307E+02 0.10458126E+03 0.17857884E+03 0.51099893E-03 0.0000E+00 0.9000E+01
       11  1    4    4    0    0 -.91261096E+03 -.14674728E+03 0.35145094E+03 0.98889398E+03 0.51099893E-03 0.0000E+00 0.9000E+01
      -24  1    3    3    0    0 0.36692322E+03 0.74175170E+02 -.22061925E+03 0.44189895E+03 0.80419002E+02 0.0000E+00 0.9000E+01
#aMCatNLO 1  0  0  2  1 0.70302129D+03 0.00000000D+00  -5  7  0 0.00000000D+00 0.00000000D+00 0.00000000D+00 0.00000000D+00 0.00000000D+00
  <mgrwgt>
 0.1085980451D-02    9    2    0
 0.115154869306818D+04 0.000000000000000D+00 0.000000000000000D+00 0.115154869306818D+04
 0.115154869306818D+04 0.000000000000000D+00 0.000000000000000D+00 -.115154869306818D+04
 0.707435361813593D+03 0.686450463847016D+03 0.106321419469840D+03 -.107140522847769D+03
 0.170767270914730D+03 -.140762723952206D+03 -.337493072029944D+02 0.905996723202563D+02
 0.963890234780307D+03 -.912610964654480D+03 -.146747282267874D+03 0.273296262404463D+03
 0.461004518627734D+03 0.366923224759669D+03 0.741751700010281D+02 -.256755411876950D+03
 0.000000000000000D+00 -.000000000000000D+00 0.000000000000000D+00 -.000000000000000D+00
 0.139973850300440D+04 0.000000000000000D+00 0.000000000000000D+00 0.139973850300440D+04
 0.183526325683025D+04 0.000000000000000D+00 0.000000000000000D+00 -.183526325683025D+04
 0.943836008368122D+03 0.931106570311814D+03 0.769458109579484D+02 -.107140522847769D+03
 0.137112635317788D+03 -.951465396727521D+02 -.392263958011993D+02 0.905996723202563D+02
 0.736548671943981D+03 -.660670084607222D+03 -.176997566094224D+03 0.273296262404463D+03
 0.590509433918631D+03 0.522717913730201D+03 0.554690610158072D+02 -.256755411876950D+03
 0.826995010286125D+03 -.698007859762042D+03 0.838090899216677D+02 -.435524753825846D+03
0.271786470514D-02 0.000000000000D+00 0.000000000000D+00 0.266063747281D-07 0.000000000000D+00  7 -2 2 24 -11 11 -24 21 0 0.19193331D+00 0.16352628D+00 0.11569664D+07 0.11569664D+07 0.11569664D+07 0.10436747D+01  1  2  2  2  7  2        2 0.104126659174D-02 0.100000000000D+01
-.150138410803D-03 0.000000000000D+00 -.104373160980D-04 0.266063747281D-07 0.000000000000D+00  7 -2 2 24 -11 11 -24 21 2 0.19193331D+00 0.16352628D+00 0.11569664D+07 0.11569664D+07 0.11569664D+07 0.10436747D+01  1  2  3  2  7  2        2 -.626550755072D-04 0.100000000000D+01
0.176971941394D-03 0.000000000000D+00 0.000000000000D+00 0.266063747281D-07 0.000000000000D+00  7 -2 2 24 -11 11 -24 21 2 0.19193331D+00 0.16352628D+00 0.11569664D+07 0.11569664D+07 0.11569664D+07 0.10436747D+01  1  2 15  2  7  2        2 0.738531218720D-04 0.100000000000D+01
0.439903995403D-03 0.000000000000D+00 0.000000000000D+00 0.266063747281D-07 0.000000000000D+00  7 -2 2 24 -11 11 -24 21 2 0.19193331D+00 0.26973174D+00 0.21895259D+07 0.21895259D+07 0.21895259D+07 0.10259324D+01  1  2 12  2  7  2        2 0.677311948081D-04 0.100000000000D+01
-.146708694220D-02 0.000000000000D+00 0.000000000000D+00 0.266063747281D-07 0.000000000000D+00  7 -2 2 24 -11 11 -24 21 2 0.19193331D+00 0.16352628D+00 0.11569664D+07 0.11569664D+07 0.11569664D+07 0.10436747D+01  1  2  4  2  7  2        2 -.612238018556D-03 0.100000000000D+01
-.166480485299D-02 0.000000000000D+00 -.882392040193D-03 0.266063747281D-07 0.000000000000D+00  7 -2 2 24 -11 11 -24 21 2 0.19193331D+00 0.28687934D+00 0.11569664D+07 0.11569664D+07 0.11569664D+07 0.10436747D+01  1  2  5  2  7  2        2 -.241179410906D-03 0.100000000000D+01
0.196521187949D-02 0.000000000000D+00 0.759259396538D-03 0.266063747281D-07 0.000000000000D+00  7 -2 2 24 -11 11 -24 21 2 0.19193331D+00 0.16352628D+00 0.11569664D+07 0.11569664D+07 0.11569664D+07 0.10436747D+01  1  2  6  2  7  2        2 0.820113241099D-03 0.100000000000D+01
0.248207724594D-04 0.000000000000D+00 0.000000000000D+00 0.266063747281D-07 0.000000000000D+00  7 -2 21 24 -11 11 -24 -2 2 0.19193331D+00 0.26973174D+00 0.21895259D+07 0.21895259D+07 0.21895259D+07 0.10259324D+01  1  2 12  4  7  2        2 0.906274572919D-06 0.100000000000D+01
-.582890626654D-04 0.000000000000D+00 -.547466882822D-04 0.266063747281D-07 0.000000000000D+00  7 -2 21 24 -11 11 -24 -2 2 0.19193331D+00 0.28687934D+00 0.11569664D+07 0.11569664D+07 0.11569664D+07 0.10436747D+01  1  2  5  4  7  2        2 -.181746829218D-05 0.100000000000D+01
  </mgrwgt>
  </event>
  <event>
  8     66 0.27011060E-05 0.33747483E+03 0.75467711E-02 0.89156656E-01
       -2 -1    0    0    0  501 0.00000000E+00 0.00000000E+00 0.16443381E+03 0.16443412E+03 0.32000000E+00 0.0000E+00 0.9000E+01
        2 -1    0    0  501    0 0.00000000E+00 0.00000000E+00 -.10891357E+04 0.10891358E+04 0.32000000E+00 0.0000E+00 0.9000E+01
       25  2    1    2    0    0 -.10403624E+03 0.26092613E+03 -.86246777E+03 0.95493082E+03 0.29855692E+03 0.0000E+00 0.0000E+00
       23  2    1    2    0    0 0.10403624E+03 -.26092613E+03 -.62234127E+02 0.29863905E+03 0.80038825E+02 0.0000E+00 0.0000E+00
       24  1    3    3    0    0 -.17083949E+03 0.18640773E+03 -.69490922E+03 0.74384139E+03 0.80419002E+02 0.0000E+00 0.9000E+01
      -13  1    4    4    0    0 0.60629933E+02 -.13370171E+03 0.78981061E+01 0.14701880E+03 0.10565837E+00 0.0000E+00 0.9000E+01
       13  1    4    4    0    0 0.43406308E+02 -.12722442E+03 -.70132233E+02 0.15162026E+03 0.10565837E+00 0.0000E+00 0.9000E+01
      -24  1    3    3    0    0 0.66803247E+02 0.74518397E+02 -.16755856E+03 0.21108944E+03 0.80419002E+02 0.0000E+00 0.9000E+01
#aMCatNLO 1  0  0  2  1 0.70367104D+03 0.00000000D+00  -5  7  0 0.00000000D+00 0.00000000D+00 0.00000000D+00 0.00000000D+00 0.00000000D+00
  <mgrwgt>
 0.1809456359D-02    3    2    0
 0.423191399148492D+03 0.000000000000000D+00 0.000000000000000D+00 0.423191399148492D+03
 0.423191399148492D+03 0.000000000000000D+00 0.000000000000000D+00 -.423191399148492D+03
 0.342484849912126D+03 -.170839487966895D+03 0.186407733887168D+03 -.216551801108236D+03
 0.226377293732289D+03 0.606299626768328D+02 -.133701721850008D+03 0.172321026916926D+03
 0.147941406159243D+03 0.434062779329496D+02 -.127224408884007D+03 0.617778639683886D+02
 0.129579248493326D+03 0.668032473571128D+02 0.745183968468471D+02 -.175470897770790D+02
 0.000000000000000D+00 -.000000000000000D+00 -.000000000000000D+00 0.000000000000000D+00
 0.102756354208681D+04 0.000000000000000D+00 0.000000000000000D+00 0.102756354208681D+04
 0.809739669026207D+03 0.000000000000000D+00 0.000000000000000D+00 -.809739669026207D+03
 0.375792808348675D+03 0.678058620714582D+02 0.288549304899074D+03 -.216551801108236D+03
 0.296997625683521D+03 0.234519529488238D+03 -.592759954160249D+02 0.172321026916926D+03
 0.183949206161596D+03 0.153675824035122D+03 -.800284141921526D+02 0.617778639683886D+02
 0.243949583740547D+03 0.190906952787282D+03 0.127635490638950D+03 -.175470897770790D+02
 0.736613987178674D+03 -.646908168382100D+03 -.276880385929846D+03 0.217823873060599D+03
0.471490352106D-04 0.000000000000D+00 0.000000000000D+00 0.590424048609D-08 0.000000000000D+00  7 -2 2 24 -13 13 -24 21 0 0.25297537D-01 0.16755937D+00 0.11388926D+06 0.11388926D+06 0.11388926D+06 0.11171162D+01  1  2  2  2  7  2        2 0.178815023459D-02 0.100000000000D+01
-.245624350888D-05 0.000000000000D+00 -.181064709835D-06 0.590424048609D-08 0.000000000000D+00  7 -2 2 24 -13 13 -24 21 2 0.25297537D-01 0.16755937D+00 0.11388926D+06 0.11388926D+06 0.11388926D+06 0.11171162D+01  1  2  3  2  7  2        2 -.116251708793D-03 0.100000000000D+01
0.290641348760D-05 0.000000000000D+00 0.000000000000D+00 0.590424048609D-08 0.000000000000D+00  7 -2 2 24 -13 13 -24 21 2 0.25297537D-01 0.16755937D+00 0.11388926D+06 0.11388926D+06 0.11388926D+06 0.11171162D+01  1  2 15  2  7  2        2 0.137557832996D-03 0.100000000000D+01
  </mgrwgt>
  </event>
  <event>
  8     66 0.27011060E-05 0.61174722E+03 0.75467711E-02 0.88238960E-01
       -2 -1    0    0    0  501 0.00000000E+00 0.00000000E+00 0.38590123E+03 0.38590136E+03 0.32000000E+00 0.0000E+00 0.9000E+01
        2 -1    0    0  501    0 0.00000000E+00 0.00000000E+00 -.15469074E+04 0.15469074E+04 0.32000000E+00 0.0000E+00 0.9000E+01
       25  2    1    2    0    0 0.35781090E+03 0.47628414E+03 -.11521136E+04 0.13311983E+04 0.29974623E+03 0.0000E+00 0.0000E+00
       23  2    1    2    0    0 -.35781090E+03 -.47628414E+03 -.88925257E+01 0.60161050E+03 0.83551765E+02 0.0000E+00 0.0000E+00
       24  1    3    3    0    0 0.13537963E+03 0.13924815E+03 -.64262328E+03 0.67612838E+03 0.80419002E+02 0.0000E+00 0.9000E+01
      -13  1    4    4    0    0 -.16723919E+03 -.29167024E+03 -.48178116E+01 0.33624945E+03 0.10565837E+00 0.0000E+00 0.9000E+01
       13  1    4    4    0    0 -.19057172E+03 -.18461390E+03 -.40747142E+01 0.26536105E+03 0.10565837E+00 0.0000E+00 0.9000E+01
      -24  1    3    3    0    0 0.22243128E+03 0.33703599E+03 -.50949035E+03 0.65506989E+03 0.80419002E+02 0.0000E+00 0.9000E+01
#aMCatNLO 1  0  0  1  1 0.51133088D+03 0.00000000D+00  -5  7  0 0.00000000D+00 0.00000000D+00 0.00000000D+00 0.00000000D+00 0.00000000D+00
  <mgrwgt>
 0.1120741318D-02    3    2    0
 0.772627735414966D+03 0.000000000000000D+00 0.000000000000000D+00 0.772627735414966D+03
 0.772627735414966D+03 0.000000000000000D+00 0.000000000000000D+00 -.772627735414966D+03
 0.362876750788691D+03 0.135379626255277D+03 0.139248146831446D+03 -.295794913255074D+03
 0.416961866550263D+03 -.167239149634626D+03 -.291670408918831D+03 0.246610294893964D+03
 0.328852533406506D+03 -.190571755324954D+03 -.184613727649355D+03 0.194278579271244D+03
 0.436564320084472D+03 0.222431278704303D+03 0.337035989736740D+03 -.145093960910134D+03
 0.000000000000000D+00 0.000000000000000D+00 -.000000000000000D+00 -.000000000000000D+00
 0.919011604114687D+03 0.000000000000000D+00 0.000000000000000D+00 0.919011604114687D+03
 0.143527369191874D+04 0.000000000000000D+00 0.000000000000000D+00 -.143527369191874D+04
 0.355058698076252D+03 0.261054506354535D+02 0.177266290830422D+03 -.295794913255074D+03
 0.459749812434793D+03 -.300680040635101D+03 -.245244297894596D+03 0.246610294893964D+03
 0.385874659555580D+03 -.299357614732622D+03 -.146765476271078D+03 0.194278579271244D+03
 0.426975804582220D+03 0.909951790009387D+02 0.382764603444806D+03 -.145093960910134D+03
 0.726626321384587D+03 0.482937025731331D+03 -.168021120109553D+03 -.516262087804057D+03
0.272427033734D-03 0.000000000000D+00 0.000000000000D+00 0.122882957430D-06 0.000000000000D+00  7 -2 2 24 -13 13 -24 21 0 0.59369432D-01 0.23798576D+00 0.37423466D+06 0.37423466D+06 0.37423466D+06 0.10775184D+01  1  2  2  1  7  1       -2 0.110965262533D-02 0.100000000000D+01
-.141317176000D-04 0.000000000000D+00 -.104619154123D-05 0.122882957430D-06 0.000000000000D+00  7 -2 2 24 -13 13 -24 21 2 0.59369432D-01 0.23798576D+00 0.37423466D+06 0.37423466D+06 0.37423466D+06 0.10775184D+01  1  2  3  1  7  1       -2 -.668314926458D-04 0.100000000000D+01
0.164764545116D-04 0.000000000000D+00 0.000000000000D+00 0.122882957430D-06 0.000000000000D+00  7 -2 2 24 -13 13 -24 21 2 0.59369432D-01 0.23798576D+00 0.37423466D+06 0.37423466D+06 0.37423466D+06 0.10775184D+01  1  2 15  1  7  1       -2 0.779201849121D-04 0.100000000000D+01
  </mgrwgt>
  </event>
  <event>
  8     66 0.27011060E-05 0.29950415E+03 0.75467711E-02 0.89140276E-01
       -2 -1    0    0    0  501 0.00000000E+00 0.00000000E+00 0.44202266E+03 0.44202278E+03 0.32000000E+00 0.0000E+00 0.9000E+01
        2 -1    0    0  501    0 0.00000000E+00 0.00000000E+00 -.22428310E+03 0.22428333E+03 0.32000000E+00 0.0000E+00 0.9000E+01
       25  2    1    2    0    0 0.22018761E+03 -.43751354E+02 0.93697896E+02 0.38749336E+03 0.30162069E+03 0.0000E+00 0.0000E+00
       23  2    1    2    0    0 -.22018761E+03 0.43751354E+02 0.12404167E+03 0.27881274E+03 0.10933181E+03 0.0000E+00 0.0000E+00
       24  1    3    3    0    0 0.63261622E+02 0.96690764E+02 0.79374207E+02 0.16161255E+03 0.80419002E+02 0.0000E+00 0.9000E+01
      -11  1    4    4    0    0 -.16226976E+03 0.59416199E+02 0.13311521E+03 0.21813166E+03 0.51099893E-03 0.0000E+00 0.9000E+01
       11  1    4    4    0    0 -.57917850E+02 -.15664844E+02 -.90735447E+01 0.60681084E+02 0.51099893E-03 0.0000E+00 0.9000E+01
      -24  1    3    3    0    0 0.15692599E+03 -.14044212E+03 0.14323689E+02 0.22588081E+03 0.80419002E+02 0.0000E+00 0.9000E+01
#aMCatNLO 1  0  0  2  1 0.74331286D+03 0.00000000D+00  -5  7  0 0.00000000D+00 0.00000000D+00 0.00000000D+00 0.00000000D+00 0.00000000D+00
  <mgrwgt>
 0.6431749359D-03    5    2    0
 0.314862393749697D+03 0.000000000000000D+00 0.000000000000000D+00 0.314862393749697D+03
 0.314862393749697D+03 0.000000000000000D+00 0.000000000000000D+00 -.314862393749697D+03
 0.143555609752865D+03 0.632616224637067D+02 0.966907642581537D+02 0.281044545860618D+02
 0.184775968998922D+03 -.162269763272367D+03 0.594161986148656D+02 0.654247505855361D+02
 0.673434605411225D+02 -.579178505576856D+02 -.156648440495656D+02 -.305822975810207D+02
 0.234049748206484D+03 0.156925991366346D+03 -.140442118823454D+03 -.629469075905771D+02
 0.000000000000000D+00 -.000000000000000D+00 0.000000000000000D+00 -.000000000000000D+00
 0.669138522011893D+03 0.000000000000000D+00 0.000000000000000D+00 0.669138522011893D+03
 0.124588944845562D+04 0.000000000000000D+00 0.000000000000000D+00 -.124588944845562D+04
 0.230949128903955D+03 0.214365410720615D+03 0.113090453234151D+02 0.281044545860618D+02
 0.845922485249295D+02 -.535860701104415D+02 -.199589865541344D+01 0.654247505855361D+02
 0.537583230353641D+02 -.905615035943070D+01 -.432743169895012D+02 -.305822975810207D+02
 0.604901162930839D+03 0.495422805289439D+03 -.331710915986550D+03 -.629469075905771D+02
 0.940827107072427D+03 -.647145995540182D+03 0.365672086308050D+03 -.576750926443728D+03
0.154339823780D-04 0.000000000000D+00 0.000000000000D+00 0.108293481141D-08 0.000000000000D+00  7 -2 2 24 -11 11 -24 21 0 0.68003513D-01 0.34505118D-01 0.89702736D+05 0.89702736D+05 0.89702736D+05 0.11256156D+01  1  2  2  2  7  2        2 0.577817568331D-03 0.100000000000D+01
-.854836376020D-06 0.000000000000D+00 -.592705561925D-07 0.108293481141D-08 0.000000000000D+00  7 -2 2 24 -11 11 -24 21 2 0.68003513D-01 0.34505118D-01 0.89702736D+05 0.89702736D+05 0.89702736D+05 0.11256156D+01  1  2  3  2  7  2        2 -.405486058526D-04 0.100000000000D+01
0.992274450264D-06 0.000000000000D+00 0.000000000000D+00 0.108293481141D-08 0.000000000000D+00  7 -2 2 24 -11 11 -24 21 2 0.68003513D-01 0.34505118D-01 0.89702736D+05 0.89702736D+05 0.89702736D+05 0.11256156D+01  1  2 15  2  7  2        2 0.470678912480D-04 0.100000000000D+01
0.129388382580D-04 0.000000000000D+00 -.871455882846D-05 0.108293481141D-08 0.000000000000D+00  7 -2 2 24 -11 11 -24 21 2 0.68003513D-01 0.23463813D+00 0.89702736D+05 0.89702736D+05 0.89702736D+05 0.11256156D+01  1  2  5  2  7  2        2 0.553459914557D-04 0.100000000000D+01
0.226364340838D-05 0.000000000000D+00 -.204393358049D-05 0.108293481141D-08 0.000000000000D+00  7 -2 21 24 -11 11 -24 -2 2 0.68003513D-01 0.23463813D+00 0.89702736D+05 0.89702736D+05 0.89702736D+05 0.11256156D+01  1  2  5  4  7  2        2 0.349209070795D-05 0.100000000000D+01
  </mgrwgt>
  </event>
  <event>
  8     66 0.27011060E-05 0.34351362E+03 0.75467711E-02 0.94313388E-01
       -2 -1    0    0    0  501 0.00000000E+00 0.00000000E+00 0.72987618E+02 0.72988320E+02 0.32000000E+00 0.0000E+00 0.9000E+01
        2 -1    0    0  501    0 0.00000000E+00 0.00000000E+00 -.18834008E+04 0.18834009E+04 0.32000000E+00 0.0000E+00 0.9000E+01
       25  2    1    2    0    0 -.48796324E+02 0.29810547E+03 -.10322551E+04 0.11166277E+04 0.30009799E+03 0.0000E+00 0.0000E+00
       23  2    1    2    0    0 0.48796324E+02 -.29810547E+03 -.77815809E+03 0.83976149E+03 0.91768173E+02 0.0000E+00 0.0000E+00
       24  1    3    3    0    0 -.94377767E+02 0.10156316E+03 -.19894270E+03 0.25547534E+03 0.80419002E+02 0.0000E+00 0.9000E+01
      -11  1    4    4    0    0 0.60370712E+02 -.28777324E+03 -.68680911E+03 0.74710429E+03 0.51099893E-03 0.0000E+00 0.9000E+01
       11  1    4    4    0    0 -.11574388E+02 -.10332225E+02 -.91348976E+02 0.92657201E+02 0.51099893E-03 0.0000E+00 0.9000E+01
      -24  1    3    3    0    0 0.45581443E+02 0.19654231E+03 -.83331244E+03 0.86115236E+03 0.80419002E+02 0.0000E+00 0.9000E+01
#aMCatNLO 1  0  0  2  1 0.28381030D+03 0.00000000D+00  -5  7  0 0.00000000D+00 0.00000000D+00 0.00000000D+00 0.00000000D+00 0.00000000D+00
  <mgrwgt>
 0.1756636787D-02    6    2    0
 0.370763610195452D+03 0.000000000000000D+00 0.000000000000000D+00 0.370763610195452D+03
 0.370763610195452D+03 0.000000000000000D+00 0.000000000000000D+00 -.370763610195452D+03
 0.188315014581615D+03 -.943777667288089D+02 0.101563159440995D+03 0.988589427120732D+02
 0.294282460111474D+03 0.603707123096973D+02 -.287773241809203D+03 0.120043626695921D+02
 0.214343456346573D+02 -.115743882756891D+02 -.103322249979247D+02 -.147888415848504D+02
 0.237495400063157D+03 0.455814426948007D+02 0.196542307366133D+03 -.960744637968149D+02
 0.000000000000000D+00 -.000000000000000D+00 -.000000000000000D+00 -.000000000000000D+00
 0.508539592886997D+03 0.000000000000000D+00 0.000000000000000D+00 0.508539592886997D+03
 0.577516746120038D+03 0.000000000000000D+00 0.000000000000000D+00 -.577516746120038D+03
 0.200815844699501D+03 -.409394712927769D+02 0.149701892653776D+03 0.988589427120732D+02
 0.258549811859476D+03 0.136289682937556D+03 -.219383278337816D+03 0.120043626695921D+02
 0.170124623039483D+02 -.629459143564630D+01 -.557603415338803D+01 -.147888415848504D+02
 0.317606079040972D+03 0.121812037441631D+03 0.265212990688396D+03 -.960744637968149D+02
 0.292072141103137D+03 -.210867657650764D+03 -.189955570850967D+03 -.689771532330418D+02
0.216959076708D-04 0.000000000000D+00 0.000000000000D+00 0.232272812848D-05 0.000000000000D+00  7 -2 2 24 -11 11 -24 21 0 0.11228920D-01 0.28975403D+00 0.11800160D+06 0.11800160D+06 0.11800160D+06 0.11158701D+01  1  2  2  2  7  2        2 0.113018123629D-02 0.100000000000D+01
-.119678801079D-05 0.000000000000D+00 -.833179981196D-07 0.232272812848D-05 0.000000000000D+00  7 -2 2 24 -11 11 -24 21 2 0.11228920D-01 0.28975403D+00 0.11800160D+06 0.11800160D+06 0.11800160D+06 0.11158701D+01  1  2  3  2  7  2        2 -.776273558112D-04 0.100000000000D+01
0.132442367084D-05 0.000000000000D+00 0.000000000000D+00 0.232272812848D-05 0.000000000000D+00  7 -2 2 24 -11 11 -24 21 2 0.11228920D-01 0.28975403D+00 0.11800160D+06 0.11800160D+06 0.11800160D+06 0.11158701D+01  1  2 15  2  7  2        2 0.859061977678D-04 0.100000000000D+01
-.835985561257D-05 0.000000000000D+00 -.602322394044D-05 0.232272812848D-05 0.000000000000D+00  7 -2 2 24 -11 11 -24 21 2 0.11228920D-01 0.50403917D+00 0.11800160D+06 0.11800160D+06 0.11800160D+06 0.11158701D+01  1  2  5  2  7  2        2 -.830751531882D-04 0.100000000000D+01
0.108128675630D-04 0.000000000000D+00 0.520498550937D-05 0.232272812848D-05 0.000000000000D+00  7 -2 2 24 -11 11 -24 21 2 0.11228920D-01 0.28975403D+00 0.11800160D+06 0.11800160D+06 0.11800160D+06 0.11158701D+01  1  2  6  2  7  2        2 0.701355887666D-03 0.100000000000D+01
-.209437155644D-06 0.000000000000D+00 -.368962384013D-06 0.232272812848D-05 0.000000000000D+00  7 -2 21 24 -11 11 -24 -2 2 0.11228920D-01 0.50403917D+00 0.11800160D+06 0.11800160D+06 0.11800160D+06 0.11158701D+01  1  2  5  4  7  2        2 -.104025953211D-06 0.100000000000D+01
  </mgrwgt>
  </event>
  <event>
  8     66 0.27011060E-05 0.48258297E+03 0.75467711E-02 0.84140845E-01
       -2 -1    0    0    0  501 0.00000000E+00 0.00000000E+00 0.13218475E+04 0.13218475E+04 0.32000000E+00 0.0000E+00 0.9000E+01
        2 -1    0    0  501    0 0.00000000E+00 0.00000000E+00 -.83033270E+03 0.83033276E+03 0.32000000E+00 0.0000E+00 0.9000E+01
       25  2    1    2    0    0 0.19627747E+03 -.86824076E+03 -.26999610E+03 0.97739538E+03 0.30006162E+03 0.0000E+00 0.0000E+00
       23  2    1    2    0    0 -.19627747E+03 0.86824076E+03 0.76151089E+03 0.11747849E+04 0.88622229E+02 0.0000E+00 0.0000E+00
       24  1    3    3    0    0 0.13170126E+03 -.16389884E+03 -.95077268E+02 0.24436643E+03 0.80419002E+02 0.0000E+00 0.9000E+01
      -11  1    4    4    0    0 0.51782772E+01 0.10632917E+03 0.90996266E+02 0.14004652E+03 0.51099893E-03 0.0000E+00 0.9000E+01
       11  1    4    4    0    0 -.20145575E+03 0.76191159E+03 0.67051462E+03 0.10347384E+04 0.51099893E-03 0.0000E+00 0.9000E+01
      -24  1    3    3    0    0 0.64576212E+02 -.70434192E+03 -.17491883E+03 0.73302895E+03 0.80419002E+02 0.0000E+00 0.9000E+01
#aMCatNLO 1  0  0  1  2 0.84533080D+03 0.00000000D+00  -5  7  0 0.00000000D+00 0.00000000D+00 0.00000000D+00 0.00000000D+00 0.00000000D+00
  <mgrwgt>
 0.1360389111D-02    8    2    0
 0.104765132881377D+04 0.000000000000000D+00 0.000000000000000D+00 0.104765132881377D+04
 0.104765132881377D+04 0.000000000000000D+00 0.000000000000000D+00 -.104765132881377D+04
 0.273303002081374D+03 0.131701256404189D+03 -.163898840949749D+03 -.154981495634826D+03
 0.122502277857261D+03 0.517827717021019D+01 0.106329170962134D+03 0.606143623926809D+02
 0.905537784391510D+03 -.201455745401610D+03 0.761911586840259D+03 0.445987662883096D+03
 0.793959593297394D+03 0.645762118272110D+02 -.704341916852644D+03 -.351620529640951D+03
 0.000000000000000D+00 -.000000000000000D+00 -.000000000000000D+00 0.000000000000000D+00
 0.182301180287554D+04 0.000000000000000D+00 0.000000000000000D+00 0.182301180287554D+04
 0.138736889703797D+04 0.000000000000000D+00 0.000000000000000D+00 -.138736889703797D+04
 0.233829671511410D+03 0.140886884396954D+03 -.658841493872012D+02 -.154981495634826D+03
 0.175001439143307D+03 0.105669232053232D+02 0.163828394693747D+03 0.606143623926809D+02
 0.127491714472746D+04 -.161961449575662D+03 0.118333309736837D+04 0.445987662883096D+03
 0.575649317687964D+03 0.893837594513056D+02 -.439634470533891D+03 -.351620529640951D+03
 0.950983126843373D+03 -.788761174779206D+02 -.841642872141029D+03 0.435642905837577D+03
0.202946416546D-02 0.000000000000D+00 0.000000000000D+00 0.403005094401D-05 0.000000000000D+00  7 -2 2 24 -11 11 -24 21 0 0.20336116D+00 0.12774350D+00 0.83861174D+06 0.83861174D+06 0.83861174D+06 0.10529905D+01  1  2  2  1  7  1       -2 0.936063101183D-03 0.100000000000D+01
-.110266092730D-03 0.000000000000D+00 -.779367676555D-05 0.403005094401D-05 0.000000000000D+00  7 -2 2 24 -11 11 -24 21 2 0.20336116D+00 0.12774350D+00 0.83861174D+06 0.83861174D+06 0.83861174D+06 0.10529905D+01  1  2  3  1  7  1       -2 -.563916241377D-04 0.100000000000D+01
0.129797868996D-03 0.000000000000D+00 0.000000000000D+00 0.403005094401D-05 0.000000000000D+00  7 -2 2 24 -11 11 -24 21 2 0.20336116D+00 0.12774350D+00 0.83861174D+06 0.83861174D+06 0.83861174D+06 0.10529905D+01  1  2 15  1  7  1       -2 0.663804480692D-04 0.100000000000D+01
0.674298216137D-05 0.000000000000D+00 0.000000000000D+00 0.403005094401D-05 0.000000000000D+00  7 -2 2 24 -11 11 -24 21 2 0.36707164D+00 0.12774350D+00 0.20089325D+07 0.20089325D+07 0.20089325D+07 0.10282728D+01  1  2 12  1  7  1       -2 0.251364438443D-06 0.100000000000D+01
-.592796984410D-03 0.000000000000D+00 -.520798238800D-03 0.403005094401D-05 0.000000000000D+00  7 -2 2 24 -11 11 -24 21 2 0.39720280D+00 0.12774350D+00 0.83861174D+06 0.83861174D+06 0.83861174D+06 0.10529905D+01  1  2  5  1  7  1       -2 -.151617651012D-04 0.100000000000D+01
0.843531952611D-03 0.000000000000D+00 0.422524820816D-03 0.403005094401D-05 0.000000000000D+00  7 -2 2 24 -11 11 -24 21 2 0.20336116D+00 0.12774350D+00 0.83861174D+06 0.83861174D+06 0.83861174D+06 0.10529905D+01  1  2  6  1  7  1       -2 0.431394054527D-03 0.100000000000D+01
0.436481475560D-06 0.000000000000D+00 0.000000000000D+00 0.403005094401D-05 0.000000000000D+00  7 21 2 24 -11 11 -24 2 2 0.36707164D+00 0.12774350D+00 0.20089325D+07 0.20089325D+07 0.20089325D+07 0.10282728D+01  1  2 12  3  7  1       -2 0.109857211468D-06 0.100000000000D+01
-.123950565886D-04 0.000000000000D+00 -.377791292715D-04 0.403005094401D-05 0.000000000000D+00  7 21 2 24 -11 11 -24 2 2 0.39720280D+00 0.12774350D+00 0.83861174D+06 0.83861174D+06 0.83861174D+06 0.10529905D+01  1  2  5  3  7  1       -2 -.225632543204D-05 0.100000000000D+01
  </mgrwgt>
  </event>
  <event>
  8     66 0.27011060E-05 0.32387506E+03 0.75467711E-02 0.90177738E-01
       -2 -1    0    0    0  501 0.00000000E+00 0.00000000E+00 0.95407897E+03 0.95407903E+03 0.32000000E+00 0.0000E+00 0.9000E+01
        2 -1    0    0  501    0 0.00000000E+00 0.00000000E+00 -.47506421E+03 0.47506432E+03 0.32000000E+00 0.0000E+00 0.9000E+01
       25  2    1    2    0    0 -.48993987E+03 0.40687311E+03 0.24067647E+03 0.74288118E+03 0.29725491E+03 0.0000E+00 0.0000E+00
       23  2    1    2    0    0 0.48993987E+03 -.40687311E+03 0.23833829E+03 0.68626217E+03 0.92540927E+02 0.0000E+00 0.0000E+00
       24  1    3    3    0    0 -.24248210E+02 0.11168398E+03 0.87992646E+02 0.16513996E+03 0.80419002E+02 0.0000E+00 0.9000E+01
      -11  1    4    4    0    0 0.14791179E+03 -.15000530E+03 0.12002770E+03 0.24245852E+03 0.51099893E-03 0.0000E+00 0.9000E+01
       11  1    4    4    0    0 0.34202808E+03 -.25686781E+03 0.11831058E+03 0.44380364E+03 0.51099893E-03 0.0000E+00 0.9000E+01
      -24  1    3    3    0    0 -.46569166E+03 0.29518913E+03 0.15268383E+03 0.57774121E+03 0.80419002E+02 0.0000E+00 0.9000E+01
#aMCatNLO 1  0  0  2  1 0.16448584D+03 0.00000000D+00  -5  7  0 0.00000000D+00 0.00000000D+00 0.00000000D+00 0.00000000D+00 0.00000000D+00
  <mgrwgt>
 0.1028504920D-02    9    2    0
 0.673237618923155D+03 0.000000000000000D+00 0.000000000000000D+00 0.673237618923155D+03
 0.673237618923155D+03 0.000000000000000D+00 0.000000000000000D+00 -.673237618923155D+03
 0.143975099172292D+03 -.242482100827331D+02 0.111683976451425D+03 0.346457347891745D+02
 0.214644083348816D+03 0.147911787068912D+03 -.150005296479612D+03 0.411411812032427D+02
 0.428961851265318D+03 0.342028081945594D+03 -.256867810703388D+03 -.323108159295868D+02
 0.558894204059885D+03 -.465691658931773D+03 0.295189130731574D+03 -.434761000628305D+02
 0.000000000000000D+00 0.000000000000000D+00 0.000000000000000D+00 -.000000000000000D+00
 0.730471666101467D+03 0.000000000000000D+00 0.000000000000000D+00 0.730471666101467D+03
 0.807746466525138D+03 0.000000000000000D+00 0.000000000000000D+00 -.807746466525138D+03
 0.138543731533757D+03 -.374174090741582D+02 0.100631804873124D+03 0.346457347891745D+02
 0.214179175228181D+03 0.127922822757263D+03 -.166780915360359D+03 0.411411812032427D+02
 0.420318039648643D+03 0.302440151275944D+03 -.290091745012207D+03 -.323108159295868D+02
 0.583443906543317D+03 -.518940066680120D+03 0.250500722644697D+03 -.434761000628305D+02
 0.181733279672707D+03 0.125994501721072D+03 0.105740132854745D+03 -.772748004236705D+02
0.291380540019D-03 0.000000000000D+00 0.000000000000D+00 0.168682377059D-06 0.000000000000D+00  7 -2 2 24 -11 11 -24 21 0 0.14678139D+00 0.73086814D-01 0.44579171D+06 0.44579171D+06 0.44579171D+06 0.10720506D+01  1  2  2  2  7  2        2 0.713195381396D-03 0.100000000000D+01
-.161864535853D-04 0.000000000000D+00 -.111897799593D-05 0.168682377059D-06 0.000000000000D+00  7 -2 2 24 -11 11 -24 21 2 0.14678139D+00 0.73086814D-01 0.44579171D+06 0.44579171D+06 0.44579171D+06 0.10720506D+01  1  2  3  2  7  2        2 -.455334183890D-04 0.100000000000D+01
0.180632748022D-04 0.000000000000D+00 0.000000000000D+00 0.168682377059D-06 0.000000000000D+00  7 -2 2 24 -11 11 -24 21 2 0.14678139D+00 0.73086814D-01 0.44579171D+06 0.44579171D+06 0.44579171D+06 0.10720506D+01  1  2 15  2  7  2        2 0.508130236624D-04 0.100000000000D+01
0.321948414137D-03 0.000000000000D+00 0.000000000000D+00 0.168682377059D-06 0.000000000000D+00  7 -2 2 24 -11 11 -24 21 2 0.14678139D+00 0.90320036D-01 0.56980946D+06 0.56980946D+06 0.56980946D+06 0.10645219D+01  1  2 12  2  7  2        2 0.692421078615D-03 0.100000000000D+01
-.322180772156D-03 0.000000000000D+00 0.000000000000D+00 0.168682377059D-06 0.000000000000D+00  7 -2 2 24 -11 11 -24 21 2 0.14678139D+00 0.73086814D-01 0.44579171D+06 0.44579171D+06 0.44579171D+06 0.10720506D+01  1  2  4  2  7  2        2 -.906312912715D-03 0.100000000000D+01
-.677827428697D-03 0.000000000000D+00 -.183761371557D-03 0.168682377059D-06 0.000000000000D+00  7 -2 2 24 -11 11 -24 21 2 0.14678139D+00 0.93393995D-01 0.44579171D+06 0.44579171D+06 0.44579171D+06 0.10720506D+01  1  2  5  2  7  2        2 -.143585882196D-02 0.100000000000D+01
0.706916043202D-03 0.000000000000D+00 0.178373206385D-03 0.168682377059D-06 0.000000000000D+00  7 -2 2 24 -11 11 -24 21 2 0.14678139D+00 0.73086814D-01 0.44579171D+06 0.44579171D+06 0.44579171D+06 0.10720506D+01  1  2  6  2  7  2        2 0.198859520347D-02 0.100000000000D+01
0.962192870512D-05 0.000000000000D+00 0.000000000000D+00 0.168682377059D-06 0.000000000000D+00  7 -2 21 24 -11 11 -24 -2 2 0.14678139D+00 0.90320036D-01 0.56980946D+06 0.56980946D+06 0.56980946D+06 0.10645219D+01  1  2 12  4  7  2        2 0.307079558794D-04 0.100000000000D+01
-.196295280241D-04 0.000000000000D+00 -.613025123247D-05 0.168682377059D-06 0.000000000000D+00  7 -2 21 24 -11 11 -24 -2 2 0.14678139D+00 0.93393995D-01 0.44579171D+06 0.44579171D+06 0.44579171D+06 0.10720506D+01  1  2  5  4  7  2        2 -.595225704338D-04 0.100000000000D+01
  </mgrwgt>
  </event>
  <event>
  8     66 0.27011060E-05 0.51168869E+03 0.75467711E-02 0.93598787E-01
       -2 -1    0    0    0  501 0.00000000E+00 0.00000000E+00 0.94531417E+03 0.94531422E+03 0.32000000E+00 0.0000E+00 0.9000E+01
        2 -1    0    0  501    0 0.00000000E+00 0.00000000E+00 -.40849854E+03 0.40849867E+03 0.32000000E+00 0.0000E+00 0.9000E+01
       25  2    1    2    0    0 -.95860441E+02 -.48205605E+03 0.62022256E+03 0.84639038E+03 0.30022224E+03 0.0000E+00 0.0000E+00
       23  2    1    2    0    0 0.95860441E+02 0.48205605E+03 -.83406937E+02 0.50742251E+03 0.94623605E+02 0.0000E+00 0.0000E+00
       24  1    3    3    0    0 -.11559331E+03 -.32371413E+03 0.55178409E+03 0.65504622E+03 0.80419002E+02 0.0000E+00 0.9000E+01
      -13  1    4    4    0    0 0.56294139E+02 0.24892862E+03 -.90690493E+02 0.27084915E+03 0.10565837E+00 0.0000E+00 0.9000E+01
       13  1    4    4    0    0 0.39566302E+02 0.23312743E+03 0.72835558E+01 0.23657335E+03 0.10565837E+00 0.0000E+00 0.9000E+01
      -24  1    3    3    0    0 0.19732871E+02 -.15834191E+03 0.68438475E+02 0.19134416E+03 0.80419002E+02 0.0000E+00 0.9000E+01
#aMCatNLO 1  0  0  1  2 0.69574739D+02 0.00000000D+00  -5  7  0 0.00000000D+00 0.00000000D+00 0.00000000D+00 0.00000000D+00 0.00000000D+00
  <mgrwgt>
 0.1240159836D-02    3    2    0
 0.621417396077127D+03 0.000000000000000D+00 0.000000000000000D+00 0.621417396077127D+03
 0.621417396077127D+03 0.000000000000000D+00 0.000000000000000D+00 -.621417396077127D+03
 0.475206921096342D+03 -.115593311553512D+03 -.323714133913273D+03 0.318122221374689D+03
 0.334206344290233D+03 0.562941594888138D+02 0.248928638625872D+03 -.215776229096626D+03
 0.254551936947945D+03 0.395662812950589D+02 0.233127407672535D+03 -.942486593024775D+02
 0.178869589819736D+03 0.197328707696393D+02 -.158341912385133D+03 -.809733297558515D+01
 0.000000000000000D+00 0.000000000000000D+00 -.000000000000000D+00 -.000000000000000D+00
 0.622880562164467D+03 0.000000000000000D+00 0.000000000000000D+00 0.622880562164467D+03
 0.309101154088355D+04 0.000000000000000D+00 0.000000000000000D+00 -.309101154088355D+04
 0.473878141041345D+03 -.139484742546594D+03 -.312146656984781D+03 0.318122221374689D+03
 0.337965840368667D+03 0.393734892497565D+02 0.257121093178368D+03 -.215776229096626D+03
 0.258644090459386D+03 0.266475367442705D+02 0.239382256098299D+03 -.942486593024775D+02
 0.174292617635621D+03 0.108426765758970D+02 -.154037560910510D+03 -.809733297558515D+01
 0.246911141354300D+04 0.626210399766697D+02 -.303191313813749D+02 -.246813097871909D+04
0.405288680606D-03 0.000000000000D+00 0.000000000000D+00 0.101090118559D-05 0.000000000000D+00  7 -2 2 24 -13 13 -24 21 0 0.14543296D+00 0.62845943D-01 0.26182532D+06 0.26182532D+06 0.26182532D+06 0.10889523D+01  1  2  2  1  7  1       -2 0.122901535447D-02 0.100000000000D+01
-.214826601755D-04 0.000000000000D+00 -.155641524849D-05 0.101090118559D-05 0.000000000000D+00  7 -2 2 24 -13 13 -24 21 2 0.14543296D+00 0.62845943D-01 0.26182532D+06 0.26182532D+06 0.26182532D+06 0.10889523D+01  1  2  3  1  7  1       -2 -.772500255013D-04 0.100000000000D+01
0.245818580981D-04 0.000000000000D+00 0.000000000000D+00 0.101090118559D-05 0.000000000000D+00  7 -2 2 24 -13 13 -24 21 2 0.14543296D+00 0.62845943D-01 0.26182532D+06 0.26182532D+06 0.26182532D+06 0.10889523D+01  1  2 15  1  7  1       -2 0.883945074509D-04 0.100000000000D+01
  </mgrwgt>
  </event>
  <event>
  9     66 0.27011060E-05 0.27641205E+03 0.75467711E-02 0.98664741E-01
       -2 -1    0    0    0  502 0.00000000E+00 0.00000000E+00 0.52627018E+03 0.52627028E+03 0.32000000E+00 0.0000E+00 0.9000E+01
        2 -1    0    0  501    0 0.00000000E+00 0.00000000E+00 -.29196990E+03 0.29197007E+03 0.32000000E+00 0.0000E+00 0.9000E+01
       25  2    1    2    0    0 0.69676020E+02 -.19419182E+03 0.27275309E+03 0.45595711E+03 0.30155832E+03 0.0000E+00 0.0000E+00
       23  2    1    2    0    0 0.66737711E+02 0.19573243E+03 -.37124315E+02 0.22585229E+03 0.82860921E+02 0.0000E+00 0.0000E+00
       24  1    3    3    0    0 -.74391717E+02 -.16237170E+03 0.12632430E+03 0.23307454E+03 0.80419002E+02 0.0000E+00 0.9000E+01
      -13  1    4    4    0    0 0.43072303E+02 0.17071651E+03 -.11744940E+01 0.17607027E+03 0.10565837E+00 0.0000E+00 0.9000E+01
       13  1    4    4    0    0 0.23665407E+02 0.25015922E+02 -.35949821E+02 0.49782011E+02 0.10565837E+00 0.0000E+00 0.9000E+01
      -24  1    3    3    0    0 0.14406774E+03 -.31820126E+02 0.14642879E+03 0.22288257E+03 0.80419002E+02 0.0000E+00 0.9000E+01
       21  1    1    2  501  502 -.13641373E+03 -.15406125E+01 -.13284937E+01 0.13643096E+03 0.75000000E+00 0.0000E+00 0.9000E+01
#aMCatNLO 2  0  0  1  2 0.13642243D+03 0.00000000D+00  -5  7  0 0.00000000D+00 0.00000000D+00 0.00000000D+00 0.00000000D+00 0.00000000D+00
  <mgrwgt>
 0.2359613553D-03    1    2    0
 0.312542815949698D+03 0.000000000000000D+00 0.000000000000000D+00 0.312542815949698D+03
 0.312542815949698D+03 0.000000000000000D+00 0.000000000000000D+00 -.312542815949698D+03
 0.223241368705466D+03 -.120236993248199D+03 -.162889458315193D+03 0.487809652583340D+02
 0.182670286501509D+03 0.308984276768953D+01 0.170265198749443D+03 -.660957527911365D+02
 0.626245497208870D+02 0.976232007637225D+01 0.248586711689571D+02 -.566443095304724D+02
 0.156549426971534D+03 0.107384830404137D+03 -.322344116032069D+02 0.739590970632749D+02
 0.000000000000000D+00 -.000000000000000D+00 -.000000000000000D+00 -.000000000000000D+00
 0.367007324248614D+03 0.000000000000000D+00 0.000000000000000D+00 0.367007324248614D+03
 0.418668457353400D+03 0.000000000000000D+00 0.000000000000000D+00 -.418668457353400D+03
 0.201855130861451D+03 -.743917164406520D+02 -.162371696592115D+03 0.487809652583340D+02
 0.188064038861925D+03 0.430723356502737D+02 0.170716748087769D+03 -.660957527911365D+02
 0.662903643365481D+02 0.236653748547705D+02 0.250156877713069D+02 -.566443095304724D+02
 0.183589752026887D+03 0.144067736121218D+03 -.318201267347501D+02 0.739590970632749D+02
 0.145876495515204D+03 -.136413730185610D+03 -.154061253221078D+01 -.516611331047860D+02
0.999724087059D-05 0.000000000000D+00 0.000000000000D+00 0.356357670717D-08 0.128988079855D-11  7 -2 2 24 -13 13 -24 21 2 0.80964460D-01 0.44918354D-01 0.12632003D+06 0.12632003D+06 0.12632003D+06 0.11134890D+01  1  2  1  1  7  1       -2 0.235961355348D-03 0.100000000000D+01
  </mgrwgt>
  </event>
  <event>
  8     66 0.27011060E-05 0.15197408E+03 0.75467711E-02 0.10194949E+00
       -2 -1    0    0    0  501 0.00000000E+00 0.00000000E+00 0.50284435E+02 0.50285453E+02 0.32000000E+00 0.0000E+00 0.9000E+01
        2 -1    0    0  501    0 0.00000000E+00 0.00000000E+00 -.27572466E+04 0.27572466E+04 0.32000000E+00 0.0000E+00 0.9000E+01
       25  2    1    2    0    0 -.19190599E+03 -.51379619E+02 -.68337545E+03 0.77220304E+03 0.29971279E+03 0.0000E+00 0.0000E+00
       23  2    1    2    0    0 0.19190599E+03 0.51379619E+02 -.20235867E+04 0.20353290E+04 0.90516836E+02 0.0000E+00 0.0000E+00
       24  1    3    3    0    0 -.19327412E+03 0.22339464E+02 -.59704599E+03 0.63307588E+03 0.80419002E+02 0.0000E+00 0.9000E+01
      -13  1    4    4    0    0 0.38712489E+02 -.13219680E+02 -.72339154E+03 0.72454727E+03 0.10565837E+00 0.0000E+00 0.9000E+01
       13  1    4    4    0    0 0.15319350E+03 0.64599299E+02 -.13001952E+04 0.13107818E+04 0.10565837E+00 0.0000E+00 0.9000E+01
      -24  1    3    3    0    0 0.13681318E+01 -.73719083E+02 -.86329456E+02 0.13912716E+03 0.80419002E+02 0.0000E+00 0.9000E+01
#aMCatNLO 1  0  0  2  1 0.19509574D+02 0.00000000D+00  -5  7  0 0.00000000D+00 0.00000000D+00 0.00000000D+00 0.00000000D+00 0.00000000D+00
  <mgrwgt>
 0.2068522088D-02    9    2    0
 0.372354726728023D+03 0.000000000000000D+00 0.000000000000000D+00 0.372354726728023D+03
 0.372354726728023D+03 0.000000000000000D+00 0.000000000000000D+00 -.372354726728023D+03
 0.216460161002998D+03 -.193274123402706D+03 0.223394644436715D+02 0.503373310611385D+02
 0.102047927472462D+03 0.387123334100805D+02 -.132197862389352D+02 -.934899566540086D+02
 0.215497197538124D+03 0.153193658269062D+03 0.645994050334429D+02 -.137104566234141D+03
 0.210704167442462D+03 0.136813172356379D+01 -.737190832381791D+02 0.180257191827012D+03
 0.000000000000000D+00 -.000000000000000D+00 0.000000000000000D+00 -.000000000000000D+00
 0.380086197691805D+03 0.000000000000000D+00 0.000000000000000D+00 0.380086197691805D+03
 0.384996868694852D+03 0.000000000000000D+00 0.000000000000000D+00 -.384996868694852D+03
 0.211504283286579D+03 -.187883301333866D+03 0.208053857385064D+02 0.503373310611385D+02
 0.103153172553772D+03 0.412971336974222D+02 -.139553488353776D+02 -.934899566540086D+02
 0.218967976301766D+03 0.158666366290792D+03 0.630420238532610D+02 -.137104566234141D+03
 0.211339529134793D+03 0.668437353729772D+01 -.752319384676435D+02 0.180257191827012D+03
 0.201181051097463D+02 -.187645721916458D+02 0.533987771125373D+01 -.491067100304708D+01
0.196537967307D-04 0.000000000000D+00 0.000000000000D+00 0.174402457948D-05 0.000000000000D+00  7 -2 2 24 -13 13 -24 21 0 0.77361467D-02 0.42419186D+00 0.69377914D+05 0.69377914D+05 0.69377914D+05 0.11349893D+01  1  2  2  2  7  2        2 0.599846845870D-03 0.100000000000D+01
-.932776914772D-06 0.000000000000D+00 -.754757544094D-07 0.174402457948D-05 0.000000000000D+00  7 -2 2 24 -13 13 -24 21 2 0.77361467D-02 0.42419186D+00 0.69377914D+05 0.69377914D+05 0.69377914D+05 0.11349893D+01  1  2  3  2  7  2        2 -.366737457321D-04 0.100000000000D+01
0.123112371040D-05 0.000000000000D+00 0.000000000000D+00 0.174402457948D-05 0.000000000000D+00  7 -2 2 24 -13 13 -24 21 2 0.77361467D-02 0.42419186D+00 0.69377914D+05 0.69377914D+05 0.69377914D+05 0.11349893D+01  1  2 15  2  7  2        2 0.484037685808D-04 0.100000000000D+01
0.359513721513D-04 0.000000000000D+00 0.000000000000D+00 0.174402457948D-05 0.000000000000D+00  7 -2 2 24 -13 13 -24 21 2 0.77361467D-02 0.44287690D+00 0.75510956D+05 0.75510956D+05 0.75510956D+05 0.11318724D+01  1  2 12  2  7  2        2 0.118584894155D-02 0.100000000000D+01
-.320757411586D-04 0.000000000000D+00 0.000000000000D+00 0.174402457948D-05 0.000000000000D+00  7 -2 2 24 -13 13 -24 21 2 0.77361467D-02 0.42419186D+00 0.69377914D+05 0.69377914D+05 0.69377914D+05 0.11349893D+01  1  2  4  2  7  2        2 -.126111351685D-02 0.100000000000D+01
-.258397363790D-03 0.000000000000D+00 -.408162122925D-04 0.174402457948D-05 0.000000000000D+00  7 -2 2 24 -13 13 -24 21 2 0.77361467D-02 0.44179677D+00 0.69377914D+05 0.69377914D+05 0.69377914D+05 0.11349893D+01  1  2  5  2  7  2        2 -.868141018359D-02 0.100000000000D+01
0.259875950988D-03 0.000000000000D+00 0.407824892787D-04 0.174402457948D-05 0.000000000000D+00  7 -2 2 24 -13 13 -24 21 2 0.77361467D-02 0.42419186D+00 0.69377914D+05 0.69377914D+05 0.69377914D+05 0.11349893D+01  1  2  6  2  7  2        2 0.102174747225D-01 0.100000000000D+01
0.495698931338D-06 0.000000000000D+00 0.000000000000D+00 0.174402457948D-05 0.000000000000D+00  7 -2 21 24 -13 13 -24 -2 2 0.77361467D-02 0.44287690D+00 0.75510956D+05 0.75510956D+05 0.75510956D+05 0.11318724D+01  1  2 12  4  7  2        2 0.136957602111D-05 0.100000000000D+01
-.183132033843D-05 0.000000000000D+00 -.293071387082D-06 0.174402457948D-05 0.000000000000D+00  7 -2 21 24 -13 13 -24 -2 2 0.77361467D-02 0.44179677D+00 0.69377914D+05 0.69377914D+05 0.69377914D+05 0.11349893D+01  1  2  5  4  7  2        2 -.522432049608D-05 0.100000000000D+01
  </mgrwgt>
  </event>
  <event>
  8     66 0.27011060E-05 0.14797478E+03 0.75467711E-02 0.99168942E-01
       -2 -1    0    0    0  501 0.00000000E+00 0.00000000E+00 0.36996615E+02 0.36997999E+02 0.32000000E+00 0.0000E+00 0.9000E+01
        2 -1    0    0  501    0 0.00000000E+00 0.00000000E+00 -.11659322E+04 0.11659322E+04 0.32000000E+00 0.0000E+00 0.9000E+01
       25  2    1    2    0    0 -.39775503E+02 -.20945195E+02 -.70671208E+03 0.76862478E+03 0.29886670E+03 0.0000E+00 0.0000E+00
       23  2    1    2    0    0 0.39775503E+02 0.20945195E+02 -.42222348E+03 0.43430543E+03 0.91256505E+02 0.0000E+00 0.0000E+00
       24  1    3    3    0    0 0.34131095E+02 -.13356396E+02 -.62699488E+03 0.63319280E+03 0.80419002E+02 0.0000E+00 0.9000E+01
      -11  1    4    4    0    0 -.15378815E+02 -.22930245E+02 -.73121678E+02 0.78160628E+02 0.51099893E-03 0.0000E+00 0.9000E+01
       11  1    4    4    0    0 0.55154317E+02 0.43875440E+02 -.34910180E+03 0.35614480E+03 0.51099893E-03 0.0000E+00 0.9000E+01
      -24  1    3    3    0    0 -.73906598E+02 -.75887983E+01 -.79717201E+02 0.13543199E+03 0.80419002E+02 0.0000E+00 0.9000E+01
#aMCatNLO 1  0  0  2  2 0.27679672D+03 0.00000000D+00  -5  7  0 0.00000000D+00 0.00000000D+00 0.00000000D+00 0.00000000D+00 0.00000000D+00
  <mgrwgt>
 0.3297042212D-02    3    2    0
 0.207693048385380D+03 0.000000000000000D+00 0.000000000000000D+00 0.207693048385380D+03
 0.207693048385380D+03 0.000000000000000D+00 0.000000000000000D+00 -.207693048385380D+03
 0.129638270384958D+03 0.341310950071096D+02 -.133563964103770D+02 -.948448218016018D+02
 0.276179666398165D+02 -.153788142111795D+02 -.229302448875786D+02 0.669346077688244D+00
 0.825831871096123D+02 0.551543176904569D+02 0.438754399031534D+02 -.430456711712824D+02
 0.175546672636373D+03 -.739065984863870D+02 -.758879860519781D+01 0.137221146895196D+03
 0.000000000000000D+00 0.000000000000000D+00 -.000000000000000D+00 0.000000000000000D+00
 0.929254792516116D+03 0.000000000000000D+00 0.000000000000000D+00 0.929254792516116D+03
 0.277761975705673D+03 0.000000000000000D+00 0.000000000000000D+00 -.277761975705673D+03
 0.142888864788742D+03 0.191033710775844D+02 0.677460900505666D+02 -.948448218016018D+02
 0.200309765324649D+02 -.180062779427095D+02 -.875019721619667D+01 0.669346077688244D+00
 0.121290076269879D+03 0.439123137823850D+02 0.104546934403857D+03 -.430456711712824D+02
 0.214951415344927D+03 -.954394908255302D+02 0.108621155582821D+03 0.137221146895196D+03
 0.707855435285776D+03 0.504300839082704D+02 -.272163982821047D+03 0.651492816810443D+03
0.906236140369D-05 0.000000000000D+00 0.000000000000D+00 0.828532045195D-07 0.000000000000D+00  7 -2 2 24 -11 11 -24 21 0 0.56918967D-02 0.17937429D+00 0.21896535D+05 0.21896535D+05 0.21896535D+05 0.11802401D+01  1  2  2  2  7  2        2 0.321820280926D-02 0.100000000000D+01
-.433108789077D-06 0.000000000000D+00 -.348018539647D-07 0.828532045195D-07 0.000000000000D+00  7 -2 2 24 -11 11 -24 21 2 0.56918967D-02 0.17937429D+00 0.21896535D+05 0.21896535D+05 0.21896535D+05 0.11802401D+01  1  2  3  2  7  2        2 -.214244540188D-03 0.100000000000D+01
0.592487590565D-06 0.000000000000D+00 0.000000000000D+00 0.828532045195D-07 0.000000000000D+00  7 -2 2 24 -11 11 -24 21 2 0.56918967D-02 0.17937429D+00 0.21896535D+05 0.21896535D+05 0.21896535D+05 0.11802401D+01  1  2 15  2  7  2        2 0.293083942439D-03 0.100000000000D+01
  </mgrwgt>
  </event>
  <event>
  8     66 0.27011060E-05 0.22051575E+03 0.75467711E-02 0.92448426E-01
       -2 -1    0    0    0  501 0.00000000E+00 0.00000000E+00 0.96306750E+02 0.96307282E+02 0.32000000E+00 0.0000E+00 0.9000E+01
        2 -1    0    0  501    0 0.00000000E+00 0.00000000E+00 -.29297489E+04 0.29297489E+04 0.32000000E+00 0.0000E+00 0.9000E+01
       25  2    1    2    0    0 0.44553023E+03 0.47732682E+02 -.99892368E+03 0.11351188E+04 0.29978419E+03 0.0000E+00 0.0000E+00
       23  2    1    2    0    0 -.44553023E+03 -.47732682E+02 -.18345185E+04 0.18909374E+04 0.97008549E+02 0.0000E+00 0.0000E+00
       24  1    3    3    0    0 0.14389222E+03 0.52653748E+02 -.62230678E+03 0.64591821E+03 0.80419002E+02 0.0000E+00 0.9000E+01
      -11  1    4    4    0    0 -.19398640E+02 -.19857229E+02 -.66195395E+02 0.71780548E+02 0.51099893E-03 0.0000E+00 0.9000E+01
       11  1    4    4    0    0 -.42613159E+03 -.27875453E+02 -.17683231E+04 0.18191568E+04 0.51099893E-03 0.0000E+00 0.9000E+01
      -24  1    3    3    0    0 0.30163801E+03 -.49210660E+01 -.37661690E+03 0.48920058E+03 0.80419002E+02 0.0000E+00 0.9000E+01
#aMCatNLO 1  0  0  1  2 0.24277060D+03 0.00000000D+00  -5  7  0 0.00000000D+00 0.00000000D+00 0.00000000D+00 0.00000000D+00 0.00000000D+00
  <mgrwgt>
 0.6189941149D-03    7    2    0
 0.531183041931887D+03 0.000000000000000D+00 0.000000000000000D+00 0.531183041931887D+03
 0.531183041931887D+03 0.000000000000000D+00 0.000000000000000D+00 -.531183041931887D+03
 0.180083441192693D+03 0.143892222327276D+03 0.526537477947769D+02 -.498541977602032D+02
 0.279104827536695D+02 -.193986400123777D+02 -.198572288550656D+02 0.289452507513937D+01
 0.465404304021632D+03 -.426131592076527D+03 -.278754529371256D+02 -.185029704533445D+03
 0.388967855895780D+03 0.301638009761629D+03 -.492106600258570D+01 0.231989377218509D+03
 0.000000000000000D+00 -.000000000000000D+00 0.000000000000000D+00 0.000000000000000D+00
 0.117284891389538D+04 0.000000000000000D+00 0.000000000000000D+00 0.117284891389538D+04
 0.568339381312947D+03 0.000000000000000D+00 0.000000000000000D+00 -.568339381312947D+03
 0.212666474420889D+03 0.186268904087375D+03 0.397274177869019D+02 -.498541977602032D+02
 0.257138281521678D+02 -.136127180617361D+02 -.216221319439201D+02 0.289452507513937D+01
 0.386117921227400D+03 -.334254586082381D+03 -.559010663237332D+02 -.185029704533445D+03
 0.465253703367608D+03 0.393806266788412D+03 -.330355208653692D+02 0.231989377218509D+03
 0.651436368040265D+03 -.232207866731669D+03 0.708313013461206D+02 0.604509532582435D+03
0.103567947529D-03 0.000000000000D+00 0.000000000000D+00 0.326029281721D-06 0.000000000000D+00  7 -2 2 24 -11 11 -24 21 0 0.14816465D-01 0.45073064D+00 0.22092838D+06 0.22092838D+06 0.22092838D+06 0.10945212D+01  1  2  2  1  7  1       -2 0.860008060925D-03 0.100000000000D+01
-.564912070112D-05 0.000000000000D+00 -.397728188578D-06 0.326029281721D-06 0.000000000000D+00  7 -2 2 24 -11 11 -24 21 2 0.14816465D-01 0.45073064D+00 0.22092838D+06 0.22092838D+06 0.22092838D+06 0.10945212D+01  1  2  3  1  7  1       -2 -.561961248057D-04 0.100000000000D+01
0.643834839414D-05 0.000000000000D+00 0.000000000000D+00 0.326029281721D-06 0.000000000000D+00  7 -2 2 24 -11 11 -24 21 2 0.14816465D-01 0.45073064D+00 0.22092838D+06 0.22092838D+06 0.22092838D+06 0.10945212D+01  1  2 15  1  7  1       -2 0.640471763735D-04 0.100000000000D+01
0.120976736334D-03 0.000000000000D+00 0.000000000000D+00 0.326029281721D-06 0.000000000000D+00  7 -2 2 24 -11 11 -24 21 2 0.32599403D-01 0.45073064D+00 0.37042263D+06 0.37042263D+06 0.37042263D+06 0.10778410D+01  1  2 12  1  7  1       -2 0.296636788086D-03 0.100000000000D+01
-.188101320251D-03 0.000000000000D+00 -.314229086475D-04 0.326029281721D-06 0.000000000000D+00  7 -2 2 24 -11 11 -24 21 2 0.35238348D-01 0.45073064D+00 0.22092838D+06 0.22092838D+06 0.22092838D+06 0.10945212D+01  1  2  5  1  7  1       -2 -.427037453196D-03 0.100000000000D+01
0.103401163179D-04 0.000000000000D+00 0.000000000000D+00 0.326029281721D-06 0.000000000000D+00  7 21 2 24 -11 11 -24 2 2 0.32599403D-01 0.45073064D+00 0.37042263D+06 0.37042263D+06 0.37042263D+06 0.10778410D+01  1  2 12  3  7  1       -2 0.286099458170D-03 0.100000000000D+01
-.158294272382D-04 0.000000000000D+00 -.297496188946D-05 0.326029281721D-06 0.000000000000D+00  7 21 2 24 -11 11 -24 2 2 0.35238348D-01 0.45073064D+00 0.22092838D+06 0.22092838D+06 0.22092838D+06 0.10945212D+01  1  2  5  3  7  1       -2 -.404563790702D-03 0.100000000000D+01
  </mgrwgt>
  </event>
  <event>
  8     66 0.27011060E-05 0.20299692E+03 0.75467711E-02 0.10285760E+00
       -2 -1    0    0    0  501 0.00000000E+00 0.00000000E+00 0.81016430E+02 0.81017062E+02 0.32000000E+00 0.0000E+00 0.9000E+01
        2 -1    0    0  501    0 0.00000000E+00 0.00000000E+00 -.60612905E+03 0.60612913E+03 0.32000000E+00 0.0000E+00 0.9000E+01
       25  2    1    2    0    0 0.40994992E+02 0.46673887E+02 -.47643662E+03 0.56636860E+03 0.29987080E+03 0.0000E+00 0.0000E+00
       23  2    1    2    0    0 -.40994992E+02 -.46673887E+02 -.48675997E+02 0.12077759E+03 0.91426655E+02 0.0000E+00 0.0000E+00
       24  1    3    3    0    0 -.71587530E+02 0.10740002E+03 -.19898942E+03 0.25044669E+03 0.80419002E+02 0.0000E+00 0.9000E+01
      -11  1    4    4    0    0 -.66305459E+02 -.33317199E+02 -.13488453E+02 0.75421402E+02 0.51099893E-03 0.0000E+00 0.9000E+01
       11  1    4    4    0    0 0.25310466E+02 -.13356688E+02 -.35187544E+02 0.45356191E+02 0.51099893E-03 0.0000E+00 0.9000E+01
      -24  1    3    3    0    0 0.11258252E+03 -.60726138E+02 -.27744721E+03 0.31592192E+03 0.80419002E+02 0.0000E+00 0.9000E+01
#aMCatNLO 1  0  0  1  2 0.93098556D+02 0.00000000D+00  -5  7  0 0.00000000D+00 0.00000000D+00 0.00000000D+00 0.00000000D+00 0.00000000D+00
  <mgrwgt>
 0.9529299818D-03    4    2    0
 0.221600220839111D+03 0.000000000000000D+00 0.000000000000000D+00 0.221600220839111D+03
 0.221600220839111D+03 0.000000000000000D+00 0.000000000000000D+00 -.221600220839111D+03
 0.152530612991705D+03 -.715875296358215D+02 0.107400024174736D+03 -.117827141678524D+02
 0.100953358238703D+03 -.663054585430863D+02 -.333171987904589D+02 0.684480165660051D+02
 0.286301851150929D+02 0.253104661704238D+02 -.133566878049321D+02 -.816512609762629D+00
 0.161086285332720D+03 0.112582522008484D+03 -.607261375793446D+02 -.558487897883900D+02
 0.000000000000000D+00 0.000000000000000D+00 0.000000000000000D+00 -.000000000000000D+00
 0.239435733639609D+03 0.000000000000000D+00 0.000000000000000D+00 0.239435733639609D+03
 0.393126103803257D+03 0.000000000000000D+00 0.000000000000000D+00 -.393126103803257D+03
 0.148357222159336D+03 -.917864058100789D+02 0.835408449069682D+02 -.117827141678524D+02
 0.117497533986165D+03 -.809702671751508D+02 -.506394643987728D+02 0.684480165660051D+02
 0.279610863924065D+02 0.215114422412910D+02 -.178441450369951D+02 -.816512609762629D+00
 0.159057177851642D+03 0.910909978742073D+02 -.861122096871959D+02 -.558487897883900D+02
 0.179688817053318D+03 0.601542328697314D+02 0.710549742159955D+02 -.153690370163647D+03
0.401869786071D-05 0.000000000000D+00 0.000000000000D+00 0.637752553159D-06 0.000000000000D+00  7 -2 2 24 -11 11 -24 21 0 0.12464121D-01 0.93250678D-01 0.41207751D+05 0.41207751D+05 0.41207751D+05 0.11547573D+01  1  2  2  1  7  1       -2 0.101898175822D-02 0.100000000000D+01
-.221173925531D-06 0.000000000000D+00 -.154328579326D-07 0.637752553159D-06 0.000000000000D+00  7 -2 2 24 -11 11 -24 21 2 0.12464121D-01 0.93250678D-01 0.41207751D+05 0.41207751D+05 0.41207751D+05 0.11547573D+01  1  2  3  1  7  1       -2 -.747818868026D-04 0.100000000000D+01
0.247586745651D-06 0.000000000000D+00 0.000000000000D+00 0.637752553159D-06 0.000000000000D+00  7 -2 2 24 -11 11 -24 21 2 0.12464121D-01 0.93250678D-01 0.41207751D+05 0.41207751D+05 0.41207751D+05 0.11547573D+01  1  2 15  1  7  1       -2 0.837124174682D-04 0.100000000000D+01
-.221766685903D-06 0.000000000000D+00 0.000000000000D+00 0.637752553159D-06 0.000000000000D+00  7 -2 2 24 -11 11 -24 21 2 0.12464121D-01 0.93250678D-01 0.41207751D+05 0.41207751D+05 0.41207751D+05 0.11547573D+01  1  2  4  1  7  1       -2 -.749823070780D-04 0.100000000000D+01
  </mgrwgt>
  </event>
  <event>
  8     66 0.27011060E-05 0.16770012E+03 0.75467711E-02 0.98720637E-01
       -2 -1    0    0    0  501 0.00000000E+00 0.00000000E+00 0.14981916E+03 0.14981950E+03 0.32000000E+00 0.0000E+00 0.9000E+01
        2 -1    0    0  501    0 0.00000000E+00 0.00000000E+00 -.78103281E+03 0.78103287E+03 0.32000000E+00 0.0000E+00 0.9000E+01
       25  2    1    2    0    0 -.25414037E+03 -.60193999E+02 -.29523222E+03 0.49548904E+03 0.30022772E+03 0.0000E+00 0.0000E+00
       23  2    1    2    0    0 0.25414037E+03 0.60193999E+02 -.33598143E+03 0.43536333E+03 0.91907935E+02 0.0000E+00 0.0000E+00
       24  1    3    3    0    0 -.24221701E+03 -.13295882E+03 -.19766481E+03 0.34912135E+03 0.80419002E+02 0.0000E+00 0.9000E+01
      -11  1    4    4    0    0 0.21148844E+03 0.48218150E+02 -.32322069E+03 0.38926080E+03 0.51099893E-03 0.0000E+00 0.9000E+01
       11  1    4    4    0    0 0.42651926E+02 0.11975849E+02 -.12760737E+02 0.46102539E+02 0.51099893E-03 0.0000E+00 0.9000E+01
      -24  1    3    3    0    0 -.11923361E+02 0.72764818E+02 -.97567409E+02 0.14636769E+03 0.80419002E+02 0.0000E+00 0.9000E+01
#aMCatNLO 1  0  0  2  1 0.47765364D+02 0.00000000D+00  -5  7  0 0.00000000D+00 0.00000000D+00 0.00000000D+00 0.00000000D+00 0.00000000D+00
  <mgrwgt>
 0.9482075546D-03    6    2    0
 0.342072902587286D+03 0.000000000000000D+00 0.000000000000000D+00 0.342072902587286D+03
 0.342072902587286D+03 0.000000000000000D+00 0.000000000000000D+00 -.342072902587286D+03
 0.292644806847430D+03 -.242217009348500D+03 -.132958816666884D+03 0.531661590977741D+02
 0.231417083377999D+03 0.211488444835386D+03 0.482181496076792D+02 -.806319677838849D+02
 0.509539148077975D+02 0.426519255062068D+02 0.119758491619341D+02 0.251732739567954D+02
 0.109130000141346D+03 -.119233609930918D+02 0.727648178972701D+02 0.229253472931547D+01
 0.000000000000000D+00 -.000000000000000D+00 0.000000000000000D+00 0.000000000000000D+00
 0.370460353974103D+03 0.000000000000000D+00 0.000000000000000D+00 0.370460353974103D+03
 0.363605574083572D+03 0.000000000000000D+00 0.000000000000000D+00 -.363605574083572D+03
 0.299242200611160D+03 -.238278726058275D+03 -.153216470743437D+03 0.531661590977741D+02
 0.231493634254282D+03 0.214568548843658D+03 0.323747790522272D+02 -.806319677838849D+02
 0.508254767965100D+02 0.433291427321189D+02 0.849239424357893D+01 0.251732739567954D+02
 0.104249896147359D+03 -.105035790593203D+02 0.654617751349910D+02 0.229253472931547D+01
 0.482547202483649D+02 -.911538645818120D+01 0.468875223126401D+02 0.685477989053181D+01
0.104016086348D-04 0.000000000000D+00 0.000000000000D+00 0.158010571987D-05 0.000000000000D+00  7 -2 2 24 -11 11 -24 21 0 0.23049133D-01 0.12015892D+00 0.10827311D+06 0.10827311D+06 0.10827311D+06 0.11189002D+01  1  2  2  2  7  2        2 0.724775281112D-03 0.100000000000D+01
-.576808449555D-06 0.000000000000D+00 -.399449159640D-07 0.158010571987D-05 0.000000000000D+00  7 -2 2 24 -11 11 -24 21 2 0.23049133D-01 0.12015892D+00 0.10827311D+06 0.10827311D+06 0.10827311D+06 0.11189002D+01  1  2  3  2  7  2        2 -.503172817801D-04 0.100000000000D+01
0.661302070013D-06 0.000000000000D+00 0.000000000000D+00 0.158010571987D-05 0.000000000000D+00  7 -2 2 24 -11 11 -24 21 2 0.23049133D-01 0.12015892D+00 0.10827311D+06 0.10827311D+06 0.10827311D+06 0.11189002D+01  1  2 15  2  7  2        2 0.576879943841D-04 0.100000000000D+01
0.131446705146D-04 0.000000000000D+00 0.000000000000D+00 0.158010571987D-05 0.000000000000D+00  7 -2 2 24 -11 11 -24 21 2 0.23049133D-01 0.13236422D+00 0.12518227D+06 0.12518227D+06 0.12518227D+06 0.11138043D+01  1  2 12  2  7  2        2 0.100285742988D-02 0.100000000000D+01
-.918518994264D-05 0.000000000000D+00 0.000000000000D+00 0.158010571987D-05 0.000000000000D+00  7 -2 2 24 -11 11 -24 21 2 0.23049133D-01 0.12015892D+00 0.10827311D+06 0.10827311D+06 0.10827311D+06 0.11189002D+01  1  2  4  2  7  2        2 -.801260437333D-03 0.100000000000D+01
0.207464031963D-06 0.000000000000D+00 0.000000000000D+00 0.158010571987D-05 0.000000000000D+00  7 -2 21 24 -11 11 -24 -2 2 0.23049133D-01 0.13236422D+00 0.12518227D+06 0.12518227D+06 0.12518227D+06 0.11138043D+01  1  2 12  4  7  2        2 0.144645683366D-04 0.100000000000D+01
  </mgrwgt>
  </event>
  <event>
  9     66 0.27011060E-05 0.25760339E+03 0.75467711E-02 0.10149707E+00
       -2 -1    0    0    0  502 0.00000000E+00 0.00000000E+00 0.62252563E+03 0.62252571E+03 0.32000000E+00 0.0000E+00 0.9000E+01
        2 -1    0    0  501    0 0.00000000E+00 0.00000000E+00 -.15469333E+03 0.15469366E+03 0.32000000E+00 0.0000E+00 0.9000E+01
       25  2    1    2    0    0 -.45833932E+01 -.15517512E+03 0.38984653E+03 0.51438421E+03 0.29750710E+03 0.0000E+00 0.0000E+00
       23  2    1    2    0    0 -.41474230E+02 0.17233005E+03 0.57987089E+02 0.20976816E+03 0.96033435E+02 0.0000E+00 0.0000E+00
       24  1    3    3    0    0 -.11267094E+03 -.12789618E+03 0.28423269E+03 0.34103902E+03 0.80419002E+02 0.0000E+00 0.9000E+01
      -13  1    4    4    0    0 -.64660584E+02 0.11516597E+03 0.11598244E+02 0.13258478E+03 0.10565837E+00 0.0000E+00 0.9000E+01
       13  1    4    4    0    0 0.23186354E+02 0.57164082E+02 0.46388845E+02 0.77183388E+02 0.10565837E+00 0.0000E+00 0.9000E+01
      -24  1    3    3    0    0 0.10808754E+03 -.27278947E+02 0.10561384E+03 0.17334520E+03 0.80419002E+02 0.0000E+00 0.9000E+01
       21  1    1    2  501  502 0.46057623E+02 -.17154932E+02 0.19998683E+02 0.53066997E+02 0.75000000E+00 0.0000E+00 0.9000E+01
#aMCatNLO 2  0  0  1  1 0.49148717D+02 0.00000000D+00  -5  7  0 0.00000000D+00 0.00000000D+00 0.00000000D+00 0.00000000D+00 0.00000000D+00
  <mgrwgt>
 0.2955522487D-03    1    2    0
 0.283472271932898D+03 0.000000000000000D+00 0.000000000000000D+00 0.283472271932898D+03
 0.283472271932898D+03 0.000000000000000D+00 0.000000000000000D+00 -.283472271932898D+03
 0.205804893985491D+03 -.958007647284789D+02 -.134179770335440D+03 0.933083122994739D+02
 0.151450051576742D+03 -.520501471800623D+02 0.110469080297807D+03 -.895794764401329D+02
 0.620964437802125D+02 0.282059624081578D+02 0.552943983376242D+02 -.170924757095879D+01
 0.147593154523350D+03 0.119644949500383D+03 -.315837082999913D+02 -.201958828838221D+01
 0.000000000000000D+00 0.000000000000000D+00 -.000000000000000D+00 -.000000000000000D+00
 0.302271723297198D+03 0.000000000000000D+00 0.000000000000000D+00 0.302271723297198D+03
 0.318584294369996D+03 0.000000000000000D+00 0.000000000000000D+00 -.318584294369996D+03
 0.210299388898272D+03 -.112670935001961D+03 -.127896193368779D+03 0.933083122994739D+02
 0.159589181692591D+03 -.646606514282309D+02 0.115166073437012D+03 -.895794764401329D+02
 0.617110664904213D+02 0.231864183531765D+02 0.571640114414467D+02 -.170924757095879D+01
 0.137471283075712D+03 0.108087544784715D+03 -.272789596881825D+02 -.201958828838221D+01
 0.517850975101977D+02 0.460576232922994D+02 -.171549318214974D+02 -.163125710727983D+02
0.870589396926D-05 0.000000000000D+00 0.000000000000D+00 0.253972664558D-08 0.718748106698D-11  7 -2 2 24 -13 13 -24 21 2 0.95772361D-01 0.23798795D-01 0.80893323D+05 0.80893323D+05 0.80893323D+05 0.11293581D+01  1  2  1  1  7  1       -2 0.295552248736D-03 0.100000000000D+01
  </mgrwgt>
  </event>
  <event>
  9     66 0.27011060E-05 0.19496909E+03 0.75467711E-02 0.10148973E+00
       -2 -1    0    0    0  502 0.00000000E+00 0.00000000E+00 0.81611815E+02 0.81612443E+02 0.32000000E+00 0.0000E+00 0.9000E+01
        2 -1    0    0  501    0 0.00000000E+00 0.00000000E+00 -.27121178E+04 0.27121178E+04 0.32000000E+00 0.0000E+00 0.9000E+01
       25  2    1    2    0    0 -.62200420E+02 -.97630434E+02 -.83582526E+03 0.89532865E+03 0.29934750E+03 0.0000E+00 0.0000E+00
       23  2    1    2    0    0 -.40812403E+02 -.21927468E+02 -.17212385E+04 0.17243325E+04 0.92271786E+02 0.0000E+00 0.0000E+00
       24  1    3    3    0    0 0.92102028E+02 -.66801487E+02 -.29249834E+03 0.32398721E+03 0.80419002E+02 0.0000E+00 0.9000E+01
      -13  1    4    4    0    0 0.35818176E+01 -.45085330E+02 -.49194127E+03 0.49401593E+03 0.10565837E+00 0.0000E+00 0.9000E+01
       13  1    4    4    0    0 -.44394220E+02 0.23157862E+02 -.12292972E+04 0.12303166E+04 0.10565837E+00 0.0000E+00 0.9000E+01
      -24  1    3    3    0    0 -.15430245E+03 -.30828947E+02 -.54332692E+03 0.57134143E+03 0.80419002E+02 0.0000E+00 0.9000E+01
       21  1    1    2  501  502 0.10301282E+03 0.11955790E+03 -.73442197E+02 0.17406910E+03 0.75000000E+00 0.0000E+00 0.9000E+01
#aMCatNLO 2  0  0  1  2 0.15781550D+03 0.00000000D+00  -5  7  0 0.00000000D+00 0.00000000D+00 0.00000000D+00 0.00000000D+00 0.00000000D+00
  <mgrwgt>
 0.3713811390D-03    2    2    0
 0.273470125963516D+03 0.000000000000000D+00 0.000000000000000D+00 0.273470125963516D+03
 0.273470125963516D+03 0.000000000000000D+00 0.000000000000000D+00 -.273470125963516D+03
 0.187042113741868D+03 0.125706055363648D+03 -.278002540191908D+02 0.109282523214078D+03
 0.570587833489585D+02 0.147213886821152D+02 -.321567722142476D+02 -.447764164856286D+02
 0.142276333014526D+03 -.183552270734237D+02 0.533791865491156D+02 -.130599781847054D+03
 0.160563021821678D+03 -.122072216972339D+03 0.657783968432283D+01 0.660936751186046D+02
 0.000000000000000D+00 0.000000000000000D+00 0.000000000000000D+00 0.000000000000000D+00
 0.742170753328840D+03 0.000000000000000D+00 0.000000000000000D+00 0.742170753328840D+03
 0.298235052682893D+03 0.000000000000000D+00 0.000000000000000D+00 -.298235052682893D+03
 0.177073735801685D+03 0.921020268843962D+02 -.668014874096751D+02 0.109282523214078D+03
 0.636431633549164D+02 0.358188003501098D+01 -.450854178636606D+02 -.447764164856286D+02
 0.139869389131890D+03 -.443942827591142D+02 0.231579501669217D+02 -.130599781847054D+03
 0.188667058438585D+03 -.154302446932360D+03 -.308289468762794D+02 0.660936751186046D+02
 0.471152459284657D+03 0.103012822772067D+03 0.119557901982693D+03 0.443935700645946D+03
-.143055420309D-05 0.000000000000D+00 0.000000000000D+00 0.362659300752D-06 0.000000000000D+00  7 -2 2 24 -13 13 -24 21 2 0.12368255D-01 0.38260094D+00 0.80984123D+05 0.80984123D+05 0.80984123D+05 0.11293173D+01  1  2 13  1  7  1       -2 -.385832840490D-04 0.100000000000D+01
0.209811674214D-04 0.000000000000D+00 0.000000000000D+00 0.362659300752D-06 0.142460943923D-09  7 -2 2 24 -13 13 -24 21 2 0.12555702D-01 0.41724854D+00 0.80984123D+05 0.80984123D+05 0.80984123D+05 0.11293173D+01  1  2  1  1  7  1       -2 0.409964423037D-03 0.100000000000D+01
  </mgrwgt>
  </event>
  <event>
  8     66 0.27011060E-05 0.22642487E+03 0.75467711E-02 0.96676215E-01
       -2 -1    0    0    0  501 0.00000000E+00 0.00000000E+00 0.42724817E+02 0.42726016E+02 0.32000000E+00 0.0000E+00 0.9000E+01
        2 -1    0    0  501    0 0.00000000E+00 0.00000000E+00 -.31565054E+04 0.31565055E+04 0.32000000E+00 0.0000E+00 0.9000E+01
       25  2    1    2    0    0 0.99171807E+02 -.32687875E+02 -.29921486E+04 0.30089696E+04 0.30006874E+03 0.0000E+00 0.0000E+00
       23  2    1    2    0    0 -.99171807E+02 0.32687875E+02 -.12163198E+03 0.19026183E+03 0.10247771E+03 0.0000E+00 0.0000E+00
       24  1    3    3    0    0 -.67145995E+02 -.67183011E+02 -.93332473E+03 0.94158611E+03 0.80419002E+02 0.0000E+00 0.9000E+01
      -13  1    4    4    0    0 -.30712529E+02 -.33352743E+02 -.15918394E+02 0.48052797E+02 0.10565837E+00 0.0000E+00 0.9000E+01
       13  1    4    4    0    0 -.68459279E+02 0.66040618E+02 -.10571358E+03 0.14220903E+03 0.10565837E+00 0.0000E+00 0.9000E+01
      -24  1    3    3    0    0 0.16631780E+03 0.34495136E+02 -.20588239E+04 0.20673835E+04 0.80419002E+02 0.0000E+00 0.9000E+01
#aMCatNLO 1  0  0  2  1 0.30529253D+03 0.00000000D+00  -5  7  0 0.00000000D+00 0.00000000D+00 0.00000000D+00 0.00000000D+00 0.00000000D+00
  <mgrwgt>
 0.1112346247D-02    6    2    0
 0.367237064324864D+03 0.000000000000000D+00 0.000000000000000D+00 0.367237064324864D+03
 0.367237064324864D+03 0.000000000000000D+00 0.000000000000000D+00 -.367237064324864D+03
 0.144570744519053D+03 -.671459921734031D+02 -.671830119143404D+02 -.735618301946703D+02
 0.141823379784619D+03 -.307125101907460D+02 -.333527869388235D+02 0.134380818477672D+03
 0.171266375974534D+03 -.684593056403208D+02 0.660406646864081D+02 0.142422349434605D+03
 0.276813628371522D+03 0.166317808004470D+03 0.344951341667558D+02 -.203241337717607D+03
 0.000000000000000D+00 -.000000000000000D+00 -.000000000000000D+00 -.000000000000000D+00
 0.512597126996920D+03 0.000000000000000D+00 0.000000000000000D+00 0.512597126996920D+03
 0.600493101654342D+03 0.000000000000000D+00 0.000000000000000D+00 -.600493101654342D+03
 0.122286069099382D+03 -.531569229567353D+02 -.158008044602295D+02 -.735618301946703D+02
 0.136857099035737D+03 -.161036251685096D+02 0.203060197522916D+02 0.134380818477672D+03
 0.204483722504051D+03 -.487618729065907D+02 0.138389836697939D+03 0.142422349434605D+03
 0.331769724493856D+03 0.198220739512595D+03 0.151675413980631D+03 -.203241337717607D+03
 0.317693613518237D+03 -.801983184807599D+02 -.294570465970632D+03 -.878959746574216D+02
0.366944646893D-04 0.000000000000D+00 0.000000000000D+00 0.351340142964D-07 0.000000000000D+00  7 -2 2 24 -13 13 -24 21 0 0.65731423D-02 0.48561631D+00 0.51268222D+05 0.51268222D+05 0.51268222D+05 0.11463398D+01  1  2  2  2  7  2        2 0.823391041261D-03 0.100000000000D+01
-.145892304537D-05 0.000000000000D+00 -.140916406281D-06 0.351340142964D-07 0.000000000000D+00  7 -2 2 24 -13 13 -24 21 2 0.65731423D-02 0.48561631D+00 0.51268222D+05 0.51268222D+05 0.51268222D+05 0.11463398D+01  1  2  3  2  7  2        2 -.430194333008D-04 0.100000000000D+01
0.217805396596D-05 0.000000000000D+00 0.000000000000D+00 0.351340142964D-07 0.000000000000D+00  7 -2 2 24 -13 13 -24 21 2 0.65731423D-02 0.48561631D+00 0.51268222D+05 0.51268222D+05 0.51268222D+05 0.11463398D+01  1  2 15  2  7  2        2 0.642245302870D-04 0.100000000000D+01
-.549842356272D-05 0.000000000000D+00 -.755874521698D-05 0.351340142964D-07 0.000000000000D+00  7 -2 2 24 -13 13 -24 21 2 0.65731423D-02 0.82239567D+00 0.51268222D+05 0.51268222D+05 0.51268222D+05 0.11463398D+01  1  2  5  2  7  2        2 -.130753413564D-05 0.100000000000D+01
0.912458169527D-05 0.000000000000D+00 0.661886905900D-05 0.351340142964D-07 0.000000000000D+00  7 -2 2 24 -13 13 -24 21 2 0.65731423D-02 0.48561631D+00 0.51268222D+05 0.51268222D+05 0.51268222D+05 0.11463398D+01  1  2  6  2  7  2        2 0.269057600318D-03 0.100000000000D+01
0.376885639914D-07 0.000000000000D+00 -.444430652680D-06 0.351340142964D-07 0.000000000000D+00  7 -2 21 24 -13 13 -24 -2 2 0.65731423D-02 0.82239567D+00 0.51268222D+05 0.51268222D+05 0.51268222D+05 0.11463398D+01  1  2  5  4  7  2        2 0.425356162077D-10 0.100000000000D+01
  </mgrwgt>
  </event>
  <event>
  8     66 0.27011060E-05 0.13731498E+03 0.75467711E-02 0.10314767E+00
       -2 -1    0    0    0  501 0.00000000E+00 0.00000000E+00 0.26697238E+03 0.26697257E+03 0.32000000E+00 0.0000E+00 0.9000E+01
        2 -1    0    0  501    0 0.00000000E+00 0.00000000E+00 -.23580868E+03 0.23580890E+03 0.32000000E+00 0.0000E+00 0.9000E+01
       25  2    1    2    0    0 0.84460069E+02 -.20157488E+02 -.95064159E+02 0.32675325E+03 0.30031760E+03 0.0000E+00 0.0000E+00
       23  2    1    2    0    0 -.84460069E+02 0.20157488E+02 0.12622786E+03 0.17602822E+03 0.86675450E+02 0.0000E+00 0.0000E+00
       24  1    3    3    0    0 -.14140046E+02 -.10282959E+03 -.11393831E+03 0.17384769E+03 0.80419002E+02 0.0000E+00 0.9000E+01
      -13  1    4    4    0    0 -.10086981E+03 0.11954220E+02 0.91309011E+02 0.13658319E+03 0.10565837E+00 0.0000E+00 0.9000E+01
       13  1    4    4    0    0 0.16409738E+02 0.82032680E+01 0.34918846E+02 0.39445026E+02 0.10565837E+00 0.0000E+00 0.9000E+01
      -24  1    3    3    0    0 0.98600115E+02 0.82672105E+02 0.18874146E+02 0.15290556E+03 0.80419002E+02 0.0000E+00 0.9000E+01
#aMCatNLO 1  0  0  2  1 0.90922633D+02 0.00000000D+00  -5  7  0 0.00000000D+00 0.00000000D+00 0.00000000D+00 0.00000000D+00 0.00000000D+00
  <mgrwgt>
 0.4747882752D-03    7    2    0
 0.250907364952831D+03 0.000000000000000D+00 0.000000000000000D+00 0.250907364952831D+03
 0.250907364952831D+03 0.000000000000000D+00 0.000000000000000D+00 -.250907364952831D+03
 0.181258403213704D+03 -.141400426857391D+02 -.102829593777830D+03 -.124954098042214D+03
 0.131175982770385D+03 -.100869975708116D+03 0.119542281356753D+02 0.830029089014401D+02
 0.373523412140980D+02 0.164099011657913D+02 0.820326166507864D+01 0.325364262935809D+02
 0.152028002707474D+03 0.986001172280636D+02 0.826721039770760D+02 0.941476284719310D+01
 0.000000000000000D+00 0.000000000000000D+00 -.000000000000000D+00 -.000000000000000D+00
 0.260251084936341D+03 0.000000000000000D+00 0.000000000000000D+00 0.260251084936341D+03
 0.648022136138234D+03 0.000000000000000D+00 0.000000000000000D+00 -.648022136138234D+03
 0.173518779057348D+03 -.376556244373646D+02 -.813023865693453D+02 -.124954098042214D+03
 0.148255035432096D+03 -.119391411924552D+03 0.289095728701257D+02 0.830029089014401D+02
 0.367710365898254D+02 0.114968051789049D+02 0.127009277854402D+02 0.325364262935809D+02
 0.151440392141498D+03 0.784854193142236D+02 0.101085991181775D+03 0.941476284719310D+01
 0.398287977853807D+03 0.670648118687885D+02 -.613941052679953D+02 -.387771051201893D+03
0.117361791686D-04 0.000000000000D+00 0.000000000000D+00 0.489473569696D-07 0.000000000000D+00  7 -2 2 24 -13 13 -24 21 0 0.41072705D-01 0.36278290D-01 0.40594883D+05 0.40594883D+05 0.40594883D+05 0.11553417D+01  1  2  2  2  7  2        2 0.112928145646D-02 0.100000000000D+01
-.613855065471D-06 0.000000000000D+00 -.450700182145D-07 0.489473569696D-07 0.000000000000D+00  7 -2 2 24 -13 13 -24 21 2 0.41072705D-01 0.36278290D-01 0.40594883D+05 0.40594883D+05 0.40594883D+05 0.11553417D+01  1  2  3  2  7  2        2 -.788428329802D-04 0.100000000000D+01
0.703505253144D-06 0.000000000000D+00 0.000000000000D+00 0.489473569696D-07 0.000000000000D+00  7 -2 2 24 -13 13 -24 21 2 0.41072705D-01 0.36278290D-01 0.40594883D+05 0.40594883D+05 0.40594883D+05 0.11553417D+01  1  2 15  2  7  2        2 0.903573991553D-04 0.100000000000D+01
0.429486570908D-04 0.000000000000D+00 0.000000000000D+00 0.489473569696D-07 0.000000000000D+00  7 -2 2 24 -13 13 -24 21 2 0.41072705D-01 0.93166949D-01 0.63111358D+05 0.63111358D+05 0.63111358D+05 0.11385042D+01  1  2 12  2  7  2        2 0.190661052439D-02 0.100000000000D+01
-.553556680567D-04 0.000000000000D+00 -.394245389832D-05 0.489473569696D-07 0.000000000000D+00  7 -2 2 24 -13 13 -24 21 2 0.41072705D-01 0.95060995D-01 0.40594883D+05 0.40594883D+05 0.40594883D+05 0.11553417D+01  1  2  5  2  7  2        2 -.248761788188D-02 0.100000000000D+01
0.447871701746D-05 0.000000000000D+00 0.000000000000D+00 0.489473569696D-07 0.000000000000D+00  7 -2 21 24 -13 13 -24 -2 2 0.41072705D-01 0.93166949D-01 0.63111358D+05 0.63111358D+05 0.63111358D+05 0.11385042D+01  1  2 12  4  7  2        2 0.309685792817D-03 0.100000000000D+01
-.568021109391D-05 0.000000000000D+00 -.421354847398D-06 0.489473569696D-07 0.000000000000D+00  7 -2 21 24 -13 13 -24 -2 2 0.41072705D-01 0.95060995D-01 0.40594883D+05 0.40594883D+05 0.40594883D+05 0.11553417D+01  1  2  5  4  7  2        2 -.394686182762D-03 0.100000000000D+01
  </mgrwgt>
  </event>
  <event>
  8     66 0.27011060E-05 0.93802067E+03 0.75467711E-02 0.86017440E-01
       -2 -1    0    0    0  501 0.00000000E+00 0.00000000E+00 0.12856766E+04 0.12856766E+04 0.32000000E+00 0.0000E+00 0.9000E+01
        2 -1    0    0  501    0 0.00000000E+00 0.00000000E+00 -.89984775E+03 0.89984780E+03 0.32000000E+00 0.0000E+00 0.9000E+01
       25  2    1    2    0    0 0.88449696E+03 -.23121505E+03 -.33392785E+03 0.10187291E+04 0.30084198E+03 0.0000E+00 0.0000E+00
       23  2    1    2    0    0 -.88449696E+03 0.23121505E+03 0.71975669E+03 0.11667953E+04 0.86984862E+02 0.0000E+00 0.0000E+00
       24  1    3    3    0    0 0.17266950E+03 0.41321025E+02 -.87420301E+02 0.21361579E+03 0.80419002E+02 0.0000E+00 0.9000E+01
      -13  1    4    4    0    0 -.88081410E+03 0.22812080E+03 0.70431821E+03 0.11506245E+04 0.10565837E+00 0.0000E+00 0.9000E+01
       13  1    4    4    0    0 -.36828617E+01 0.30942517E+01 0.15438487E+02 0.16170836E+02 0.10565837E+00 0.0000E+00 0.9000E+01
      -24  1    3    3    0    0 0.71182746E+03 -.27253608E+03 -.24650755E+03 0.80511331E+03 0.80419002E+02 0.0000E+00 0.9000E+01
#aMCatNLO 1  0  0  2  1 0.39575482D+03 0.00000000D+00  -5  7  0 0.00000000D+00 0.00000000D+00 0.00000000D+00 0.00000000D+00 0.00000000D+00
  <mgrwgt>
 0.1831612553D-02    4    2    0
 0.107559903663605D+04 0.000000000000000D+00 0.000000000000000D+00 0.107559903663605D+04
 0.107559903663605D+04 0.000000000000000D+00 0.000000000000000D+00 -.107559903663605D+04
 0.232703728268223D+03 0.172669498418841D+03 0.413210249076083D+02 -.127128385547568D+03
 0.104266313730204D+04 -.880815394892059D+03 0.228121132805464D+03 0.509187005703435D+03
 0.136583779852696D+02 -.368156755558758D+01 0.309391966469153D+01 0.127837791998525D+02
 0.862172829716577D+03 0.711827464028805D+03 -.272536077377764D+03 -.394842399355720D+03
 0.000000000000000D+00 0.000000000000000D+00 -.000000000000000D+00 0.000000000000000D+00
 0.144090350704757D+04 0.000000000000000D+00 0.000000000000000D+00 0.144090350704757D+04
 0.120640664441519D+04 0.000000000000000D+00 0.000000000000000D+00 -.120640664441519D+04
 0.214235200892670D+03 0.138596855708563D+03 0.637086377418383D+02 -.127128385547568D+03
 0.121863185079989D+04 -.105320650062276D+04 0.341391634421103D+03 0.509187005703435D+03
 0.147661856637713D+02 -.584853028409199D+01 0.451773416022314D+01 0.127837791998525D+02
 0.739665331249994D+03 0.589710423473013D+03 -.192298420214754D+03 -.394842399355720D+03
 0.460011582856435D+03 0.330747751725271D+03 -.217319586108410D+03 0.234496862632383D+03
0.509311644733D-02 0.000000000000D+00 0.000000000000D+00 0.977508388914D-06 0.000000000000D+00  7 -2 2 24 -13 13 -24 21 0 0.19779641D+00 0.13843812D+00 0.87988278D+06 0.87988278D+06 0.87988278D+06 0.10515836D+01  1  2  2  2  7  2        2 0.229534861150D-02 0.100000000000D+01
-.276506962063D-03 0.000000000000D+00 -.195589082061D-04 0.977508388914D-06 0.000000000000D+00  7 -2 2 24 -13 13 -24 21 2 0.19779641D+00 0.13843812D+00 0.87988278D+06 0.87988278D+06 0.87988278D+06 0.10515836D+01  1  2  3  2  7  2        2 -.137803008665D-03 0.100000000000D+01
0.312116351879D-03 0.000000000000D+00 0.000000000000D+00 0.977508388914D-06 0.000000000000D+00  7 -2 2 24 -13 13 -24 21 2 0.19779641D+00 0.13843812D+00 0.87988278D+06 0.87988278D+06 0.87988278D+06 0.10515836D+01  1  2 15  2  7  2        2 0.155549690401D-03 0.100000000000D+01
-.966113374736D-03 0.000000000000D+00 0.000000000000D+00 0.977508388914D-06 0.000000000000D+00  7 -2 2 24 -13 13 -24 21 2 0.19779641D+00 0.13843812D+00 0.87988278D+06 0.87988278D+06 0.87988278D+06 0.10515836D+01  1  2  4  2  7  2        2 -.481482740100D-03 0.100000000000D+01
  </mgrwgt>
  </event>
  <event>
  8     66 0.27011060E-05 0.12868497E+03 0.75467711E-02 0.10228298E+00
       -2 -1    0    0    0  501 0.00000000E+00 0.00000000E+00 0.53370524E+02 0.53371483E+02 0.32000000E+00 0.0000E+00 0.9000E+01
        2 -1    0    0  501    0 0.00000000E+00 0.00000000E+00 -.12616174E+04 0.12616174E+04 0.32000000E+00 0.0000E+00 0.9000E+01
       25  2    1    2    0    0 -.15129954E+03 0.44798826E+02 -.73026065E+03 0.80516699E+03 0.30019124E+03 0.0000E+00 0.0000E+00
       23  2    1    2    0    0 0.15129954E+03 -.44798826E+02 -.47798619E+03 0.50982189E+03 0.80926389E+02 0.0000E+00 0.0000E+00
       24  1    3    3    0    0 -.94381982E+00 -.66333644E+02 -.42978502E+03 0.44224814E+03 0.80419002E+02 0.0000E+00 0.9000E+01
      -11  1    4    4    0    0 0.10159511E+03 -.64836778E+02 -.28276244E+03 0.30737594E+03 0.51099893E-03 0.0000E+00 0.9000E+01
       11  1    4    4    0    0 0.49704435E+02 0.20037952E+02 -.19522375E+03 0.20244595E+03 0.51099893E-03 0.0000E+00 0.9000E+01
      -24  1    3    3    0    0 -.15035572E+03 0.11113247E+03 -.30047563E+03 0.36291885E+03 0.80419002E+02 0.0000E+00 0.9000E+01
#aMCatNLO 1  0  0  2  1 0.51095547D+02 0.00000000D+00  -5  7  0 0.00000000D+00 0.00000000D+00 0.00000000D+00 0.00000000D+00 0.00000000D+00
  <mgrwgt>
 0.1014786574D-02    9    2    0
 0.259487642806591D+03 0.000000000000000D+00 0.000000000000000D+00 0.259487642806591D+03
 0.259487642806591D+03 0.000000000000000D+00 0.000000000000000D+00 -.259487642806591D+03
 0.119976820650598D+03 -.943819831389398D+00 -.663336439706648D+02 -.593816336989330D+02
 0.120524286956760D+03 0.101595107062632D+03 -.648367784152947D+02 -.854477673061304D+00
 0.584530656354196D+02 0.497044352008391D+02 0.200379523902330D+02 -.233390331323090D+02
 0.220021112370404D+03 -.150355722432082D+03 0.111132469995726D+03 0.835751445043033D+02
 0.000000000000000D+00 0.000000000000000D+00 -.000000000000000D+00 -.000000000000000D+00
 0.275464582730392D+03 0.000000000000000D+00 0.000000000000000D+00 0.275464582730392D+03
 0.305075526019598D+03 0.000000000000000D+00 0.000000000000000D+00 -.305075526019598D+03
 0.114602624146193D+03 -.552892183679743D+01 -.557655638310180D+02 -.593816336989330D+02
 0.111269781816310D+03 0.970644481615776D+02 -.543941827445162D+02 -.854477673061304D+00
 0.585977678109599D+02 0.474165535339923D+02 0.253112302315433D+02 -.233390331323090D+02
 0.237014343709731D+03 -.159288961182097D+03 0.131722455323294D+03 0.835751445043033D+02
 0.590555912667968D+02 0.203368813233243D+02 -.468739389793032D+02 -.296109432892055D+02
0.331414703846D-05 0.000000000000D+00 0.000000000000D+00 0.533079034141D-08 0.000000000000D+00  7 -2 2 24 -11 11 -24 21 0 0.82109268D-02 0.19409505D+00 0.58055402D+05 0.58055402D+05 0.58055402D+05 0.11416326D+01  1  2  2  2  7  2        2 0.607859434886D-03 0.100000000000D+01
-.182889014722D-06 0.000000000000D+00 -.127271972626D-07 0.533079034141D-08 0.000000000000D+00  7 -2 2 24 -11 11 -24 21 2 0.82109268D-02 0.19409505D+00 0.58055402D+05 0.58055402D+05 0.58055402D+05 0.11416326D+01  1  2  3  2  7  2        2 -.437191497542D-04 0.100000000000D+01
0.215871836502D-06 0.000000000000D+00 0.000000000000D+00 0.533079034141D-08 0.000000000000D+00  7 -2 2 24 -11 11 -24 21 2 0.82109268D-02 0.19409505D+00 0.58055402D+05 0.58055402D+05 0.58055402D+05 0.11416326D+01  1  2 15  2  7  2        2 0.516036086811D-04 0.100000000000D+01
0.453855044936D-05 0.000000000000D+00 0.000000000000D+00 0.533079034141D-08 0.000000000000D+00  7 -2 2 24 -11 11 -24 21 2 0.82109268D-02 0.23339522D+00 0.71802578D+05 0.71802578D+05 0.71802578D+05 0.11337221D+01  1  2 12  2  7  2        2 0.777068376234D-03 0.100000000000D+01
-.455259432709D-05 0.000000000000D+00 0.000000000000D+00 0.533079034141D-08 0.000000000000D+00  7 -2 2 24 -11 11 -24 21 2 0.82109268D-02 0.19409505D+00 0.58055402D+05 0.58055402D+05 0.58055402D+05 0.11416326D+01  1  2  4  2  7  2        2 -.108828599388D-02 0.100000000000D+01
-.956838648016D-05 0.000000000000D+00 -.222993384005D-05 0.533079034141D-08 0.000000000000D+00  7 -2 2 24 -11 11 -24 21 2 0.82109268D-02 0.23532343D+00 0.58055402D+05 0.58055402D+05 0.58055402D+05 0.11416326D+01  1  2  5  2  7  2        2 -.163809832679D-02 0.100000000000D+01
0.985525597010D-05 0.000000000000D+00 0.218919880612D-05 0.533079034141D-08 0.000000000000D+00  7 -2 2 24 -11 11 -24 21 2 0.82109268D-02 0.19409505D+00 0.58055402D+05 0.58055402D+05 0.58055402D+05 0.11416326D+01  1  2  6  2  7  2        2 0.235587365528D-02 0.100000000000D+01
0.121969731795D-06 0.000000000000D+00 0.000000000000D+00 0.533079034141D-08 0.000000000000D+00  7 -2 21 24 -11 11 -24 -2 2 0.82109268D-02 0.23339522D+00 0.71802578D+05 0.71802578D+05 0.71802578D+05 0.11337221D+01  1  2 12  4  7  2        2 0.769393728494D-05 0.100000000000D+01
-.241932387992D-06 0.000000000000D+00 -.619915896629D-07 0.533079034141D-08 0.000000000000D+00  7 -2 21 24 -11 11 -24 -2 2 0.82109268D-02 0.23532343D+00 0.58055402D+05 0.58055402D+05 0.58055402D+05 0.11416326D+01  1  2  5  4  7  2        2 -.152089680533D-04 0.100000000000D+01
  </mgrwgt>
  </event>
  <event>
  9     66 0.27011060E-05 0.31351421E+03 0.75467711E-02 0.97519990E-01
       21 -1    0    0  502  501 0.00000000E+00 0.00000000E+00 0.88678177E+02 0.88681349E+02 0.75000000E+00 0.0000E+00 0.9000E+01
        2 -1    0    0  501    0 0.00000000E+00 0.00000000E+00 -.22184348E+04 0.22184348E+04 0.32000000E+00 0.0000E+00 0.9000E+01
       25  2    1    2    0    0 -.15616784E+03 -.24494814E+03 -.13571684E+04 0.14196113E+04 0.29833203E+03 0.0000E+00 0.0000E+00
       23  2    1    2    0    0 0.20130176E+03 0.10800728E+03 -.27269016E+03 0.36722805E+03 0.91151207E+02 0.0000E+00 0.0000E+00
       24  1    3    3    0    0 -.72904503E+02 -.26845795E+03 -.82055270E+03 0.87014865E+03 0.80419002E+02 0.0000E+00 0.9000E+01
      -13  1    4    4    0    0 0.18496534E+03 0.94736041E+02 -.18891303E+03 0.28084736E+03 0.10565837E+00 0.0000E+00 0.9000E+01
       13  1    4    4    0    0 0.16336421E+02 0.13271242E+02 -.83777131E+02 0.86380688E+02 0.10565837E+00 0.0000E+00 0.9000E+01
      -24  1    3    3    0    0 -.83263342E+02 0.23509810E+02 -.53661575E+03 0.54946262E+03 0.80419002E+02 0.0000E+00 0.9000E+01
        2  1    1    2  502    0 -.45133919E+02 0.13694086E+03 -.49989804E+03 0.52027687E+03 0.32000000E+00 0.0000E+00 0.9000E+01
#aMCatNLO 2  0  0  1  2 0.14418692D+03 0.00000000D+00  -5  7  0 0.00000000D+00 0.00000000D+00 0.00000000D+00 0.00000000D+00 0.00000000D+00
  <mgrwgt>
 0.1619406780D-03    1    2    0
 0.359014564785794D+03 0.000000000000000D+00 0.000000000000000D+00 0.359014564785794D+03
 0.359014564785794D+03 0.000000000000000D+00 0.000000000000000D+00 -.359014564785794D+03
 0.256199306667525D+03 -.901157563773735D+02 -.216237272222041D+03 -.655092461951378D+02
 0.276524778483665D+03 0.168120477913397D+03 0.145845855024720D+03 0.164104980404981D+03
 0.262988499018123D+02 0.147613456136830D+02 0.180493814312564D+02 -.121635525970201D+02
 0.159006194518585D+03 -.927660671497060D+02 0.523420357660638D+02 -.864321816128231D+02
 0.000000000000000D+00 -.000000000000000D+00 0.000000000000000D+00 -.000000000000000D+00
 0.413718129095541D+03 0.000000000000000D+00 0.000000000000000D+00 0.413718129095541D+03
 0.475517700994947D+03 0.000000000000000D+00 0.000000000000000D+00 -.475517700994947D+03
 0.296889565698824D+03 -.729045027240974D+02 -.268457949057134D+03 -.655092461951378D+02
 0.264797365454049D+03 0.184965569530564D+03 0.947361506813516D+02 0.164104980404981D+03
 0.243093851890567D+02 0.163361940957487D+02 0.132711325423071D+02 -.121635525970201D+02
 0.146366776365750D+03 -.832633417770945D+02 0.235098100181542D+02 -.864321816128231D+02
 0.156872737382808D+03 -.451339191251212D+02 0.136940855815322D+03 -.617995718994057D+02
0.386576276897D-06 0.000000000000D+00 0.000000000000D+00 0.377189291549D-06 0.316464739961D-11  7 21 2 24 -13 13 -24 2 2 0.13643037D-01 0.34129778D+00 0.15239001D+06 0.15239001D+06 0.15239001D+06 0.11070105D+01  1  2  1  3  7  1       -2 0.161940678009D-03 0.100000000000D+01
  </mgrwgt>
  </event>
  <event>
  8     66 0.27011060E-05 0.22943559E+03 0.75467711E-02 0.94554843E-01
       -2 -1    0    0    0  501 0.00000000E+00 0.00000000E+00 0.13384639E+03 0.13384678E+03 0.32000000E+00 0.0000E+00 0.9000E+01
        2 -1    0    0  501    0 0.00000000E+00 0.00000000E+00 -.54716260E+03 0.54716269E+03 0.32000000E+00 0.0000E+00 0.9000E+01
       25  2    1    2    0    0 -.79891885E+01 -.17048571E+03 -.31891610E+03 0.46611528E+03 0.29398430E+03 0.0000E+00 0.0000E+00
       23  2    1    2    0    0 0.79891885E+01 0.17048571E+03 -.94400105E+02 0.21489419E+03 0.90216017E+02 0.0000E+00 0.0000E+00
       24  1    3    3    0    0 -.65402902E+02 -.62232194E+02 -.65602204E+01 0.12108112E+03 0.80419002E+02 0.0000E+00 0.9000E+01
      -11  1    4    4    0    0 -.23904269E+02 0.15333447E+03 -.87080711E+02 0.17794922E+03 0.51099893E-03 0.0000E+00 0.9000E+01
       11  1    4    4    0    0 0.31893458E+02 0.17151240E+02 -.73193945E+01 0.36944976E+02 0.51099893E-03 0.0000E+00 0.9000E+01
      -24  1    3    3    0    0 0.57413713E+02 -.10825351E+03 -.31235588E+03 0.34503416E+03 0.80419002E+02 0.0000E+00 0.9000E+01
#aMCatNLO 1  0  0  1  1 0.39967778D+03 0.00000000D+00  -5  7  0 0.00000000D+00 0.00000000D+00 0.00000000D+00 0.00000000D+00 0.00000000D+00
  <mgrwgt>
 0.2101920595D-02    5    2    0
 0.270621327565497D+03 0.000000000000000D+00 0.000000000000000D+00 0.270621327565497D+03
 0.270621327565497D+03 0.000000000000000D+00 0.000000000000000D+00 -.270621327565497D+03
 0.147338618338588D+03 -.654029015736104D+02 -.622321942554750D+02 0.842084732283811D+02
 0.157403026163657D+03 -.239042690237059D+02 0.153334467676868D+03 0.263218462530815D+02
 0.408959892990483D+02 0.318934575716902D+02 0.171512402748616D+02 0.190032697687698D+02
 0.195605021329700D+03 0.574137130256261D+02 -.108253513696254D+03 -.129533589250232D+03
 0.000000000000000D+00 0.000000000000000D+00 0.000000000000000D+00 0.000000000000000D+00
 0.576956464206516D+03 0.000000000000000D+00 0.000000000000000D+00 0.576956464206516D+03
 0.502429731046460D+03 0.000000000000000D+00 0.000000000000000D+00 -.502429731046460D+03
 0.243727715419730D+03 -.187214522560843D+03 -.103902063926618D+03 0.842084732283811D+02
 0.175720814720986D+03 -.127667624610150D+03 0.117838630178894D+03 0.263218462530815D+02
 0.244547180308240D+02 0.115376383529650D+02 0.101878296657659D+02 0.190032697687698D+02
 0.228916148013168D+03 -.748186151425367D+02 -.153488145962224D+03 -.129533589250232D+03
 0.406566799068268D+03 0.378163123960565D+03 0.129363750044183D+03 0.745267331600569D+02
0.145567275690D-04 0.000000000000D+00 0.000000000000D+00 0.341401037781D-08 0.000000000000D+00  7 -2 2 24 -11 11 -24 21 0 0.20591789D-01 0.84178898D-01 0.52640691D+05 0.52640691D+05 0.52640691D+05 0.11453345D+01  1  2  2  1  7  1       -2 0.186232962036D-02 0.100000000000D+01
-.781905697635D-06 0.000000000000D+00 -.559016667393D-07 0.341401037781D-08 0.000000000000D+00  7 -2 2 24 -11 11 -24 21 2 0.20591789D-01 0.84178898D-01 0.52640691D+05 0.52640691D+05 0.52640691D+05 0.11453345D+01  1  2  3  1  7  1       -2 -.131223580029D-03 0.100000000000D+01
0.917786559951D-06 0.000000000000D+00 0.000000000000D+00 0.341401037781D-08 0.000000000000D+00  7 -2 2 24 -11 11 -24 21 2 0.20591789D-01 0.84178898D-01 0.52640691D+05 0.52640691D+05 0.52640691D+05 0.11453345D+01  1  2 15  1  7  1       -2 0.154027830292D-03 0.100000000000D+01
0.559979049145D-05 0.000000000000D+00 -.500628637103D-05 0.341401037781D-08 0.000000000000D+00  7 -2 2 24 -11 11 -24 21 2 0.78032739D-01 0.84178898D-01 0.52640691D+05 0.52640691D+05 0.52640691D+05 0.11453345D+01  1  2  5  1  7  1       -2 0.776664419767D-04 0.100000000000D+01
0.985415082048D-06 0.000000000000D+00 -.790044409997D-06 0.341401037781D-08 0.000000000000D+00  7 21 2 24 -11 11 -24 2 2 0.78032739D-01 0.84178898D-01 0.52640691D+05 0.52640691D+05 0.52640691D+05 0.11453345D+01  1  2  5  3  7  1       -2 0.139120282484D-03 0.100000000000D+01
  </mgrwgt>
  </event>
  <event>
  8     66 0.27011060E-05 0.12187759E+03 0.75467711E-02 0.99404484E-01
       -2 -1    0    0    0  501 0.00000000E+00 0.00000000E+00 0.39496483E+02 0.39497780E+02 0.32000000E+00 0.0000E+00 0.9000E+01
        2 -1    0    0  501    0 0.00000000E+00 0.00000000E+00 -.22887304E+04 0.22887304E+04 0.32000000E+00 0.0000E+00 0.9000E+01
       25  2    1    2    0    0 -.28371002E+02 -.21131084E+03 -.14451775E+04 0.14913551E+04 0.30024127E+03 0.0000E+00 0.0000E+00
       23  2    1    2    0    0 0.28371002E+02 0.21131084E+03 -.80405640E+03 0.83687309E+03 0.91611650E+02 0.0000E+00 0.0000E+00
       24  1    3    3    0    0 -.96606719E+02 -.22863107E+03 -.10581262E+04 0.10898180E+04 0.80419002E+02 0.0000E+00 0.9000E+01
      -13  1    4    4    0    0 0.86274587E+01 0.16324169E+03 -.71774652E+03 0.73612659E+03 0.10565837E+00 0.0000E+00 0.9000E+01
       13  1    4    4    0    0 0.19743544E+02 0.48069152E+02 -.86309881E+02 0.10074650E+03 0.10565837E+00 0.0000E+00 0.9000E+01
      -24  1    3    3    0    0 0.68235717E+02 0.17320231E+02 -.38705129E+03 0.40153707E+03 0.80419002E+02 0.0000E+00 0.9000E+01
#aMCatNLO 1  0  0  1  2 0.79545309D+02 0.00000000D+00  -5  7  0 0.00000000D+00 0.00000000D+00 0.00000000D+00 0.00000000D+00 0.00000000D+00
  <mgrwgt>
 0.1446351351D-02    9    2    0
 0.300663162394083D+03 0.000000000000000D+00 0.000000000000000D+00 0.300663162394083D+03
 0.300663162394083D+03 0.000000000000000D+00 0.000000000000000D+00 -.300663162394083D+03
 0.261707635198401D+03 -.966067187242511D+02 -.228631071632175D+03 -.204608247249567D+02
 0.165452519068173D+03 0.862744408717168D+01 0.163241842446100D+03 -.255382879091246D+02
 0.672341367791800D+02 0.197435582919199D+02 0.480689992466817D+02 0.426613685415454D+02
 0.106932033742412D+03 0.682357163451595D+02 0.173202299393930D+02 0.333774409253579D+01
 0.000000000000000D+00 -.000000000000000D+00 -.000000000000000D+00 0.000000000000000D+00
 0.343077353908323D+03 0.000000000000000D+00 0.000000000000000D+00 0.343077353908323D+03
 0.343032725598886D+03 0.000000000000000D+00 0.000000000000000D+00 -.343032725598886D+03
 0.234869421158849D+03 -.713999321871884D+02 -.207797577888583D+03 -.204608247249567D+02
 0.181530568830076D+03 0.262406795692590D+02 0.177799240735682D+03 -.255382879091246D+02
 0.738839451312932D+02 0.269068642113096D+02 0.539894956509183D+02 0.426613685415454D+02
 0.116280822455392D+03 0.795662414801312D+02 0.266849470231817D+02 0.333774409253579D+01
 0.795453219315995D+02 -.613138530735115D+02 -.506761055211985D+02 0.446283094363692D-01
0.126228430199D-04 0.000000000000D+00 0.000000000000D+00 0.114246485319D-05 0.000000000000D+00  7 -2 2 24 -13 13 -24 21 0 0.60764835D-02 0.35211247D+00 0.85036946D+05 0.85036946D+05 0.85036946D+05 0.11275447D+01  1  2  2  1  7  1       -2 0.101770879912D-02 0.100000000000D+01
-.700472240994D-06 0.000000000000D+00 -.484750408673D-07 0.114246485319D-05 0.000000000000D+00  7 -2 2 24 -13 13 -24 21 2 0.60764835D-02 0.35211247D+00 0.85036946D+05 0.85036946D+05 0.85036946D+05 0.11275447D+01  1  2  3  1  7  1       -2 -.718000648063D-04 0.100000000000D+01
0.753073829989D-06 0.000000000000D+00 0.000000000000D+00 0.114246485319D-05 0.000000000000D+00  7 -2 2 24 -13 13 -24 21 2 0.60764835D-02 0.35211247D+00 0.85036946D+05 0.85036946D+05 0.85036946D+05 0.11275447D+01  1  2 15  1  7  1       -2 0.771918523430D-04 0.100000000000D+01
0.717666087663D-05 0.000000000000D+00 0.000000000000D+00 0.114246485319D-05 0.000000000000D+00  7 -2 2 24 -13 13 -24 21 2 0.73050918D-02 0.35211247D+00 0.11215893D+06 0.11215893D+06 0.11215893D+06 0.11176554D+01  1  2 12  1  7  1       -2 0.544588367840D-03 0.100000000000D+01
-.608742380983D-05 0.000000000000D+00 0.000000000000D+00 0.114246485319D-05 0.000000000000D+00  7 -2 2 24 -13 13 -24 21 2 0.60764835D-02 0.35211247D+00 0.85036946D+05 0.85036946D+05 0.85036946D+05 0.11275447D+01  1  2  4  1  7  1       -2 -.623975367573D-03 0.100000000000D+01
-.163473955492D-04 0.000000000000D+00 -.636847948617D-05 0.114246485319D-05 0.000000000000D+00  7 -2 2 24 -13 13 -24 21 2 0.82454863D-02 0.35211247D+00 0.85036946D+05 0.85036946D+05 0.85036946D+05 0.11275447D+01  1  2  5  1  7  1       -2 -.105797882921D-02 0.100000000000D+01
0.177438449107D-04 0.000000000000D+00 0.608289666359D-05 0.114246485319D-05 0.000000000000D+00  7 -2 2 24 -13 13 -24 21 2 0.60764835D-02 0.35211247D+00 0.85036946D+05 0.85036946D+05 0.85036946D+05 0.11275447D+01  1  2  6  1  7  1       -2 0.181878615588D-02 0.100000000000D+01
0.192671334633D-06 0.000000000000D+00 0.000000000000D+00 0.114246485319D-05 0.000000000000D+00  7 21 2 24 -13 13 -24 2 2 0.73050918D-02 0.35211247D+00 0.11215893D+06 0.11215893D+06 0.11215893D+06 0.11176554D+01  1  2 12  3  7  1       -2 0.224473786638D-03 0.100000000000D+01
-.493197686978D-06 0.000000000000D+00 -.249272774647D-06 0.114246485319D-05 0.000000000000D+00  7 21 2 24 -13 13 -24 2 2 0.82454863D-02 0.35211247D+00 0.85036946D+05 0.85036946D+05 0.85036946D+05 0.11275447D+01  1  2  5  3  7  1       -2 -.482643349035D-03 0.100000000000D+01
  </mgrwgt>
  </event>
  <event>
  8     66 0.27011060E-05 0.19920582E+03 0.75467711E-02 0.10238256E+00
       -2 -1    0    0    0  501 0.00000000E+00 0.00000000E+00 0.89620209E+02 0.89620781E+02 0.32000000E+00 0.0000E+00 0.9000E+01
        2 -1    0    0  501    0 0.00000000E+00 0.00000000E+00 -.56868792E+03 0.56868801E+03 0.32000000E+00 0.0000E+00 0.9000E+01
       25  2    1    2    0    0 0.14602982E+02 0.49205499E+02 -.21909517E+03 0.37486427E+03 0.29981010E+03 0.0000E+00 0.0000E+00
       23  2    1    2    0    0 -.14602982E+02 -.49205499E+02 -.25997254E+03 0.28344452E+03 0.10060143E+03 0.0000E+00 0.0000E+00
       24  1    3    3    0    0 0.97038036E+02 -.48467222E+02 -.16780418E+03 0.21538549E+03 0.80419002E+02 0.0000E+00 0.9000E+01
      -13  1    4    4    0    0 -.40554003E+02 0.14913148E+02 -.11394444E+03 0.12186212E+03 0.10565837E+00 0.0000E+00 0.9000E+01
       13  1    4    4    0    0 0.25951021E+02 -.64118647E+02 -.14602810E+03 0.16158240E+03 0.10565837E+00 0.0000E+00 0.9000E+01
      -24  1    3    3    0    0 -.82435055E+02 0.97672721E+02 -.51290996E+02 0.15947878E+03 0.80419002E+02 0.0000E+00 0.9000E+01
#aMCatNLO 1  0  0  2  2 0.11383983D+03 0.00000000D+00  -5  7  0 0.00000000D+00 0.00000000D+00 0.00000000D+00 0.00000000D+00 0.00000000D+00
  <mgrwgt>
 0.6276727889D-03    4    2    0
 0.225756834560640D+03 0.000000000000000D+00 0.000000000000000D+00 0.225756834560640D+03
 0.225756834560640D+03 0.000000000000000D+00 0.000000000000000D+00 -.225756834560640D+03
 0.135988085504591D+03 0.970382730119632D+02 -.484664244566757D+02 -.161283203116262D+02
 0.567764691689383D+02 -.405526927198001D+02 0.149108306456869D+02 -.368335946375115D+02
 0.806481622820656D+02 0.259491642874728D+02 -.641181722186871D+02 -.414683848683658D+02
 0.178100952165685D+03 -.824347445796359D+02 0.976737660296759D+02 0.944302998175034D+02
 0.000000000000000D+00 0.000000000000000D+00 -.000000000000000D+00 0.000000000000000D+00
 0.400299179423570D+03 0.000000000000000D+00 0.000000000000000D+00 0.400299179423570D+03
 0.252167042143389D+03 0.000000000000000D+00 0.000000000000000D+00 -.252167042143389D+03
 0.113066961998708D+03 0.710990124177175D+02 -.316501130866460D+02 -.161283203116262D+02
 0.691777237046139D+02 -.536709116221562D+02 0.234153156860649D+02 -.368335946375115D+02
 0.688881512067985D+02 0.103748507259735D+02 -.540214115468449D+02 -.414683848683658D+02
 0.214510911002792D+03 -.123325549777971D+03 0.124183099627989D+03 0.944302998175034D+02
 0.186822473654047D+03 0.955225982564362D+02 -.619268906805629D+02 0.148132137280181D+03
0.300941667371D-05 0.000000000000D+00 0.000000000000D+00 0.844718824652D-08 0.000000000000D+00  7 -2 2 24 -13 13 -24 21 0 0.13787775D-01 0.87490501D-01 0.39682959D+05 0.39682959D+05 0.39682959D+05 0.11562296D+01  1  2  2  2  7  2        2 0.700135593533D-03 0.100000000000D+01
-.164007493416D-06 0.000000000000D+00 -.115569524247D-07 0.844718824652D-08 0.000000000000D+00  7 -2 2 24 -13 13 -24 21 2 0.13787775D-01 0.87490501D-01 0.39682959D+05 0.39682959D+05 0.39682959D+05 0.11562296D+01  1  2  3  2  7  2        2 -.510095715948D-04 0.100000000000D+01
0.173334658394D-06 0.000000000000D+00 0.000000000000D+00 0.844718824652D-08 0.000000000000D+00  7 -2 2 24 -13 13 -24 21 2 0.13787775D-01 0.87490501D-01 0.39682959D+05 0.39682959D+05 0.39682959D+05 0.11562296D+01  1  2 15  2  7  2        2 0.539105042277D-04 0.100000000000D+01
-.242311731893D-06 0.000000000000D+00 0.000000000000D+00 0.844718824652D-08 0.000000000000D+00  7 -2 2 24 -13 13 -24 21 2 0.13787775D-01 0.87490501D-01 0.39682959D+05 0.39682959D+05 0.39682959D+05 0.11562296D+01  1  2  4  2  7  2        2 -.753637372218D-04 0.100000000000D+01
  </mgrwgt>
  </event>
  <event>
  8     66 0.27011060E-05 0.35039374E+03 0.75467711E-02 0.96633294E-01
       -2 -1    0    0    0  501 0.00000000E+00 0.00000000E+00 0.17627850E+03 0.17627879E+03 0.32000000E+00 0.0000E+00 0.9000E+01
        2 -1    0    0  501    0 0.00000000E+00 0.00000000E+00 -.89181909E+03 0.89181915E+03 0.32000000E+00 0.0000E+00 0.9000E+01
       25  2    1    2    0    0 0.80230526E+02 -.30560624E+03 -.55094090E+03 0.70284729E+03 0.30104207E+03 0.0000E+00 0.0000E+00
       23  2    1    2    0    0 -.80230526E+02 0.30560624E+03 -.16459969E+03 0.36525066E+03 0.80516314E+02 0.0000E+00 0.0000E+00
       24  1    3    3    0    0 0.93049924E+02 -.11721080E+03 -.43527618E+03 0.46725713E+03 0.80419002E+02 0.0000E+00 0.9000E+01
      -13  1    4    4    0    0 0.90107721E+01 0.20397154E+01 -.79286301E+01 0.12174925E+02 0.10565837E+00 0.0000E+00 0.9000E+01
       13  1    4    4    0    0 -.89241298E+02 0.30356652E+03 -.15667106E+03 0.35307573E+03 0.10565837E+00 0.0000E+00 0.9000E+01
      -24  1    3    3    0    0 -.12819399E+02 -.18839544E+03 -.11566472E+03 0.23559016E+03 0.80419002E+02 0.0000E+00 0.9000E+01
#aMCatNLO 1  0  0  1  2 0.12986179D+03 0.00000000D+00  -5  7  0 0.00000000D+00 0.00000000D+00 0.00000000D+00 0.00000000D+00 0.00000000D+00
  <mgrwgt>
 0.1191491728D-02    4    2    0
 0.396495550413954D+03 0.000000000000000D+00 0.000000000000000D+00 0.396495550413954D+03
 0.396495550413954D+03 0.000000000000000D+00 0.000000000000000D+00 -.396495550413954D+03
 0.236596108634910D+03 0.930499241569028D+02 -.117210796789565D+03 -.164662817287819D+03
 0.924387609969997D+01 0.901094100825173D+01 0.203919632903342D+01 0.306375299377400D+00
 0.334197201085709D+03 -.892414666169159D+02 0.303567039055223D+03 0.107567572478087D+03
 0.212953915007588D+03 -.128193985482387D+02 -.188395438594691D+03 0.567888695103539D+02
 0.000000000000000D+00 0.000000000000000D+00 0.000000000000000D+00 -.000000000000000D+00
 0.440442001637670D+03 0.000000000000000D+00 0.000000000000000D+00 0.440442001637670D+03
 0.510816644997399D+03 0.000000000000000D+00 0.000000000000000D+00 -.510816644997399D+03
 0.234924071340690D+03 0.589056855289418D+02 -.134678803663082D+03 -.164662817287819D+03
 0.790120008660177D+01 0.776941286701724D+01 0.140403728094182D+01 0.306375299377400D+00
 0.329017602778188D+03 -.137266907491784D+03 0.278997484570594D+03 0.107567572478087D+03
 0.231711087574546D+03 -.450189704911679D+02 -.204868564563380D+03 0.567888695103539D+02
 0.147704684855043D+03 0.115610779586993D+03 0.591458463749258D+02 -.703746433597288D+02
0.355567968554D-04 0.000000000000D+00 0.000000000000D+00 0.814302942286D-08 0.000000000000D+00  7 -2 2 24 -13 13 -24 21 0 0.27119797D-01 0.13720296D+00 0.12277577D+06 0.12277577D+06 0.12277577D+06 0.11144819D+01  1  2  2  1  7  1       -2 0.157987921897D-02 0.100000000000D+01
-.193868149239D-05 0.000000000000D+00 -.136547462244D-06 0.814302942286D-08 0.000000000000D+00  7 -2 2 24 -13 13 -24 21 2 0.27119797D-01 0.13720296D+00 0.12277577D+06 0.12277577D+06 0.12277577D+06 0.11144819D+01  1  2  3  1  7  1       -2 -.106992595721D-03 0.100000000000D+01
0.218707464160D-05 0.000000000000D+00 0.000000000000D+00 0.814302942286D-08 0.000000000000D+00  7 -2 2 24 -13 13 -24 21 2 0.27119797D-01 0.13720296D+00 0.12277577D+06 0.12277577D+06 0.12277577D+06 0.11144819D+01  1  2 15  1  7  1       -2 0.120700999034D-03 0.100000000000D+01
-.728588611932D-05 0.000000000000D+00 0.000000000000D+00 0.814302942286D-08 0.000000000000D+00  7 -2 2 24 -13 13 -24 21 2 0.27119797D-01 0.13720296D+00 0.12277577D+06 0.12277577D+06 0.12277577D+06 0.11144819D+01  1  2  4  1  7  1       -2 -.402095894088D-03 0.100000000000D+01
  </mgrwgt>
  </event>
  <event>
  8     66 0.27011060E-05 0.10108726E+03 0.75467711E-02 0.10543927E+00
       -2 -1    0    0    0  501 0.00000000E+00 0.00000000E+00 0.11163208E+03 0.11163254E+03 0.32000000E+00 0.0000E+00 0.9000E+01
        2 -1    0    0  501    0 0.00000000E+00 0.00000000E+00 -.10398526E+04 0.10398527E+04 0.32000000E+00 0.0000E+00 0.9000E+01
       25  2    1    2    0    0 0.71380715E+02 -.17342672E+02 -.97637144E+03 0.10238728E+04 0.29936327E+03 0.0000E+00 0.0000E+00
       23  2    1    2    0    0 -.71380715E+02 0.17342672E+02 0.48150897E+02 0.12761240E+03 0.92576681E+02 0.0000E+00 0.0000E+00
       24  1    3    3    0    0 -.37302987E+02 -.96164789E+02 -.63511115E+03 0.64843856E+03 0.80419002E+02 0.0000E+00 0.9000E+01
      -13  1    4    4    0    0 -.83489171E+02 -.10155910E+02 0.49400637E+02 0.97539829E+02 0.10565837E+00 0.0000E+00 0.9000E+01
       13  1    4    4    0    0 0.12108456E+02 0.27498583E+02 -.12497394E+01 0.30072575E+02 0.10565837E+00 0.0000E+00 0.9000E+01
      -24  1    3    3    0    0 0.10868370E+03 0.78822117E+02 -.34126029E+03 0.37543425E+03 0.80419002E+02 0.0000E+00 0.9000E+01
#aMCatNLO 1  0  0  1  2 0.23997090D+02 0.00000000D+00  -5  7  0 0.00000000D+00 0.00000000D+00 0.00000000D+00 0.00000000D+00 0.00000000D+00
  <mgrwgt>
 0.7154292864D-03    9    2    0
 0.340706919426029D+03 0.000000000000000D+00 0.000000000000000D+00 0.340706919426029D+03
 0.340706919426029D+03 0.000000000000000D+00 0.000000000000000D+00 -.340706919426029D+03
 0.230614921900905D+03 -.373029869320123D+02 -.961647894434290D+02 -.189939060454245D+03
 0.232121083180042D+03 -.834892943132303D+02 -.101559580148347D+02 0.216348310620988D+03
 0.491154222545942D+02 0.121085790744385D+02 0.274986305004871D+02 0.388527005064364D+02
 0.169562411516517D+03 0.108683702170804D+03 0.788221169577766D+02 -.652619506731801D+02
 0.000000000000000D+00 0.000000000000000D+00 -.000000000000000D+00 0.000000000000000D+00
 0.372074808801550D+03 0.000000000000000D+00 0.000000000000000D+00 0.372074808801550D+03
 0.345538809193397D+03 0.000000000000000D+00 0.000000000000000D+00 -.345538809193397D+03
 0.227969415823138D+03 -.398850896820342D+02 -.885165042869803D+02 -.189939060454245D+03
 0.232866590461970D+03 -.861074516554460D+02 -.240087780451159D+01 0.216348310620988D+03
 0.499270007543825D+02 0.115509112873319D+02 0.291504633945579D+02 0.388527005064364D+02
 0.171073249057439D+03 0.106765720670850D+03 0.845032500716002D+02 -.652619506731801D+02
 0.357773618980181D+02 0.767590937929862D+01 -.227363313746663D+02 0.265359996081534D+02
0.104179388432D-04 0.000000000000D+00 0.000000000000D+00 0.687516395974D-06 0.000000000000D+00  7 -2 2 24 -13 13 -24 21 0 0.17174205D-01 0.15997737D+00 0.40289076D+05 0.40289076D+05 0.40289076D+05 0.11556370D+01  1  2  2  1  7  1       -2 0.812788847790D-03 0.100000000000D+01
-.381770755911D-06 0.000000000000D+00 -.400076282642D-07 0.687516395974D-06 0.000000000000D+00  7 -2 2 24 -13 13 -24 21 2 0.17174205D-01 0.15997737D+00 0.40289076D+05 0.40289076D+05 0.40289076D+05 0.11556370D+01  1  2  3  1  7  1       -2 -.397778633697D-04 0.100000000000D+01
0.597587448451D-06 0.000000000000D+00 0.000000000000D+00 0.687516395974D-06 0.000000000000D+00  7 -2 2 24 -13 13 -24 21 2 0.17174205D-01 0.15997737D+00 0.40289076D+05 0.40289076D+05 0.40289076D+05 0.11556370D+01  1  2 15  1  7  1       -2 0.622644650169D-04 0.100000000000D+01
0.529069628388D-04 0.000000000000D+00 0.000000000000D+00 0.687516395974D-06 0.000000000000D+00  7 -2 2 24 -13 13 -24 21 2 0.18870094D-01 0.15997737D+00 0.45304627D+05 0.45304627D+05 0.45304627D+05 0.11510816D+01  1  2 12  1  7  1       -2 0.469345436015D-02 0.100000000000D+01
-.538833816259D-04 0.000000000000D+00 0.000000000000D+00 0.687516395974D-06 0.000000000000D+00  7 -2 2 24 -13 13 -24 21 2 0.17174205D-01 0.15997737D+00 0.40289076D+05 0.40289076D+05 0.40289076D+05 0.11556370D+01  1  2  4  1  7  1       -2 -.561427442785D-02 0.100000000000D+01
-.885181301339D-04 0.000000000000D+00 -.136942450329D-04 0.687516395974D-06 0.000000000000D+00  7 -2 2 24 -13 13 -24 21 2 0.18994737D-01 0.15997737D+00 0.40289076D+05 0.40289076D+05 0.40289076D+05 0.11556370D+01  1  2  5  1  7  1       -2 -.783920041495D-02 0.100000000000D+01
0.895123702321D-04 0.000000000000D+00 0.136250310072D-04 0.687516395974D-06 0.000000000000D+00  7 -2 2 24 -13 13 -24 21 2 0.17174205D-01 0.15997737D+00 0.40289076D+05 0.40289076D+05 0.40289076D+05 0.11556370D+01  1  2  6  1  7  1       -2 0.932656778410D-02 0.100000000000D+01
0.816424059105D-06 0.000000000000D+00 0.000000000000D+00 0.687516395974D-06 0.000000000000D+00  7 21 2 24 -13 13 -24 2 2 0.18870094D-01 0.15997737D+00 0.45304627D+05 0.45304627D+05 0.45304627D+05 0.11510816D+01  1  2 12  3  7  1       -2 0.958109485129D-03 0.100000000000D+01
-.140128158334D-05 0.000000000000D+00 -.223872109196D-06 0.687516395974D-06 0.000000000000D+00  7 21 2 24 -13 13 -24 2 2 0.18994737D-01 0.15997737D+00 0.40289076D+05 0.40289076D+05 0.40289076D+05 0.11556370D+01  1  2  5  3  7  1       -2 -.164450294961D-02 0.100000000000D+01
  </mgrwgt>
  </event>
  <event>
  8     66 0.27011060E-05 0.29448838E+03 0.75467711E-02 0.92123364E-01
       -4 -1    0    0    0  501 0.00000000E+00 0.00000000E+00 0.10825154E+04 0.10825165E+04 0.15500000E+01 0.0000E+00 0.9000E+01
        4 -1    0    0  501    0 0.00000000E+00 0.00000000E+00 -.15125266E+03 0.15126060E+03 0.15500000E+01 0.0000E+00 0.9000E+01
       25  2    1    2    0    0 -.13337859E+03 -.16785765E+03 0.92992315E+03 0.10006065E+04 0.30081595E+03 0.0000E+00 0.0000E+00
       23  2    1    2    0    0 0.13337859E+03 0.16785765E+03 0.13395811E+01 0.23317062E+03 0.91655360E+02 0.0000E+00 0.0000E+00
       24  1    3    3    0    0 -.13195392E+03 0.20445581E+02 0.29751423E+03 0.33587466E+03 0.80419002E+02 0.0000E+00 0.9000E+01
      -13  1    4    4    0    0 -.36200062E+01 0.42467194E+02 -.18365071E+02 0.46409633E+02 0.10565837E+00 0.0000E+00 0.9000E+01
       13  1    4    4    0    0 0.13699860E+03 0.12539045E+03 0.19704653E+02 0.18676099E+03 0.10565837E+00 0.0000E+00 0.9000E+01
      -24  1    3    3    0    0 -.14246769E+01 -.18830323E+03 0.63240893E+03 0.66473183E+03 0.80419002E+02 0.0000E+00 0.9000E+01
#aMCatNLO 1  0  0  2  1 0.50105612D+03 0.00000000D+00  -5  7  0 0.00000000D+00 0.00000000D+00 0.00000000D+00 0.00000000D+00 0.00000000D+00
  <mgrwgt>
 0.1076102688D-03    5    2    0
 0.404646661430893D+03 0.000000000000000D+00 0.000000000000000D+00 0.404646661430893D+03
 0.404646661430893D+03 0.000000000000000D+00 0.000000000000000D+00 -.404646661430893D+03
 0.169691946386576D+03 -.131953917603042D+03 0.204455804905018D+02 0.670692372232600D+02
 0.918846899645691D+02 -.362019277643265D+01 0.424670834752713D+02 -.814017031471135D+02
 0.262045172984072D+03 0.136998787347751D+03 0.125390564705418D+03 -.184868091439151D+03
 0.285671513526569D+03 -.142467696827610D+01 -.188303228671191D+03 0.199200557363004D+03
 0.000000000000000D+00 0.000000000000000D+00 -.000000000000000D+00 -.000000000000000D+00
 0.701825456877859D+03 0.000000000000000D+00 0.000000000000000D+00 0.701825456877859D+03
 0.753762337910049D+03 0.000000000000000D+00 0.000000000000000D+00 -.753762337910049D+03
 0.262468213284101D+03 -.212156790030457D+03 0.113637849735202D+03 0.670692372232600D+02
 0.129460416833574D+03 -.446987442479339D+02 0.901985837700893D+02 -.814017031471135D+02
 0.311716834039651D+03 0.305165954490612D+02 0.249118266679799D+03 -.184868091439151D+03
 0.248201645675236D+03 -.100504057428781D+03 -.731772734402255D+02 0.199200557363004D+03
 0.503740684955347D+03 0.326842996258111D+03 -.379777426744864D+03 -.519368810321897D+02
0.137351155353D-03 0.000000000000D+00 0.000000000000D+00 0.104287057932D-05 0.000000000000D+00  7 -4 4 24 -13 13 -24 21 0 0.16654153D+00 0.23270337D-01 0.86723406D+05 0.86723406D+05 0.86723406D+05 0.11268343D+01  1  2  2  2  7  2        4 0.885954982540D-04 0.100000000000D+01
-.669374843112D-05 0.000000000000D+00 -.527464601945D-06 0.104287057932D-05 0.000000000000D+00  7 -4 4 24 -13 13 -24 21 2 0.16654153D+00 0.23270337D-01 0.86723406D+05 0.86723406D+05 0.86723406D+05 0.11268343D+01  1  2  3  2  7  2        4 -.548237630813D-05 0.100000000000D+01
0.824395782724D-05 0.000000000000D+00 0.000000000000D+00 0.104287057932D-05 0.000000000000D+00  7 -4 4 24 -13 13 -24 21 2 0.16654153D+00 0.23270337D-01 0.86723406D+05 0.86723406D+05 0.86723406D+05 0.11268343D+01  1  2 15  2  7  2        4 0.675204327476D-05 0.100000000000D+01
0.558223550427D-04 0.000000000000D+00 -.494363312725D-04 0.104287057932D-05 0.000000000000D+00  7 -4 4 24 -13 13 -24 21 2 0.16654153D+00 0.75372867D-01 0.86723406D+05 0.86723406D+05 0.86723406D+05 0.11268343D+01  1  2  5  2  7  2        4 0.362256352662D-05 0.100000000000D+01
0.964057492146D-05 0.000000000000D+00 -.670593988342D-05 0.104287057932D-05 0.000000000000D+00  7 -4 21 24 -13 13 -24 -4 2 0.16654153D+00 0.75372867D-01 0.86723406D+05 0.86723406D+05 0.86723406D+05 0.11268343D+01  1  2  5  4  7  2        4 0.141225400041D-04 0.100000000000D+01
  </mgrwgt>
  </event>
  <event>
  8     66 0.27011060E-05 0.15252942E+03 0.75467711E-02 0.92157963E-01
       -2 -1    0    0    0  501 0.00000000E+00 0.00000000E+00 0.12724867E+03 0.12724907E+03 0.32000000E+00 0.0000E+00 0.9000E+01
        2 -1    0    0  501    0 0.00000000E+00 0.00000000E+00 -.35477055E+04 0.35477056E+04 0.32000000E+00 0.0000E+00 0.9000E+01
       25  2    1    2    0    0 -.50647359E+03 -.15241780E+03 -.27470221E+04 0.28136969E+04 0.30168328E+03 0.0000E+00 0.0000E+00
       23  2    1    2    0    0 0.50647359E+03 0.15241780E+03 -.67343474E+03 0.86125776E+03 0.92216579E+02 0.0000E+00 0.0000E+00
       24  1    3    3    0    0 -.20835299E+03 0.48316670E+02 -.79273584E+03 0.82501079E+03 0.80419002E+02 0.0000E+00 0.9000E+01
      -13  1    4    4    0    0 0.20347486E+03 0.41282234E+02 -.33081015E+03 0.39056576E+03 0.10565837E+00 0.0000E+00 0.9000E+01
       13  1    4    4    0    0 0.30299873E+03 0.11113556E+03 -.34262459E+03 0.47069200E+03 0.10565837E+00 0.0000E+00 0.9000E+01
      -24  1    3    3    0    0 -.29812061E+03 -.20073447E+03 -.19542863E+04 0.19886861E+04 0.80419002E+02 0.0000E+00 0.9000E+01
#aMCatNLO 1  0  0  2  1 0.11980311D+03 0.00000000D+00  -5  7  0 0.00000000D+00 0.00000000D+00 0.00000000D+00 0.00000000D+00 0.00000000D+00
  <mgrwgt>
 0.8647816669D-03    9    2    0
 0.671894028018471D+03 0.000000000000000D+00 0.000000000000000D+00 0.671894028018471D+03
 0.671894028018471D+03 0.000000000000000D+00 0.000000000000000D+00 -.671894028018471D+03
 0.238399540684618D+03 -.208352986132858D+03 0.483166696064046D+02 -.679827746707420D+02
 0.226069316679379D+03 0.203474732515576D+03 0.412821422862073D+02 0.894491693637090D+02
 0.415124592650751D+03 0.302998860344345D+03 0.111135653308863D+03 0.261091908371539D+03
 0.464194606022193D+03 -.298120606727064D+03 -.200734465201475D+03 -.282558303064506D+03
 0.000000000000000D+00 0.000000000000000D+00 0.000000000000000D+00 -.000000000000000D+00
 0.692140349893438D+03 0.000000000000000D+00 0.000000000000000D+00 0.692140349893438D+03
 0.878649449262945D+03 0.000000000000000D+00 0.000000000000000D+00 -.878649449262945D+03
 0.255148549573186D+03 -.228855870332474D+03 0.404586128946954D+02 -.679827746707420D+02
 0.208709867347170D+03 0.185413215434548D+03 0.343597783816754D+02 0.894491693637090D+02
 0.388001001229761D+03 0.269635564296580D+03 0.983486390585562D+02 0.261091908371539D+03
 0.497258487635221D+03 -.338061114717531D+03 -.216042300617598D+03 -.282558303064506D+03
 0.221671893371043D+03 0.111868205318877D+03 0.428752702826705D+02 -.186509099369507D+03
0.292556672059D-03 0.000000000000D+00 0.000000000000D+00 0.594453379358D-06 0.000000000000D+00  7 -2 2 24 -13 13 -24 21 0 0.19576751D-01 0.54580088D+00 0.31761595D+06 0.31761595D+06 0.31761595D+06 0.10827232D+01  1  2  2  2  7  2        2 0.582917929550D-03 0.100000000000D+01
-.156423974219D-04 0.000000000000D+00 -.112349465265D-05 0.594453379358D-06 0.000000000000D+00  7 -2 2 24 -13 13 -24 21 2 0.19576751D-01 0.54580088D+00 0.31761595D+06 0.31761595D+06 0.31761595D+06 0.10827232D+01  1  2  3  2  7  2        2 -.365372292527D-04 0.100000000000D+01
0.176881184354D-04 0.000000000000D+00 0.000000000000D+00 0.594453379358D-06 0.000000000000D+00  7 -2 2 24 -13 13 -24 21 2 0.19576751D-01 0.54580088D+00 0.31761595D+06 0.31761595D+06 0.31761595D+06 0.10827232D+01  1  2 15  2  7  2        2 0.413155874315D-04 0.100000000000D+01
0.428964233533D-03 0.000000000000D+00 0.000000000000D+00 0.594453379358D-06 0.000000000000D+00  7 -2 2 24 -13 13 -24 21 2 0.19576751D-01 0.72015396D+00 0.39093019D+06 0.39093019D+06 0.39093019D+06 0.10761464D+01  1  2 12  2  7  2        2 0.998646767245D-04 0.100000000000D+01
-.438962034231D-03 0.000000000000D+00 0.000000000000D+00 0.594453379358D-06 0.000000000000D+00  7 -2 2 24 -13 13 -24 21 2 0.19576751D-01 0.54580088D+00 0.31761595D+06 0.31761595D+06 0.31761595D+06 0.10827232D+01  1  2  4  2  7  2        2 -.102531958787D-02 0.100000000000D+01
-.547317901797D-03 0.000000000000D+00 -.830755113144D-04 0.594453379358D-06 0.000000000000D+00  7 -2 2 24 -13 13 -24 21 2 0.19576751D-01 0.71650807D+00 0.31761595D+06 0.31761595D+06 0.31761595D+06 0.10827232D+01  1  2  5  2  7  2        2 -.139517881003D-03 0.100000000000D+01
0.574569273882D-03 0.000000000000D+00 0.841276416258D-04 0.594453379358D-06 0.000000000000D+00  7 -2 2 24 -13 13 -24 21 2 0.19576751D-01 0.54580088D+00 0.31761595D+06 0.31761595D+06 0.31761595D+06 0.10827232D+01  1  2  6  2  7  2        2 0.134206852794D-02 0.100000000000D+01
0.156587578444D-04 0.000000000000D+00 0.000000000000D+00 0.594453379358D-06 0.000000000000D+00  7 -2 21 24 -13 13 -24 -2 2 0.19576751D-01 0.72015396D+00 0.39093019D+06 0.39093019D+06 0.39093019D+06 0.10761464D+01  1  2 12  4  7  2        2 0.339403524433D-07 0.100000000000D+01
-.181146116117D-04 0.000000000000D+00 -.299201117088D-05 0.594453379358D-06 0.000000000000D+00  7 -2 21 24 -13 13 -24 -2 2 0.19576751D-01 0.71650807D+00 0.31761595D+06 0.31761595D+06 0.31761595D+06 0.10827232D+01  1  2  5  4  7  2        2 -.442969466671D-07 0.100000000000D+01
  </mgrwgt>
  </event>
  <event>
  8     66 0.27011060E-05 0.21399486E+03 0.75467711E-02 0.10047640E+00
       -2 -1    0    0    0  501 0.00000000E+00 0.00000000E+00 0.91605450E+03 0.91605455E+03 0.32000000E+00 0.0000E+00 0.9000E+01
        2 -1    0    0  501    0 0.00000000E+00 0.00000000E+00 -.70971050E+02 0.70971771E+02 0.32000000E+00 0.0000E+00 0.9000E+01
       25  2    1    2    0    0 0.12826182E+03 -.38747919E+02 0.67113506E+03 0.74731709E+03 0.30018008E+03 0.0000E+00 0.0000E+00
       23  2    1    2    0    0 -.12826182E+03 0.38747919E+02 0.17394839E+03 0.23970923E+03 0.96176805E+02 0.0000E+00 0.0000E+00
       24  1    3    3    0    0 0.45563760E+02 -.10770404E+03 0.54438847E+03 0.56258532E+03 0.80419002E+02 0.0000E+00 0.9000E+01
      -11  1    4    4    0    0 -.34489445E+02 0.46141625E+02 0.11521745E+03 0.12881627E+03 0.51099893E-03 0.0000E+00 0.9000E+01
       11  1    4    4    0    0 -.93772372E+02 -.73937064E+01 0.58730940E+02 0.11089296E+03 0.51099893E-03 0.0000E+00 0.9000E+01
      -24  1    3    3    0    0 0.82698058E+02 0.68956122E+02 0.12674658E+03 0.18473177E+03 0.80419002E+02 0.0000E+00 0.9000E+01
#aMCatNLO 1  0  0  1  2 0.16753844D+03 0.00000000D+00  -5  7  0 0.00000000D+00 0.00000000D+00 0.00000000D+00 0.00000000D+00 0.00000000D+00
  <mgrwgt>
 0.7652717720D-03    3    2    0
 0.254977906500359D+03 0.000000000000000D+00 0.000000000000000D+00 0.254977906500359D+03
 0.254977906500359D+03 0.000000000000000D+00 0.000000000000000D+00 -.254977906500359D+03
 0.186747224931610D+03 0.455637600948717D+02 -.107704041325128D+03 0.121371715459323D+03
 0.583907306553032D+02 -.344894456147351D+02 0.461416249103108D+02 0.953446476130557D+01
 0.117307659508745D+03 -.937723723780586D+02 -.739370582068837D+01 -.700939531789126D+02
 0.147510197905060D+03 0.826980578979219D+02 0.689561222355057D+02 -.608122270417162D+02
 0.000000000000000D+00 0.000000000000000D+00 -.000000000000000D+00 -.000000000000000D+00
 0.315016199669406D+03 0.000000000000000D+00 0.000000000000000D+00 0.315016199669406D+03
 0.418873689067920D+03 0.000000000000000D+00 0.000000000000000D+00 -.418873689067920D+03
 0.158147100674870D+03 0.238174001129687D+02 -.569642663063138D+02 0.121371715459323D+03
 0.798582218611785D+02 -.432063518243626D+02 0.664803786283895D+02 0.953446476130557D+01
 0.133379646056189D+03 -.109578768670958D+03 0.294866269075186D+02 -.700939531789126D+02
 0.165386919119339D+03 0.629691936084122D+02 0.114988567953294D+03 -.608122270417162D+02
 0.197118001025750D+03 0.659985267739399D+02 -.153991307182889D+03 -.103857489398514D+03
0.288655006686D-04 0.000000000000D+00 0.000000000000D+00 0.518753748752D-07 0.000000000000D+00  7 -2 2 24 -11 11 -24 21 0 0.14093152D+00 0.10918683D-01 0.45793800D+05 0.45793800D+05 0.45793800D+05 0.11506674D+01  1  2  2  1  7  1       -2 0.753087396197D-03 0.100000000000D+01
-.154377299615D-05 0.000000000000D+00 -.110851123028D-06 0.518753748752D-07 0.000000000000D+00  7 -2 2 24 -11 11 -24 21 2 0.14093152D+00 0.10918683D-01 0.45793800D+05 0.45793800D+05 0.45793800D+05 0.11506674D+01  1  2  3  1  7  1       -2 -.533272707266D-04 0.100000000000D+01
0.189649891088D-05 0.000000000000D+00 0.000000000000D+00 0.518753748752D-07 0.000000000000D+00  7 -2 2 24 -11 11 -24 21 2 0.14093152D+00 0.10918683D-01 0.45793800D+05 0.45793800D+05 0.45793800D+05 0.11506674D+01  1  2 15  1  7  1       -2 0.655116465344D-04 0.100000000000D+01
  </mgrwgt>
  </event>
  <event>
  8     66 0.27011060E-05 0.26780085E+03 0.75467711E-02 0.94545217E-01
       -2 -1    0    0    0  501 0.00000000E+00 0.00000000E+00 0.18070571E+03 0.18070600E+03 0.32000000E+00 0.0000E+00 0.9000E+01
        2 -1    0    0  501    0 0.00000000E+00 0.00000000E+00 -.51721123E+03 0.51721133E+03 0.32000000E+00 0.0000E+00 0.9000E+01
       25  2    1    2    0    0 0.99971069E+02 -.17620007E+03 -.30360878E+03 0.47279792E+03 0.30053103E+03 0.0000E+00 0.0000E+00
       23  2    1    2    0    0 -.99971069E+02 0.17620007E+03 -.32896735E+02 0.22511941E+03 0.92497953E+02 0.0000E+00 0.0000E+00
       24  1    3    3    0    0 0.54270158E+01 -.17939848E+03 -.70946198E+02 0.20907856E+03 0.80419002E+02 0.0000E+00 0.9000E+01
      -13  1    4    4    0    0 -.81013854E+02 0.70542414E+02 0.13326496E+02 0.10824548E+03 0.10565837E+00 0.0000E+00 0.9000E+01
       13  1    4    4    0    0 -.18957215E+02 0.10565766E+03 -.46223230E+02 0.11687393E+03 0.10565837E+00 0.0000E+00 0.9000E+01
      -24  1    3    3    0    0 0.94544053E+02 0.31984012E+01 -.23266258E+03 0.26371936E+03 0.80419002E+02 0.0000E+00 0.9000E+01
#aMCatNLO 1  0  0  2  2 0.36646300D+03 0.00000000D+00  -5  7  0 0.00000000D+00 0.00000000D+00 0.00000000D+00 0.00000000D+00 0.00000000D+00
  <mgrwgt>
 0.5761277264D-03    5    2    0
 0.305717448551242D+03 0.000000000000000D+00 0.000000000000000D+00 0.305717448551242D+03
 0.305717448551242D+03 0.000000000000000D+00 0.000000000000000D+00 -.305717448551242D+03
 0.199605490855241D+03 0.542701658907835D+01 -.179398474972225D+03 0.340862243989137D+02
 0.130890226209082D+03 -.810139351267533D+02 0.705423692411875D+02 0.747848097823531D+02
 0.107965623759321D+03 -.189571346905131D+02 0.105657705764953D+03 0.115608031966500D+02
 0.172973556278840D+03 0.945440532281881D+02 0.319839996608432D+01 -.120431837377917D+03
 0.000000000000000D+00 0.000000000000000D+00 0.000000000000000D+00 -.000000000000000D+00
 0.444861942198540D+03 0.000000000000000D+00 0.000000000000000D+00 0.444861942198540D+03
 0.736046628535443D+03 0.000000000000000D+00 0.000000000000000D+00 -.736046628535443D+03
 0.336869201721613D+03 -.273112016325014D+02 -.324200355776797D+03 0.340862243989137D+02
 0.122068126350244D+03 -.964506479142296D+02 0.226543889825420D+01 0.747848097823531D+02
 0.666110347835293D+02 -.296106265007560D+02 0.585370701574106D+02 0.115608031966500D+02
 0.187296477970924D+03 0.725586750488155D+02 -.940434257504569D+02 -.120431837377917D+03
 0.468063729907672D+03 0.808138009986715D+02 0.357441272471589D+03 -.291184686336903D+03
0.700396803478D-05 0.000000000000D+00 0.000000000000D+00 0.291323212331D-06 0.000000000000D+00  7 -2 2 24 -13 13 -24 21 0 0.27800909D-01 0.79570988D-01 0.71717293D+05 0.71717293D+05 0.71717293D+05 0.11337659D+01  1  2  2  2  7  2        2 0.575619202434D-03 0.100000000000D+01
-.380813782693D-06 0.000000000000D+00 -.268970814407D-07 0.291323212331D-06 0.000000000000D+00  7 -2 2 24 -13 13 -24 21 2 0.27800909D-01 0.79570988D-01 0.71717293D+05 0.71717293D+05 0.71717293D+05 0.11337659D+01  1  2  3  2  7  2        2 -.402300489007D-04 0.100000000000D+01
0.450250177070D-06 0.000000000000D+00 0.000000000000D+00 0.291323212331D-06 0.000000000000D+00  7 -2 2 24 -13 13 -24 21 2 0.27800909D-01 0.79570988D-01 0.71717293D+05 0.71717293D+05 0.71717293D+05 0.11337659D+01  1  2 15  2  7  2        2 0.475654702227D-04 0.100000000000D+01
-.322758687370D-06 0.000000000000D+00 -.231785413428D-05 0.291323212331D-06 0.000000000000D+00  7 -2 2 24 -13 13 -24 21 2 0.27800909D-01 0.23989776D+00 0.71717293D+05 0.71717293D+05 0.71717293D+05 0.11337659D+01  1  2  5  2  7  2        2 -.742523629183D-05 0.100000000000D+01
0.742290096604D-07 0.000000000000D+00 -.291310864994D-06 0.291323212331D-06 0.000000000000D+00  7 -2 21 24 -13 13 -24 -2 2 0.27800909D-01 0.23989776D+00 0.71717293D+05 0.71717293D+05 0.71717293D+05 0.11337659D+01  1  2  5  4  7  2        2 0.598338925095D-06 0.100000000000D+01
  </mgrwgt>
  </event>
  <event>
  8     66 0.27011060E-05 0.41331756E+03 0.75467711E-02 0.91228058E-01
       -2 -1    0    0    0  501 0.00000000E+00 0.00000000E+00 0.20200239E+03 0.20200264E+03 0.32000000E+00 0.0000E+00 0.9000E+01
        2 -1    0    0  501    0 0.00000000E+00 0.00000000E+00 -.10082083E+04 0.10082083E+04 0.32000000E+00 0.0000E+00 0.9000E+01
       25  2    1    2    0    0 -.20437863E+03 0.32455962E+03 -.57202124E+03 0.75135305E+03 0.30035570E+03 0.0000E+00 0.0000E+00
       23  2    1    2    0    0 0.20437863E+03 -.32455962E+03 -.23418465E+03 0.45885791E+03 0.92728442E+02 0.0000E+00 0.0000E+00
       24  1    3    3    0    0 -.12934383E+02 0.11318364E+03 -.36265820E+03 0.38854346E+03 0.80419002E+02 0.0000E+00 0.9000E+01
      -13  1    4    4    0    0 0.21026422E+03 -.30498125E+03 -.23447846E+03 0.43841164E+03 0.10565837E+00 0.0000E+00 0.9000E+01
       13  1    4    4    0    0 -.58855929E+01 -.19578364E+02 0.29380835E+00 0.20446272E+02 0.10565837E+00 0.0000E+00 0.9000E+01
      -24  1    3    3    0    0 -.19144424E+03 0.21137598E+03 -.20936304E+03 0.36280959E+03 0.80419002E+02 0.0000E+00 0.9000E+01
#aMCatNLO 1  0  0  2  2 0.42843582D+03 0.00000000D+00  -5  7  0 0.00000000D+00 0.00000000D+00 0.00000000D+00 0.00000000D+00 0.00000000D+00
  <mgrwgt>
 0.9246115421D-03    5    2    0
 0.451287781058511D+03 0.000000000000000D+00 0.000000000000000D+00 0.451287781058511D+03
 0.451287781058511D+03 0.000000000000000D+00 0.000000000000000D+00 -.451287781058511D+03
 0.197038771823322D+03 -.129343834311424D+02 0.113183638092037D+03 -.139209293658073D+03
 0.378398313168779D+03 0.210264498592561D+03 -.304981624712318D+03 0.772031905327167D+02
 0.276771968698675D+02 -.588587324574364D+01 -.195779938031969D+02 0.186570598259862D+02
 0.299461280255053D+03 -.191444241915675D+03 0.211375980423478D+03 0.433490432993701D+02
 0.000000000000000D+00 -.000000000000000D+00 -.000000000000000D+00 -.000000000000000D+00
 0.590685622196109D+03 0.000000000000000D+00 0.000000000000000D+00 0.590685622196109D+03
 0.100307622757781D+04 0.000000000000000D+00 0.000000000000000D+00 -.100307622757781D+04
 0.252232747175435D+03 0.578291628059119D+02 0.185555121949474D+03 -.139209293658073D+03
 0.385132795141239D+03 0.330526225858817D+03 -.181987228355175D+03 0.772031905327167D+02
 0.220390316565971D+02 0.194479593156107D+01 -.115693908134632D+02 0.186570598259862D+02
 0.339694967834155D+03 -.907724637109052D+02 0.314335291519038D+03 0.433490432993701D+02
 0.594662307966491D+03 -.299527720885385D+03 -.306333794299873D+03 -.412390605381698D+03
0.331630985569D-04 0.000000000000D+00 0.000000000000D+00 0.133363185199D-05 0.000000000000D+00  7 -2 2 24 -13 13 -24 21 0 0.31077314D-01 0.15510899D+00 0.17083141D+06 0.17083141D+06 0.17083141D+06 0.11031225D+01  1  2  2  2  7  2        2 0.974645631142D-03 0.100000000000D+01
-.182509088828D-05 0.000000000000D+00 -.127355030503D-06 0.133363185199D-05 0.000000000000D+00  7 -2 2 24 -13 13 -24 21 2 0.31077314D-01 0.15510899D+00 0.17083141D+06 0.17083141D+06 0.17083141D+06 0.11031225D+01  1  2  3  2  7  2        2 -.652715036490D-04 0.100000000000D+01
0.205816173865D-05 0.000000000000D+00 0.000000000000D+00 0.133363185199D-05 0.000000000000D+00  7 -2 2 24 -13 13 -24 21 2 0.31077314D-01 0.15510899D+00 0.17083141D+06 0.17083141D+06 0.17083141D+06 0.11031225D+01  1  2 15  2  7  2        2 0.736069158510D-04 0.100000000000D+01
-.106756439388D-04 0.000000000000D+00 -.971677347966D-05 0.133363185199D-05 0.000000000000D+00  7 -2 2 24 -13 13 -24 21 2 0.31077314D-01 0.38158977D+00 0.17083141D+06 0.17083141D+06 0.17083141D+06 0.11031225D+01  1  2  5  2  7  2        2 -.580680951372D-04 0.100000000000D+01
-.450071093905D-06 0.000000000000D+00 -.960463397556D-06 0.133363185199D-05 0.000000000000D+00  7 -2 21 24 -13 13 -24 -2 2 0.31077314D-01 0.38158977D+00 0.17083141D+06 0.17083141D+06 0.17083141D+06 0.11031225D+01  1  2  5  4  7  2        2 -.301406099324D-06 0.100000000000D+01
  </mgrwgt>
  </event>
  <event>
  8     66 0.27011060E-05 0.11109966E+03 0.75467711E-02 0.10734534E+00
       -2 -1    0    0    0  501 0.00000000E+00 0.00000000E+00 0.15379027E+03 0.15379060E+03 0.32000000E+00 0.0000E+00 0.9000E+01
        2 -1    0    0  501    0 0.00000000E+00 0.00000000E+00 -.42966298E+03 0.42966310E+03 0.32000000E+00 0.0000E+00 0.9000E+01
       25  2    1    2    0    0 -.33731959E+02 -.29413990E+02 -.34580804E+03 0.46022534E+03 0.30036833E+03 0.0000E+00 0.0000E+00
       23  2    1    2    0    0 0.33731959E+02 0.29413990E+02 0.69935322E+02 0.12322836E+03 0.91056316E+02 0.0000E+00 0.0000E+00
       24  1    3    3    0    0 0.90420833E+02 0.30312631E+02 -.73951593E+02 0.14502012E+03 0.80419002E+02 0.0000E+00 0.9000E+01
      -11  1    4    4    0    0 0.41335019E+02 0.40645679E+02 0.64713150E+01 0.58331234E+02 0.51099893E-03 0.0000E+00 0.9000E+01
       11  1    4    4    0    0 -.76030599E+01 -.11231688E+02 0.63464007E+02 0.64897130E+02 0.51099893E-03 0.0000E+00 0.9000E+01
      -24  1    3    3    0    0 -.12415279E+03 -.59726621E+02 -.27185644E+03 0.31520521E+03 0.80419002E+02 0.0000E+00 0.9000E+01
#aMCatNLO 1  0  0  2  1 0.20229612D+02 0.00000000D+00  -5  7  0 0.00000000D+00 0.00000000D+00 0.00000000D+00 0.00000000D+00 0.00000000D+00
  <mgrwgt>
 0.8826744432D-03    9    2    0
 0.257056642305079D+03 0.000000000000000D+00 0.000000000000000D+00 0.257056642305079D+03
 0.257056642305079D+03 0.000000000000000D+00 0.000000000000000D+00 -.257056642305079D+03
 0.124897185421843D+03 0.904208327186822D+02 0.303126307164071D+02 -.610806036631199D+01
 0.696710920471269D+02 0.413350187042868D+02 0.406456788586539D+02 0.386446126371407D+02
 0.107704781134273D+03 -.760305986650486D+01 -.112316884158706D+02 0.106847379636455D+03
 0.211840226006916D+03 -.124152791556464D+03 -.597266211591904D+02 -.139383931907284D+03
 0.000000000000000D+00 -.000000000000000D+00 -.000000000000000D+00 -.000000000000000D+00
 0.265262203059409D+03 0.000000000000000D+00 0.000000000000000D+00 0.265262203059409D+03
 0.270033629713713D+03 0.000000000000000D+00 0.000000000000000D+00 -.270033629713713D+03
 0.126398092241148D+03 0.907176016474604D+02 0.352458524896975D+02 -.610806036631199D+01
 0.714191373022107D+02 0.415016402047562D+02 0.434154459545486D+02 0.386446126371407D+02
 0.107329011140908D+03 -.734911419439322D+01 -.701032223696543D+01 0.106847379636455D+03
 0.209364892935992D+03 -.123655366403445D+03 -.514578694217337D+02 -.139383931907284D+03
 0.207846991528633D+02 -.121476125437856D+01 -.201931067855470D+02 -.477142665430319D+01
0.322068682135D-05 0.000000000000D+00 0.000000000000D+00 0.662927269072D-06 0.000000000000D+00  7 -2 2 24 -11 11 -24 21 0 0.23660076D-01 0.66102032D-01 0.31649750D+05 0.31649750D+05 0.31649750D+05 0.11651850D+01  1  2  2  2  7  2        2 0.425335711159D-03 0.100000000000D+01
-.149457065010D-06 0.000000000000D+00 -.123682854203D-07 0.662927269072D-06 0.000000000000D+00  7 -2 2 24 -11 11 -24 21 2 0.23660076D-01 0.66102032D-01 0.31649750D+05 0.31649750D+05 0.31649750D+05 0.11651850D+01  1  2  3  2  7  2        2 -.267972077799D-04 0.100000000000D+01
0.197222939699D-06 0.000000000000D+00 0.000000000000D+00 0.662927269072D-06 0.000000000000D+00  7 -2 2 24 -11 11 -24 21 2 0.23660076D-01 0.66102032D-01 0.31649750D+05 0.31649750D+05 0.31649750D+05 0.11651850D+01  1  2 15  2  7  2        2 0.353614872184D-04 0.100000000000D+01
0.856510065384D-05 0.000000000000D+00 0.000000000000D+00 0.662927269072D-06 0.000000000000D+00  7 -2 2 24 -11 11 -24 21 2 0.23660076D-01 0.70450439D-01 0.34767462D+05 0.34767462D+05 0.34767462D+05 0.11614393D+01  1  2 12  2  7  2        2 0.142529656085D-02 0.100000000000D+01
-.761503617455D-05 0.000000000000D+00 0.000000000000D+00 0.662927269072D-06 0.000000000000D+00  7 -2 2 24 -11 11 -24 21 2 0.23660076D-01 0.66102032D-01 0.31649750D+05 0.31649750D+05 0.31649750D+05 0.11651850D+01  1  2  4  2  7  2        2 -.136535336491D-02 0.100000000000D+01
-.298022331676D-04 0.000000000000D+00 -.594374377823D-05 0.662927269072D-06 0.000000000000D+00  7 -2 2 24 -11 11 -24 21 2 0.23660076D-01 0.71298021D-01 0.31649750D+05 0.31649750D+05 0.31649750D+05 0.11651850D+01  1  2  5  2  7  2        2 -.492422379186D-02 0.100000000000D+01
0.301825157307D-04 0.000000000000D+00 0.592676791040D-05 0.662927269072D-06 0.000000000000D+00  7 -2 2 24 -11 11 -24 21 2 0.23660076D-01 0.66102032D-01 0.31649750D+05 0.31649750D+05 0.31649750D+05 0.11651850D+01  1  2  6  2  7  2        2 0.541163541047D-02 0.100000000000D+01
0.101072779698D-06 0.000000000000D+00 0.000000000000D+00 0.662927269072D-06 0.000000000000D+00  7 -2 21 24 -11 11 -24 -2 2 0.23660076D-01 0.70450439D-01 0.34767462D+05 0.34767462D+05 0.34767462D+05 0.11614393D+01  1  2 12  4  7  2        2 0.383714677997D-04 0.100000000000D+01
-.367212751978D-06 0.000000000000D+00 -.755479021144D-07 0.662927269072D-06 0.000000000000D+00  7 -2 21 24 -11 11 -24 -2 2 0.23660076D-01 0.71298021D-01 0.31649750D+05 0.31649750D+05 0.31649750D+05 0.11651850D+01  1  2  5  4  7  2        2 -.136951829731D-03 0.100000000000D+01
  </mgrwgt>
  </event>
  <event>
  8     66 0.27011060E-05 0.15382743E+03 0.75467711E-02 0.95370422E-01
       -2 -1    0    0    0  501 0.00000000E+00 0.00000000E+00 0.13166838E+03 0.13166877E+03 0.32000000E+00 0.0000E+00 0.9000E+01
        2 -1    0    0  501    0 0.00000000E+00 0.00000000E+00 -.13008224E+04 0.13008224E+04 0.32000000E+00 0.0000E+00 0.9000E+01
       25  2    1    2    0    0 -.27878787E+03 -.19158711E+03 -.48011660E+03 0.65949792E+03 0.29999544E+03 0.0000E+00 0.0000E+00
       23  2    1    2    0    0 0.27878787E+03 0.19158711E+03 -.68903740E+03 0.77299327E+03 0.91201753E+02 0.0000E+00 0.0000E+00
       24  1    3    3    0    0 0.18069093E+01 0.25498571E+02 -.58690987E+02 0.10278760E+03 0.80419002E+02 0.0000E+00 0.9000E+01
      -13  1    4    4    0    0 0.28114030E+03 0.19737671E+03 -.68169038E+03 0.76334737E+03 0.10565837E+00 0.0000E+00 0.9000E+01
       13  1    4    4    0    0 -.23524267E+01 -.57896014E+01 -.73470244E+01 0.96458969E+01 0.10565837E+00 0.0000E+00 0.9000E+01
      -24  1    3    3    0    0 -.28059478E+03 -.21708568E+03 -.42142561E+03 0.55671033E+03 0.80419002E+02 0.0000E+00 0.9000E+01
#aMCatNLO 1  0  0  1  2 0.13043752D+03 0.00000000D+00  -5  7  0 0.00000000D+00 0.00000000D+00 0.00000000D+00 0.00000000D+00 0.00000000D+00
  <mgrwgt>
 0.4586063120D-02    8    2    0
 0.413856843321194D+03 0.000000000000000D+00 0.000000000000000D+00 0.413856843321194D+03
 0.413856843321194D+03 0.000000000000000D+00 0.000000000000000D+00 -.413856843321194D+03
 0.949887935793879D+02 0.180690933782262D+01 0.254985713427095D+02 0.436143656313224D+02
 0.358200859056450D+03 0.281140678364555D+03 0.197376986612742D+03 -.101538660386918D+03
 0.631555150896802D+01 -.235280714156099D+01 -.578987402162177D+01 0.909861654757460D+00
 0.368208482497582D+03 -.280594780560817D+03 -.217085683933830D+03 0.570144331008384D+02
 0.000000000000000D+00 0.000000000000000D+00 0.000000000000000D+00 0.000000000000000D+00
 0.803300089862259D+03 0.000000000000000D+00 0.000000000000000D+00 0.803300089862259D+03
 0.430031274365599D+03 0.000000000000000D+00 0.000000000000000D+00 -.430031274365599D+03
 0.950848526940159D+02 -.127820897573752D+02 0.225459209056511D+02 0.436143656313224D+02
 0.313027402414940D+03 0.229620919096131D+03 0.186949962885588D+03 -.101538660386918D+03
 0.693788850559640D+01 -.337006770435683D+01 -.599575619528850D+01 0.909861654757460D+00
 0.422878191125805D+03 -.341314206909453D+03 -.229374617504690D+03 0.570144331008384D+02
 0.395403029487501D+03 0.127845445275054D+03 0.258744899087394D+02 0.373268815496660D+03
0.268367633501D-04 0.000000000000D+00 0.000000000000D+00 0.400798909354D-05 0.000000000000D+00  7 -2 2 24 -13 13 -24 21 0 0.20256707D-01 0.20012655D+00 0.15916479D+06 0.15916479D+06 0.15916479D+06 0.11055251D+01  1  2  2  1  7  1       -2 0.111275347862D-02 0.100000000000D+01
-.148849337962D-05 0.000000000000D+00 -.103060237547D-06 0.400798909354D-05 0.000000000000D+00  7 -2 2 24 -13 13 -24 21 2 0.20256707D-01 0.20012655D+00 0.15916479D+06 0.15916479D+06 0.15916479D+06 0.11055251D+01  1  2  3  1  7  1       -2 -.754315383826D-04 0.100000000000D+01
0.168513893663D-05 0.000000000000D+00 0.000000000000D+00 0.400798909354D-05 0.000000000000D+00  7 -2 2 24 -13 13 -24 21 2 0.20256707D-01 0.20012655D+00 0.15916479D+06 0.15916479D+06 0.15916479D+06 0.11055251D+01  1  2 15  1  7  1       -2 0.853968342207D-04 0.100000000000D+01
0.737369620962D-04 0.000000000000D+00 0.000000000000D+00 0.400798909354D-05 0.000000000000D+00  7 -2 2 24 -13 13 -24 21 2 0.39357942D-01 0.20012655D+00 0.21945763D+06 0.21945763D+06 0.21945763D+06 0.10947420D+01  1  2 12  1  7  1       -2 0.113146171232D-02 0.100000000000D+01
-.801567995323D-04 0.000000000000D+00 -.840165280545D-05 0.400798909354D-05 0.000000000000D+00  7 -2 2 24 -13 13 -24 21 2 0.40298977D-01 0.20012655D+00 0.15916479D+06 0.15916479D+06 0.15916479D+06 0.11055251D+01  1  2  5  1  7  1       -2 -.121307719539D-02 0.100000000000D+01
0.702986577306D-04 0.000000000000D+00 0.674269777692D-05 0.400798909354D-05 0.000000000000D+00  7 -2 2 24 -13 13 -24 21 2 0.20256707D-01 0.20012655D+00 0.15916479D+06 0.15916479D+06 0.15916479D+06 0.11055251D+01  1  2  6  1  7  1       -2 0.356248537713D-02 0.100000000000D+01
0.530927746172D-05 0.000000000000D+00 0.000000000000D+00 0.400798909354D-05 0.000000000000D+00  7 21 2 24 -13 13 -24 2 2 0.39357942D-01 0.20012655D+00 0.21945763D+06 0.21945763D+06 0.21945763D+06 0.10947420D+01  1  2 12  3  7  1       -2 0.897533785314D-03 0.100000000000D+01
-.546528582916D-05 0.000000000000D+00 -.625453902565D-06 0.400798909354D-05 0.000000000000D+00  7 21 2 24 -13 13 -24 2 2 0.40298977D-01 0.20012655D+00 0.15916479D+06 0.15916479D+06 0.15916479D+06 0.11055251D+01  1  2  5  3  7  1       -2 -.915059333585D-03 0.100000000000D+01
  </mgrwgt>
  </event>
  <event>
  9     66 0.27011060E-05 0.36971259E+03 0.75467711E-02 0.95785162E-01
       21 -1    0    0  502  501 0.00000000E+00 0.00000000E+00 0.34589269E+03 0.34589350E+03 0.75000000E+00 0.0000E+00 0.9000E+01
        2 -1    0    0  501    0 0.00000000E+00 0.00000000E+00 -.23375253E+04 0.23375253E+04 0.32000000E+00 0.0000E+00 0.9000E+01
       25  2    1    2    0    0 -.11278626E+03 -.20542918E+03 -.11002016E+04 0.11642823E+04 0.30031287E+03 0.0000E+00 0.0000E+00
       23  2    1    2    0    0 0.19996971E+03 0.32745929E+03 -.11524547E+04 0.12180953E+04 0.91578879E+02 0.0000E+00 0.0000E+00
       24  1    3    3    0    0 0.12481866E+02 -.20326567E+03 -.49901874E+03 0.54494004E+03 0.80419002E+02 0.0000E+00 0.9000E+01
      -11  1    4    4    0    0 0.18692943E+03 0.32130614E+03 -.11398888E+04 0.11989690E+04 0.51099893E-03 0.0000E+00 0.9000E+01
       11  1    4    4    0    0 0.13040287E+02 0.61531533E+01 -.12565928E+02 0.19126236E+02 0.51099893E-03 0.0000E+00 0.9000E+01
      -24  1    3    3    0    0 -.12526813E+03 -.21635131E+01 -.60118289E+03 0.61934229E+03 0.80419002E+02 0.0000E+00 0.9000E+01
        2  1    1    2  502    0 -.87183452E+02 -.12203011E+03 0.26102377E+03 0.30104122E+03 0.32000000E+00 0.0000E+00 0.9000E+01
#aMCatNLO 2  0  0  1  2 0.14997433D+03 0.00000000D+00  -5  7  0 0.00000000D+00 0.00000000D+00 0.00000000D+00 0.00000000D+00 0.00000000D+00
  <mgrwgt>
 0.6613316001D-03    2    2    0
 0.380384674213198D+03 0.000000000000000D+00 0.000000000000000D+00 0.380384674213198D+03
 0.380384674213198D+03 0.000000000000000D+00 0.000000000000000D+00 -.380384674213198D+03
 0.260067683129794D+03 -.150230506485256D+02 -.241764121814364D+03 0.499239542371182D+02
 0.306417448368967D+03 0.148414763673302D+03 0.267397415499668D+03 -.190612899050511D+02
 0.202051159602188D+02 0.106303536392659D+02 0.277998537155529D+01 0.169562370178048D+02
 0.174079100967417D+03 -.144022066664042D+03 -.284132790568592D+02 -.478189013498719D+02
 0.000000000000000D+00 -.000000000000000D+00 -.000000000000000D+00 0.000000000000000D+00
 0.206758239341327D+04 0.000000000000000D+00 0.000000000000000D+00 0.206758239341327D+04
 0.391052840839894D+03 0.000000000000000D+00 0.000000000000000D+00 -.391052840839894D+03
 0.224571473488391D+03 0.124818664209350D+02 -.203265669886374D+03 0.499239542371182D+02
 0.372214421281262D+03 0.186929425645050D+03 0.321306135118694D+03 -.190612899050511D+02
 0.222581300455530D+02 0.130402869761403D+02 0.615315324859400D+01 0.169562370178048D+02
 0.156367029017381D+03 -.125268127208183D+03 -.216351306852729D+01 -.478189013498719D+02
 0.168322418042058D+04 -.871834518339424D+02 -.122030105412386D+03 0.167652955257338D+04
-.957050799274D-04 0.000000000000D+00 0.000000000000D+00 0.211671533855D-05 0.000000000000D+00  7 21 2 24 -11 11 -24 2 2 0.52442600D-01 0.34980868D+00 0.20428012D+06 0.20428012D+06 0.20428012D+06 0.10971198D+01  1  2 13  3  7  1       -2 -.260626779468D-02 0.100000000000D+01
0.134517277712D-03 0.000000000000D+00 0.000000000000D+00 0.211671533855D-05 0.378216506867D-09  7 21 2 24 -11 11 -24 2 2 0.53214322D-01 0.35961932D+00 0.20428012D+06 0.20428012D+06 0.20428012D+06 0.10971198D+01  1  2  1  3  7  1       -2 0.326759939478D-02 0.100000000000D+01
  </mgrwgt>
  </event>
  <event>
  7     66 0.27011060E-05 0.26452329E+03 0.75467711E-02 0.10156059E+00
       -2 -1    0    0    0  501 0.00000000E+00 0.00000000E+00 0.54129950E+02 0.54130896E+02 0.32000000E+00 0.0000E+00 0.9000E+01
        2 -1    0    0  501    0 0.00000000E+00 0.00000000E+00 -.24853814E+04 0.24853814E+04 0.32000000E+00 0.0000E+00 0.9000E+01
       23  2    1    2    0    0 0.16845139E+03 0.10207194E+03 -.18590480E+04 0.18714364E+04 0.86140982E+02 0.0000E+00 0.0000E+00
       24  1    1    2    0    0 -.17450826E+03 -.14480463E+03 -.32356824E+03 0.40321847E+03 0.80419002E+02 0.0000E+00 0.9000E+01
      -13  1    3    3    0    0 0.10504947E+03 0.58419002E+02 -.73575064E+03 0.74550465E+03 0.10565837E+00 0.0000E+00 0.9000E+01
       13  1    3    3    0    0 0.63401914E+02 0.43652941E+02 -.11232974E+04 0.11259318E+04 0.10565837E+00 0.0000E+00 0.9000E+01
      -24  1    1    2    0    0 0.60568738E+01 0.42732692E+02 -.24863520E+03 0.26485741E+03 0.80419002E+02 0.0000E+00 0.9000E+01
#aMCatNLO 1  0  0  1  2 0.34418736D+02 0.00000000D+00  -5  7  0 0.00000000D+00 0.00000000D+00 0.00000000D+00 0.00000000D+00 0.00000000D+00
  <mgrwgt>
 0.3186934736D-02    4    2    0
 0.366789856282367D+03 0.000000000000000D+00 0.000000000000000D+00 0.366789856282367D+03
 0.366789856282367D+03 0.000000000000000D+00 0.000000000000000D+00 -.366789856282367D+03
 0.323485675016212D+03 -.174508260622768D+03 -.144804634648280D+03 0.216227312671452D+03
 0.142347721346967D+03 0.105049534575520D+03 0.584190235747800D+02 -.762540932849484D+02
 0.174894834702394D+03 0.634018522477328D+02 0.436529190069973D+02 -.157044041591214D+03
 0.928514814991617D+02 0.605687379951520D+01 0.427326920665029D+02 0.170708222047099D+02
 0.000000000000000D+00 -.000000000000000D+00 0.000000000000000D+00 -.000000000000000D+00
 0.372625027909428D+03 0.000000000000000D+00 0.000000000000000D+00 0.372625027909428D+03
 0.421718439776549D+03 0.000000000000000D+00 0.000000000000000D+00 -.421718439776549D+03
 0.316935863283372D+03 -.159713652760422D+03 -.147371720006287D+03 0.216227312671452D+03
 0.146891964864632D+03 0.111731364401373D+03 0.572596263355807D+02 -.762540932849484D+02
 0.177668031216732D+03 0.715465335805123D+02 0.422396951899455D+02 -.157044041591214D+03
 0.928908535089537D+02 0.103477741605149D+02 0.419881567877124D+02 0.170708222047099D+02
 0.599567548122863D+02 -.339120193819788D+02 0.588424169304857D+01 -.490934118671202D+02
0.936579088784D-04 0.000000000000D+00 0.000000000000D+00 0.143834427326D-09 0.000000000000D+00  7 -2 2 24 -13 13 -24 21 0 0.83277590D-02 0.38236644D+00 0.69972569D+05 0.69972569D+05 0.69972569D+05 0.11346741D+01  1  2  2  1  7  1       -2 0.366800012706D-02 0.100000000000D+01
-.452732645344D-05 0.000000000000D+00 -.359671030787D-06 0.143834427326D-09 0.000000000000D+00  7 -2 2 24 -13 13 -24 21 2 0.83277590D-02 0.38236644D+00 0.69972569D+05 0.69972569D+05 0.69972569D+05 0.11346741D+01  1  2  3  1  7  1       -2 -.228280583222D-03 0.100000000000D+01
0.600801486906D-05 0.000000000000D+00 0.000000000000D+00 0.143834427326D-09 0.000000000000D+00  7 -2 2 24 -13 13 -24 21 2 0.83277590D-02 0.38236644D+00 0.69972569D+05 0.69972569D+05 0.69972569D+05 0.11346741D+01  1  2 15  1  7  1       -2 0.302941074036D-03 0.100000000000D+01
-.110213161885D-04 0.000000000000D+00 0.000000000000D+00 0.143834427326D-09 0.000000000000D+00  7 -2 2 24 -13 13 -24 21 2 0.83277590D-02 0.38236644D+00 0.69972569D+05 0.69972569D+05 0.69972569D+05 0.11346741D+01  1  2  4  1  7  1       -2 -.555725882210D-03 0.100000000000D+01
  </mgrwgt>
  </event>
  <event>
  8     66 0.27011060E-05 0.22647582E+03 0.75467711E-02 0.10326861E+00
       -2 -1    0    0    0  501 0.00000000E+00 0.00000000E+00 0.13246400E+03 0.13246439E+03 0.32000000E+00 0.0000E+00 0.9000E+01
        2 -1    0    0  501    0 0.00000000E+00 0.00000000E+00 -.40944088E+03 0.40944101E+03 0.32000000E+00 0.0000E+00 0.9000E+01
       25  2    1    2    0    0 0.81884480E+02 -.66603877E+02 -.14293476E+03 0.34857360E+03 0.29988675E+03 0.0000E+00 0.0000E+00
       23  2    1    2    0    0 -.81884480E+02 0.66603877E+02 -.13404212E+03 0.19333180E+03 0.90932670E+02 0.0000E+00 0.0000E+00
       24  1    3    3    0    0 -.30353740E+02 -.13535770E+03 -.97979747E+02 0.18791036E+03 0.80419002E+02 0.0000E+00 0.9000E+01
      -13  1    4    4    0    0 0.29174862E+01 -.18199771E+02 -.26281264E+02 0.32100769E+02 0.10565837E+00 0.0000E+00 0.9000E+01
       13  1    4    4    0    0 -.84801967E+02 0.84803648E+02 -.10776086E+03 0.16123103E+03 0.10565837E+00 0.0000E+00 0.9000E+01
      -24  1    3    3    0    0 0.11223822E+03 0.68753824E+02 -.44955013E+02 0.16066324E+03 0.80419002E+02 0.0000E+00 0.9000E+01
#aMCatNLO 1  0  0  1  1 0.43213470D+02 0.00000000D+00  -5  7  0 0.00000000D+00 0.00000000D+00 0.00000000D+00 0.00000000D+00 0.00000000D+00
  <mgrwgt>
 0.9830732622D-03    4    2    0
 0.232886919163245D+03 0.000000000000000D+00 0.000000000000000D+00 0.232886919163245D+03
 0.232886919163245D+03 0.000000000000000D+00 0.000000000000000D+00 -.232886919163245D+03
 0.160360048409913D+03 -.303537357894156D+02 -.135357705162117D+03 -.225200988689445D+01
 0.217191454515551D+02 0.291759941830413D+01 -.181999013225224D+02 -.114879277779139D+02
 0.123503643778861D+03 -.848020889440737D+02 0.848037859408607D+02 -.294970104836741D+02
 0.160191000686161D+03 0.112238225315185D+03 0.687538205437792D+02 0.432369481484825D+02
 0.000000000000000D+00 0.000000000000000D+00 -.000000000000000D+00 -.000000000000000D+00
 0.240454224808762D+03 0.000000000000000D+00 0.000000000000000D+00 0.240454224808762D+03
 0.304976013210551D+03 0.000000000000000D+00 0.000000000000000D+00 -.304976013210551D+03
 0.163629153869287D+03 -.453484023919171D+02 -.135076774071556D+03 -.225200988689445D+01
 0.215101503164596D+02 0.916888058350499D+00 -.181624171930548D+02 -.114879277779139D+02
 0.132047800149218D+03 -.966293618116036D+02 0.850253746399045D+02 -.294970104836741D+02
 0.150587063897493D+03 0.978549883646315D+02 0.690232962546729D+02 0.432369481484825D+02
 0.776560697868556D+02 0.432058877805386D+02 -.809479629966433D+00 -.645217884017885D+02
0.623107971467D-05 0.000000000000D+00 0.000000000000D+00 0.599542908624D-06 0.000000000000D+00  7 -2 2 24 -13 13 -24 21 0 0.20379117D-01 0.62990945D-01 0.51291295D+05 0.51291295D+05 0.51291295D+05 0.11463226D+01  1  2  2  1  7  1       -2 0.111451145556D-02 0.100000000000D+01
-.345843118819D-06 0.000000000000D+00 -.239289867853D-07 0.599542908624D-06 0.000000000000D+00  7 -2 2 24 -13 13 -24 21 2 0.20379117D-01 0.62990945D-01 0.51291295D+05 0.51291295D+05 0.51291295D+05 0.11463226D+01  1  2  3  1  7  1       -2 -.812856902450D-04 0.100000000000D+01
0.396111864920D-06 0.000000000000D+00 0.000000000000D+00 0.599542908624D-06 0.000000000000D+00  7 -2 2 24 -13 13 -24 21 2 0.20379117D-01 0.62990945D-01 0.51291295D+05 0.51291295D+05 0.51291295D+05 0.11463226D+01  1  2 15  1  7  1       -2 0.931006708020D-04 0.100000000000D+01
-.609493802810D-06 0.000000000000D+00 0.000000000000D+00 0.599542908624D-06 0.000000000000D+00  7 -2 2 24 -13 13 -24 21 2 0.20379117D-01 0.62990945D-01 0.51291295D+05 0.51291295D+05 0.51291295D+05 0.11463226D+01  1  2  4  1  7  1       -2 -.143253173956D-03 0.100000000000D+01
  </mgrwgt>
  </event>
  <event>
  8     66 0.27011060E-05 0.34204422E+03 0.75467711E-02 0.89706922E-01
       -2 -1    0    0    0  501 0.00000000E+00 0.00000000E+00 0.43890774E+03 0.43890786E+03 0.32000000E+00 0.0000E+00 0.9000E+01
        2 -1    0    0  501    0 0.00000000E+00 0.00000000E+00 -.32010729E+03 0.32010745E+03 0.32000000E+00 0.0000E+00 0.9000E+01
       25  2    1    2    0    0 0.39247238E+02 -.26715596E+03 0.21640037E+03 0.45956842E+03 0.30242578E+03 0.0000E+00 0.0000E+00
       23  2    1    2    0    0 -.39247238E+02 0.26715596E+03 -.97599919E+02 0.29944690E+03 0.85029674E+02 0.0000E+00 0.0000E+00
       24  1    3    3    0    0 -.58829350E+02 0.63827924E+01 0.26731418E+02 0.10336062E+03 0.80419002E+02 0.0000E+00 0.9000E+01
      -13  1    4    4    0    0 0.23601412E+02 0.12636347E+03 -.36839446E+02 0.13372326E+03 0.10565837E+00 0.0000E+00 0.9000E+01
       13  1    4    4    0    0 -.62848650E+02 0.14079249E+03 -.60760473E+02 0.16572364E+03 0.10565837E+00 0.0000E+00 0.9000E+01
      -24  1    3    3    0    0 0.98076588E+02 -.27353876E+03 0.18966895E+03 0.35620780E+03 0.80419002E+02 0.0000E+00 0.9000E+01
#aMCatNLO 1  0  0  1  1 0.65470854D+03 0.00000000D+00  -5  7  0 0.00000000D+00 0.00000000D+00 0.00000000D+00 0.00000000D+00 0.00000000D+00
  <mgrwgt>
 0.5928340044D-03    5    2    0
 0.374830193914070D+03 0.000000000000000D+00 0.000000000000000D+00 0.374830193914070D+03
 0.374830193914070D+03 0.000000000000000D+00 0.000000000000000D+00 -.374830193914070D+03
 0.100414249489398D+03 -.588293474432588D+02 0.638278855811730D+01 0.106851970394189D+02
 0.141229952474662D+03 0.236015448435378D+02 0.126363449025819D+03 -.584905574199195D+02
 0.177420600090203D+03 -.628487830702599D+02 0.140792517302023D+03 -.877813583553740D+02
 0.330595585773878D+03 0.980765856699809D+02 -.273538754885959D+03 0.135586718735875D+03
 0.000000000000000D+00 -.000000000000000D+00 -.000000000000000D+00 0.000000000000000D+00
 0.950951547819734D+03 0.000000000000000D+00 0.000000000000000D+00 0.950951547819734D+03
 0.734055269362905D+03 0.000000000000000D+00 0.000000000000000D+00 -.734055269362905D+03
 0.137319881815126D+03 -.561046530570435D+02 0.955386228544618D+02 0.106851970394189D+02
 0.298444004842783D+03 0.286406915436527D+02 0.291251419751402D+03 -.584905574199195D+02
 0.356782758955618D+03 -.567262255497960D+02 0.341131214561408D+03 -.877813583553740D+02
 0.202759320278783D+03 0.104189418986795D+03 -.735182472531593D+02 0.135586718735875D+03
 0.689700851290330D+03 -.199992319236077D+02 -.654403009914112D+03 0.216896278456829D+03
0.223954436209D-04 0.000000000000D+00 0.000000000000D+00 0.169656435714D-08 0.000000000000D+00  7 -2 2 24 -13 13 -24 21 0 0.67524290D-01 0.49247297D-01 0.11699425D+06 0.11699425D+06 0.11699425D+06 0.11161709D+01  1  2  2  1  7  1       -2 0.573381942870D-03 0.100000000000D+01
-.123151698416D-05 0.000000000000D+00 -.860044003600D-07 0.169656435714D-08 0.000000000000D+00  7 -2 2 24 -13 13 -24 21 2 0.67524290D-01 0.49247297D-01 0.11699425D+06 0.11699425D+06 0.11699425D+06 0.11161709D+01  1  2  3  1  7  1       -2 -.392813268555D-04 0.100000000000D+01
0.145388524297D-05 0.000000000000D+00 0.000000000000D+00 0.169656435714D-08 0.000000000000D+00  7 -2 2 24 -13 13 -24 21 2 0.67524290D-01 0.49247297D-01 0.11699425D+06 0.11699425D+06 0.11699425D+06 0.11161709D+01  1  2 15  1  7  1       -2 0.463741403281D-04 0.100000000000D+01
0.735537914834D-05 0.000000000000D+00 -.754354455977D-05 0.169656435714D-08 0.000000000000D+00  7 -2 2 24 -13 13 -24 21 2 0.26991189D+00 0.49247297D-01 0.11699425D+06 0.11699425D+06 0.11699425D+06 0.11161709D+01  1  2  5  1  7  1       -2 0.525833864664D-05 0.100000000000D+01
0.130511891965D-05 0.000000000000D+00 -.124728410861D-05 0.169656435714D-08 0.000000000000D+00  7 21 2 24 -13 13 -24 2 2 0.26991189D+00 0.49247297D-01 0.11699425D+06 0.11699425D+06 0.11699425D+06 0.11161709D+01  1  2  5  3  7  1       -2 0.710090938562D-05 0.100000000000D+01
  </mgrwgt>
  </event>
  <event>
  9     66 -.27011060E-05 0.30354859E+03 0.75467711E-02 0.10014282E+00
       -2 -1    0    0    0  501 0.00000000E+00 0.00000000E+00 0.65609631E+02 0.65610411E+02 0.32000000E+00 0.0000E+00 0.9000E+01
        2 -1    0    0  502    0 0.00000000E+00 0.00000000E+00 -.17309104E+04 0.17309105E+04 0.32000000E+00 0.0000E+00 0.9000E+01
       25  2    1    2    0    0 0.13966184E+03 -.20531035E+03 -.79296485E+03 0.88350953E+03 0.30023003E+03 0.0000E+00 0.0000E+00
       23  2    1    2    0    0 -.11774166E+03 0.19407243E+03 -.80368429E+03 0.84007028E+03 0.91007861E+02 0.0000E+00 0.0000E+00
       24  1    3    3    0    0 0.19431152E+03 -.18657095E+03 -.49175796E+03 0.56644399E+03 0.80419002E+02 0.0000E+00 0.9000E+01
      -11  1    4    4    0    0 -.42288101E+02 0.69195323E+02 -.45371809E+03 0.46090821E+03 0.51099893E-03 0.0000E+00 0.9000E+01
       11  1    4    4    0    0 -.75453557E+02 0.12487711E+03 -.34996620E+03 0.37916207E+03 0.51099893E-03 0.0000E+00 0.9000E+01
      -24  1    3    3    0    0 -.54649677E+02 -.18739397E+02 -.30120689E+03 0.31706555E+03 0.80419002E+02 0.0000E+00 0.9000E+01
       21  1    1    2  502  501 -.21920180E+02 0.11237918E+02 -.68651669E+02 0.72941067E+02 0.75000000E+00 0.0000E+00 0.9000E+01
#aMCatNLO 2  0  0  2  1 0.24633009D+02 0.00000000D+00  -5  7  0 0.00000000D+00 0.00000000D+00 0.00000000D+00 0.00000000D+00 0.00000000D+00
  <mgrwgt>
 -.2282451956D-03    3    2    0
 0.324357870081461D+03 0.000000000000000D+00 0.000000000000000D+00 0.324357870081461D+03
 0.324357870081461D+03 0.000000000000000D+00 0.000000000000000D+00 -.324357870081461D+03
 0.284855874225176D+03 0.184527777866274D+03 -.181555080695183D+03 0.875380202867294D+02
 0.110507675623545D+03 -.459751334905504D+02 0.710855706162746D+02 -.710286922475929D+02
 0.150759662977347D+03 -.804645362754459D+02 0.127446111495142D+03 0.337979996279689D+01
 0.102592527336853D+03 -.580881081002774D+02 -.169766014162337D+02 -.198891280019334D+02
 0.000000000000000D+00 -.000000000000000D+00 0.000000000000000D+00 -.000000000000000D+00
 0.335554980423135D+03 0.000000000000000D+00 0.000000000000000D+00 0.335554980423135D+03
 0.338428294324034D+03 0.000000000000000D+00 0.000000000000000D+00 -.338428294324034D+03
 0.294441516917572D+03 0.194311515580037D+03 -.186570953922681D+03 0.875380202867294D+02
 0.107802371682017D+03 -.422881011030861D+02 0.691953229847190D+02 -.710286922475929D+02
 0.145941614323829D+03 -.754535565596095D+02 0.124877109776622D+03 0.337979996279689D+01
 0.100997750599853D+03 -.546496774930281D+02 -.187393972445859D+02 -.198891280019334D+02
 0.248000212238984D+02 -.219201804243133D+02 0.112379184059264D+02 -.287331390089925D+01
-.120655459032D-04 0.000000000000D+00 0.000000000000D+00 0.170066999171D-05 0.000000000000D+00  7 -2 2 24 -11 11 -24 21 2 0.97568664D-02 0.27052440D+00 0.99785758D+05 0.99785758D+05 0.99785758D+05 0.11217985D+01  1  2 13  2  7  2        2 -.115097206385D-02 0.100000000000D+01
-.129828665033D-05 0.000000000000D+00 0.000000000000D+00 0.170066999171D-05 0.000000000000D+00  7 -2 2 24 -11 11 -24 21 2 0.97568664D-02 0.25521830D+00 0.92141749D+05 0.92141749D+05 0.92141749D+05 0.11246505D+01  1  2  8  2  7  2        2 -.140826236562D-03 0.100000000000D+01
0.113579675532D-04 0.000000000000D+00 0.000000000000D+00 0.170066999171D-05 0.188329515639D-07  7 -2 2 24 -11 11 -24 21 2 0.10093682D-01 0.26628949D+00 0.99785758D+05 0.99785758D+05 0.99785758D+05 0.11217985D+01  1  2  1  2  7  2        2 0.106355310483D-02 0.100000000000D+01
  </mgrwgt>
  </event>
  <event>
  8     66 0.27011060E-05 0.20013661E+03 0.75467711E-02 0.96414350E-01
       -2 -1    0    0    0  501 0.00000000E+00 0.00000000E+00 0.50073326E+02 0.50074349E+02 0.32000000E+00 0.0000E+00 0.9000E+01
        2 -1    0    0  501    0 0.00000000E+00 0.00000000E+00 -.12753753E+04 0.12753753E+04 0.32000000E+00 0.0000E+00 0.9000E+01
       25  2    1    2    0    0 -.11275046E+03 -.90655696E+02 -.78559249E+03 0.85339085E+03 0.30031527E+03 0.0000E+00 0.0000E+00
       23  2    1    2    0    0 0.11275046E+03 0.90655696E+02 -.43970946E+03 0.47205881E+03 0.92541849E+02 0.0000E+00 0.0000E+00
       24  1    3    3    0    0 -.83676655E+02 0.75197241E+01 -.66769253E+03 0.67774543E+03 0.80419002E+02 0.0000E+00 0.9000E+01
      -11  1    4    4    0    0 -.26607273E+01 0.16238340E+02 -.66494575E+01 0.17747632E+02 0.51099893E-03 0.0000E+00 0.9000E+01
       11  1    4    4    0    0 0.11541119E+03 0.74417356E+02 -.43306000E+03 0.45431118E+03 0.51099893E-03 0.0000E+00 0.9000E+01
      -24  1    3    3    0    0 -.29073803E+02 -.98175420E+02 -.11789996E+03 0.17564542E+03 0.80419002E+02 0.0000E+00 0.9000E+01
#aMCatNLO 1  0  0  2  1 0.33106519D+03 0.00000000D+00  -5  7  0 0.00000000D+00 0.00000000D+00 0.00000000D+00 0.00000000D+00 0.00000000D+00
  <mgrwgt>
 0.1386046559D-02    3    2    0
 0.252711270859085D+03 0.000000000000000D+00 0.000000000000000D+00 0.252711270859085D+03
 0.252711270859085D+03 0.000000000000000D+00 0.000000000000000D+00 -.252711270859085D+03
 0.158664245341379D+03 -.836766549948006D+02 0.751972407491002D+01 -.107929597210854D+03
 0.304220690244974D+02 -.266072728952067D+01 0.162383399025811D+02 0.255878707834459D+02
 0.141539668190339D+03 0.115411185422047D+03 0.744173562976036D+02 -.342898386199883D+02
 0.174796559161953D+03 -.290738031377254D+02 -.981754202750947D+02 0.116631565047396D+03
 0.000000000000000D+00 0.000000000000000D+00 -.000000000000000D+00 0.000000000000000D+00
 0.558911494595805D+03 0.000000000000000D+00 0.000000000000000D+00 0.558911494595805D+03
 0.408796191205847D+03 0.000000000000000D+00 0.000000000000000D+00 -.408796191205847D+03
 0.238414644513837D+03 -.183265549017886D+03 0.716886835795183D+02 -.107929597210854D+03
 0.435937599456517D+02 -.212241783710594D+02 0.281994862974884D+02 0.255878707834459D+02
 0.132055482728135D+03 0.467924822218213D+02 0.118631029218736D+03 -.342898386199883D+02
 0.190134841251672D+03 -.120599984685025D+03 -.392015769069912D+02 0.116631565047396D+03
 0.363508957362356D+03 0.278297229852150D+03 -.179317622188751D+03 0.150115303389958D+03
0.688008143937D-05 0.000000000000D+00 0.000000000000D+00 0.352128981053D-06 0.000000000000D+00  7 -2 2 24 -11 11 -24 21 0 0.77036704D-02 0.19621166D+00 0.40054663D+05 0.40054663D+05 0.40054663D+05 0.11558650D+01  1  2  2  2  7  2        2 0.136419746504D-02 0.100000000000D+01
-.356943299536D-06 0.000000000000D+00 -.264213242942D-07 0.352128981053D-06 0.000000000000D+00  7 -2 2 24 -11 11 -24 21 2 0.77036704D-02 0.19621166D+00 0.40054663D+05 0.40054663D+05 0.40054663D+05 0.11558650D+01  1  2  3  2  7  2        2 -.945577462300D-04 0.100000000000D+01
0.439420810725D-06 0.000000000000D+00 0.000000000000D+00 0.352128981053D-06 0.000000000000D+00  7 -2 2 24 -11 11 -24 21 2 0.77036704D-02 0.19621166D+00 0.40054663D+05 0.40054663D+05 0.40054663D+05 0.11558650D+01  1  2 15  2  7  2        2 0.116406839862D-03 0.100000000000D+01
  </mgrwgt>
  </event>
  <event>
  8     66 0.27011060E-05 0.98016398E+02 0.75467711E-02 0.10147454E+00
       -2 -1    0    0    0  501 0.00000000E+00 0.00000000E+00 0.36620513E+03 0.36620527E+03 0.32000000E+00 0.0000E+00 0.9000E+01
        2 -1    0    0  501    0 0.00000000E+00 0.00000000E+00 -.38012488E+03 0.38012502E+03 0.32000000E+00 0.0000E+00 0.9000E+01
       25  2    1    2    0    0 -.18273573E+03 -.93004503E+02 -.23309657E+03 0.43233999E+03 0.30090143E+03 0.0000E+00 0.0000E+00
       23  2    1    2    0    0 0.18273573E+03 0.93004503E+02 0.21917683E+03 0.31399030E+03 0.92245540E+02 0.0000E+00 0.0000E+00
       24  1    3    3    0    0 -.20610157E+03 -.81462095E+02 -.25266000E+03 0.34556942E+03 0.80419002E+02 0.0000E+00 0.9000E+01
      -13  1    4    4    0    0 0.36009900E+02 -.97813126E+01 0.75971628E+02 0.84640926E+02 0.10565837E+00 0.0000E+00 0.9000E+01
       13  1    4    4    0    0 0.14672583E+03 0.10278582E+03 0.14320520E+03 0.22934937E+03 0.10565837E+00 0.0000E+00 0.9000E+01
      -24  1    3    3    0    0 0.23365837E+02 -.11542408E+02 0.19563428E+02 0.86770578E+02 0.80419002E+02 0.0000E+00 0.9000E+01
#aMCatNLO 1  0  0  1  2 0.32981945D+02 0.00000000D+00  -5  7  0 0.00000000D+00 0.00000000D+00 0.00000000D+00 0.00000000D+00 0.00000000D+00
  <mgrwgt>
 0.5897208434D-03    9    2    0
 0.373100235120377D+03 0.000000000000000D+00 0.000000000000000D+00 0.373100235120377D+03
 0.373100235120377D+03 0.000000000000000D+00 0.000000000000000D+00 -.373100235120377D+03
 0.340916374497836D+03 -.206101566850905D+03 -.814620948418464D+02 -.246257649001931D+03
 0.860726471751088D+02 0.360097551245154D+02 -.978145990986720D+01 0.775636588205770D+02
 0.232060835609434D+03 0.146725975461795D+03 0.102785963308259D+03 0.147508526178410D+03
 0.871506129583760D+02 0.233658362645942D+02 -.115424085565457D+02 0.211854640029448D+02
 0.000000000000000D+00 -.000000000000000D+00 -.000000000000000D+00 0.000000000000000D+00
 0.424001818365247D+03 0.000000000000000D+00 0.000000000000000D+00 0.424001818365247D+03
 0.378845722161789D+03 0.000000000000000D+00 0.000000000000000D+00 -.378845722161789D+03
 0.332477113142970D+03 -.196146474310981D+03 -.704098411653204D+02 -.246257649001931D+03
 0.869006625963084D+02 0.385669008904243D+02 -.694248844080875D+01 0.775636588205770D+02
 0.240003413245363D+03 0.153704723204966D+03 0.110533846122274D+03 0.147508526178410D+03
 0.875478240295746D+02 0.259484853972551D+02 -.867512296807366D+01 0.211854640029448D+02
 0.559185275128206D+02 -.220736351816639D+02 -.245063935480716D+02 0.451560962034576D+02
0.150763745725D-04 0.000000000000D+00 0.000000000000D+00 0.401678485447D-06 0.000000000000D+00  7 -2 2 24 -13 13 -24 21 0 0.56339273D-01 0.58480772D-01 0.72026226D+05 0.72026226D+05 0.72026226D+05 0.11336076D+01  1  2  2  1  7  1       -2 0.468353912022D-03 0.100000000000D+01
-.727042255376D-06 0.000000000000D+00 -.578972480591D-07 0.401678485447D-06 0.000000000000D+00  7 -2 2 24 -13 13 -24 21 2 0.56339273D-01 0.58480772D-01 0.72026226D+05 0.72026226D+05 0.72026226D+05 0.11336076D+01  1  2  3  1  7  1       -2 -.290243434709D-04 0.100000000000D+01
0.923969964231D-06 0.000000000000D+00 0.000000000000D+00 0.401678485447D-06 0.000000000000D+00  7 -2 2 24 -13 13 -24 21 2 0.56339273D-01 0.58480772D-01 0.72026226D+05 0.72026226D+05 0.72026226D+05 0.11336076D+01  1  2 15  1  7  1       -2 0.368859188037D-04 0.100000000000D+01
0.699319665213D-04 0.000000000000D+00 0.000000000000D+00 0.401678485447D-06 0.000000000000D+00  7 -2 2 24 -13 13 -24 21 2 0.64421551D-01 0.58480772D-01 0.81172504D+05 0.81172504D+05 0.81172504D+05 0.11292328D+01  1  2 12  1  7  1       -2 0.210136738048D-02 0.100000000000D+01
-.711231767119D-04 0.000000000000D+00 0.000000000000D+00 0.401678485447D-06 0.000000000000D+00  7 -2 2 24 -13 13 -24 21 2 0.56339273D-01 0.58480772D-01 0.72026226D+05 0.72026226D+05 0.72026226D+05 0.11336076D+01  1  2  4  1  7  1       -2 -.283931710208D-02 0.100000000000D+01
-.103779086883D-03 0.000000000000D+00 -.142247204142D-04 0.401678485447D-06 0.000000000000D+00  7 -2 2 24 -13 13 -24 21 2 0.64666625D-01 0.58480772D-01 0.72026226D+05 0.72026226D+05 0.72026226D+05 0.11336076D+01  1  2  5  1  7  1       -2 -.312355295343D-02 0.100000000000D+01
0.104876023079D-03 0.000000000000D+00 0.140906223031D-04 0.401678485447D-06 0.000000000000D+00  7 -2 2 24 -13 13 -24 21 2 0.56339273D-01 0.58480772D-01 0.72026226D+05 0.72026226D+05 0.72026226D+05 0.11336076D+01  1  2  6  1  7  1       -2 0.418676864131D-02 0.100000000000D+01
0.145517764471D-05 0.000000000000D+00 0.000000000000D+00 0.401678485447D-06 0.000000000000D+00  7 21 2 24 -13 13 -24 2 2 0.64421551D-01 0.58480772D-01 0.81172504D+05 0.81172504D+05 0.81172504D+05 0.11292328D+01  1  2 12  3  7  1       -2 0.453190557121D-03 0.100000000000D+01
-.212497315459D-05 0.000000000000D+00 -.302883148394D-06 0.401678485447D-06 0.000000000000D+00  7 21 2 24 -13 13 -24 2 2 0.64666625D-01 0.58480772D-01 0.72026226D+05 0.72026226D+05 0.72026226D+05 0.11336076D+01  1  2  5  3  7  1       -2 -.664951167382D-03 0.100000000000D+01
  </mgrwgt>
  </event>
  <event>
  8     66 0.27011060E-05 0.20439664E+03 0.75467711E-02 0.81513768E-01
       -2 -1    0    0    0  501 0.00000000E+00 0.00000000E+00 0.11072762E+03 0.11072809E+03 0.32000000E+00 0.0000E+00 0.9000E+01
        2 -1    0    0  501    0 0.00000000E+00 0.00000000E+00 -.51827030E+03 0.51827040E+03 0.32000000E+00 0.0000E+00 0.9000E+01
       25  2    1    2    0    0 -.53066971E+02 0.50419981E+02 -.14381431E+03 0.34056347E+03 0.29990439E+03 0.0000E+00 0.0000E+00
       23  2    1    2    0    0 0.53066971E+02 -.50419981E+02 -.26372837E+03 0.28843502E+03 0.91015553E+02 0.0000E+00 0.0000E+00
       24  1    3    3    0    0 0.95220075E+02 0.19161988E+02 -.10634940E+03 0.16495895E+03 0.80419002E+02 0.0000E+00 0.9000E+01
      -13  1    4    4    0    0 0.75294535E+02 -.46682251E+02 -.23941843E+03 0.25528356E+03 0.10565837E+00 0.0000E+00 0.9000E+01
       13  1    4    4    0    0 -.22227564E+02 -.37377295E+01 -.24309945E+02 0.33151468E+02 0.10565837E+00 0.0000E+00 0.9000E+01
      -24  1    3    3    0    0 -.14828705E+03 0.31257993E+02 -.37464909E+02 0.17560451E+03 0.80419002E+02 0.0000E+00 0.9000E+01
#aMCatNLO 1  0  0  1  2 0.18991655D+04 0.00000000D+00  -5  7  0 0.00000000D+00 0.00000000D+00 0.00000000D+00 0.00000000D+00 0.00000000D+00
  <mgrwgt>
 0.8460314592D-03    5    2    0
 0.239555871175606D+03 0.000000000000000D+00 0.000000000000000D+00 0.239555871175606D+03
 0.239555871175606D+03 0.000000000000000D+00 0.000000000000000D+00 -.239555871175606D+03
 0.126102128311335D+03 0.952200736166655D+02 0.191619889819753D+02 0.697544958602982D+00
 0.131492945569946D+03 0.752946639283835D+02 -.466823114126241D+02 -.971692858867831D+02
 0.228439618251108D+02 -.222276895316519D+02 -.373767279495786D+01 -.371567114118621D+01
 0.198672706644821D+03 -.148287048013397D+03 0.312579952256067D+02 0.100187412069366D+03
 0.000000000000000D+00 0.000000000000000D+00 0.000000000000000D+00 0.000000000000000D+00
 0.194432819839578D+04 0.000000000000000D+00 0.000000000000000D+00 0.194432819839578D+04
 0.191375070771161D+04 0.000000000000000D+00 0.000000000000000D+00 -.191375070771161D+04
 0.153905960367165D+03 -.908644732477307D+02 -.946730669969654D+02 0.697544958602982D+00
 0.379521439794454D+03 -.264309383906482D+03 -.254431135521744D+03 -.971692858867831D+02
 0.176281245061104D+03 -.154560023456638D+03 -.846904380514528D+02 -.371567114118621D+01
 0.124895864648928D+04 -.111033720037150D+04 -.557264989587521D+03 0.100187412069366D+03
 0.189941161439540D+04 0.162007108098235D+04 0.991059630157683D+03 0.305774906841694D+02
0.454691368324D-05 0.000000000000D+00 0.000000000000D+00 0.794201083174D-06 0.000000000000D+00  7 -2 2 24 -13 13 -24 21 0 0.17035062D-01 0.79733936D-01 0.41777988D+05 0.41777988D+05 0.41777988D+05 0.11542221D+01  1  2  2  1  7  1       -2 0.839325348936D-03 0.100000000000D+01
-.244868610283D-06 0.000000000000D+00 -.174613457735D-07 0.794201083174D-06 0.000000000000D+00  7 -2 2 24 -13 13 -24 21 2 0.17035062D-01 0.79733936D-01 0.41777988D+05 0.41777988D+05 0.41777988D+05 0.11542221D+01  1  2  3  1  7  1       -2 -.602178879606D-04 0.100000000000D+01
0.271656222540D-06 0.000000000000D+00 0.000000000000D+00 0.794201083174D-06 0.000000000000D+00  7 -2 2 24 -13 13 -24 21 2 0.17035062D-01 0.79733936D-01 0.41777988D+05 0.41777988D+05 0.41777988D+05 0.11542221D+01  1  2 15  1  7  1       -2 0.668054756133D-04 0.100000000000D+01
0.509696249998D-04 0.000000000000D+00 -.112193580100D-04 0.794201083174D-06 0.000000000000D+00  7 -2 2 24 -13 13 -24 21 2 0.65261983D+00 0.79733936D-01 0.41777988D+05 0.41777988D+05 0.41777988D+05 0.11542221D+01  1  2  5  1  7  1       -2 0.415366274065D-07 0.100000000000D+01
0.141807183231D-04 0.000000000000D+00 -.388646697467D-05 0.794201083174D-06 0.000000000000D+00  7 21 2 24 -13 13 -24 2 2 0.65261983D+00 0.79733936D-01 0.41777988D+05 0.41777988D+05 0.41777988D+05 0.11542221D+01  1  2  5  3  7  1       -2 0.769859892549D-07 0.100000000000D+01
  </mgrwgt>
  </event>
  <event>
  7     66 0.27011060E-05 0.12640468E+03 0.75467711E-02 0.10009440E+00
       -2 -1    0    0    0  501 0.00000000E+00 0.00000000E+00 0.21758325E+03 0.21758348E+03 0.32000000E+00 0.0000E+00 0.9000E+01
        2 -1    0    0  501    0 0.00000000E+00 0.00000000E+00 -.47331473E+03 0.47331484E+03 0.32000000E+00 0.0000E+00 0.9000E+01
       25  2    1    2    0    0 -.89683080E+02 -.18140359E+03 -.19327196E+03 0.40951859E+03 0.29900019E+03 0.0000E+00 0.0000E+00
       24  1    3    3    0    0 -.16973994E+03 -.13549956E+03 -.86955327E+02 0.24738678E+03 0.80419002E+02 0.0000E+00 0.9000E+01
      -11  1    1    2    0    0 0.10878602E+03 0.74379192E+02 0.33936703E+02 0.13608219E+03 0.51099893E-03 0.0000E+00 0.9000E+01
       11  1    1    2    0    0 -.19102936E+02 0.10702440E+03 -.96396222E+02 0.14529754E+03 0.51099893E-03 0.0000E+00 0.9000E+01
      -24  1    3    3    0    0 0.80056858E+02 -.45904030E+02 -.10631664E+03 0.16213181E+03 0.80419002E+02 0.0000E+00 0.9000E+01
#aMCatNLO 1  0  0  2  1 0.38191811D+02 0.00000000D+00  -5  7  0 0.00000000D+00 0.00000000D+00 0.00000000D+00 0.00000000D+00 0.00000000D+00
  <mgrwgt>
 0.1654470496D-02    9    2    0
 0.320913499861112D+03 0.000000000000000D+00 0.000000000000000D+00 0.320913499861112D+03
 0.320913499861112D+03 0.000000000000000D+00 0.000000000000000D+00 -.320913499861112D+03
 0.231654196335316D+03 -.169739952826801D+03 -.135499587677994D+03 0.496597209411043D+01
 0.160008273845902D+03 0.108785996308478D+03 0.743792362151722D+02 0.907523218786424D+02
 0.117997940536735D+03 -.191028932950265D+02 0.107024398736851D+03 -.458734292775829D+02
 0.132166589004271D+03 0.800568498133497D+02 -.459040472740283D+02 -.498448646951699D+02
 0.000000000000000D+00 0.000000000000000D+00 -.000000000000000D+00 -.000000000000000D+00
 0.327879467138826D+03 0.000000000000000D+00 0.000000000000000D+00 0.327879467138826D+03
 0.378473234281525D+03 0.000000000000000D+00 0.000000000000000D+00 -.378473234281525D+03
 0.229918979125946D+03 -.176401551881308D+03 -.123504463979945D+03 0.496597209411043D+01
 0.161017722476610D+03 0.104152827425912D+03 0.827218928964884D+02 0.907523218786424D+02
 0.124326057620128D+03 -.226002051034803D+02 0.113321788809384D+03 -.458734292775829D+02
 0.127699535163750D+03 0.763063633919362D+02 -.391507815513980D+02 -.498448646951699D+02
 0.633904070339170D+02 0.185425661669404D+02 -.333884361745300D+02 -.505937671426990D+02
0.182642417122D-04 0.000000000000D+00 0.000000000000D+00 0.174577605626D-09 0.000000000000D+00  7 -2 2 24 -11 11 -24 21 0 0.33474372D-01 0.72817677D-01 0.88359517D+05 0.88359517D+05 0.88359517D+05 0.11261594D+01  1  2  2  2  7  2        2 0.119421341192D-02 0.100000000000D+01
-.100744372116D-05 0.000000000000D+00 -.701394972600D-07 0.174577605626D-09 0.000000000000D+00  7 -2 2 24 -11 11 -24 21 2 0.33474372D-01 0.72817677D-01 0.88359517D+05 0.88359517D+05 0.88359517D+05 0.11261594D+01  1  2  3  2  7  2        2 -.835412287663D-04 0.100000000000D+01
0.114138900422D-05 0.000000000000D+00 0.000000000000D+00 0.174577605626D-09 0.000000000000D+00  7 -2 2 24 -11 11 -24 21 2 0.33474372D-01 0.72817677D-01 0.88359517D+05 0.88359517D+05 0.88359517D+05 0.11261594D+01  1  2 15  2  7  2        2 0.946485028501D-04 0.100000000000D+01
0.691788781841D-04 0.000000000000D+00 0.000000000000D+00 0.174577605626D-09 0.000000000000D+00  7 -2 2 24 -11 11 -24 21 2 0.33474372D-01 0.86574506D-01 0.10054825D+06 0.10054825D+06 0.10054825D+06 0.11215272D+01  1  2 12  2  7  2        2 0.468280181356D-02 0.100000000000D+01
-.701486625675D-04 0.000000000000D+00 0.000000000000D+00 0.174577605626D-09 0.000000000000D+00  7 -2 2 24 -11 11 -24 21 2 0.33474372D-01 0.72817677D-01 0.88359517D+05 0.88359517D+05 0.88359517D+05 0.11261594D+01  1  2  4  2  7  2        2 -.581700530177D-02 0.100000000000D+01
-.105229609111D-03 0.000000000000D+00 -.151504619838D-04 0.174577605626D-09 0.000000000000D+00  7 -2 2 24 -11 11 -24 21 2 0.33474372D-01 0.87004594D-01 0.88359517D+05 0.88359517D+05 0.88359517D+05 0.11261594D+01  1  2  5  2  7  2        2 -.714927033932D-02 0.100000000000D+01
0.106472084907D-03 0.000000000000D+00 0.149135709137D-04 0.174577605626D-09 0.000000000000D+00  7 -2 2 24 -11 11 -24 21 2 0.33474372D-01 0.72817677D-01 0.88359517D+05 0.88359517D+05 0.88359517D+05 0.11261594D+01  1  2  6  2  7  2        2 0.882908753679D-02 0.100000000000D+01
0.176892713512D-05 0.000000000000D+00 0.000000000000D+00 0.174577605626D-09 0.000000000000D+00  7 -2 21 24 -11 11 -24 -2 2 0.33474372D-01 0.86574506D-01 0.10054825D+06 0.10054825D+06 0.10054825D+06 0.11215272D+01  1  2 12  4  7  2        2 0.201532007156D-03 0.100000000000D+01
-.260865155149D-05 0.000000000000D+00 -.396098445419D-06 0.174577605626D-09 0.000000000000D+00  7 -2 21 24 -11 11 -24 -2 2 0.33474372D-01 0.87004594D-01 0.88359517D+05 0.88359517D+05 0.88359517D+05 0.11261594D+01  1  2  5  4  7  2        2 -.297995906426D-03 0.100000000000D+01
  </mgrwgt>
  </event>
  <event>
  7     66 -.27011060E-05 0.21480060E+03 0.75467711E-02 0.10531037E+00
       -2 -1    0    0    0  501 0.00000000E+00 0.00000000E+00 0.69660812E+03 0.69660819E+03 0.32000000E+00 0.0000E+00 0.9000E+01
        2 -1    0    0  501    0 0.00000000E+00 0.00000000E+00 -.68998573E+03 0.68998581E+03 0.32000000E+00 0.0000E+00 0.9000E+01
       25  2    1    2    0    0 -.51769341E+02 -.33861052E+02 -.63783790E+03 0.70768629E+03 0.30025999E+03 0.0000E+00 0.0000E+00
       24  1    3    3    0    0 -.88567324E+02 0.71551969E+01 -.58430446E+03 0.59646818E+03 0.80419002E+02 0.0000E+00 0.9000E+01
      -11  1    1    2    0    0 -.30658452E+02 0.10125746E+03 0.28468962E+03 0.30371235E+03 0.51099893E-03 0.0000E+00 0.9000E+01
       11  1    1    2    0    0 0.82427794E+02 -.67396405E+02 0.35977067E+03 0.37519535E+03 0.51099893E-03 0.0000E+00 0.9000E+01
      -24  1    3    3    0    0 0.36797983E+02 -.41016249E+02 -.53533445E+02 0.11121812E+03 0.80419002E+02 0.0000E+00 0.9000E+01
#aMCatNLO 1  0  0  1  2 0.56521199D+03 0.00000000D+00  -5  7  0 0.00000000D+00 0.00000000D+00 0.00000000D+00 0.00000000D+00 0.00000000D+00
  <mgrwgt>
 -.2394029528D-03    1    2    0
 0.693289092678288D+03 0.000000000000000D+00 0.000000000000000D+00 0.693289092678288D+03
 0.693289092678288D+03 0.000000000000000D+00 0.000000000000000D+00 -.693289092678288D+03
 0.599265655680639D+03 -.885673242735916D+02 0.715519691076928D+01 -.587159895047473D+03
 0.302356122090102D+03 -.306584510756896D+02 0.101257455339353D+03 0.283242319721476D+03
 0.373481341479706D+03 0.824277924940092D+02 -.673964034891419D+02 0.357982815585853D+03
 0.111475066106130D+03 0.367979828552721D+02 -.410162487609804D+02 -.540652402598558D+02
 0.000000000000000D+00 0.000000000000000D+00 0.000000000000000D+00 -.000000000000000D+00
 0.120564888473478D+04 0.000000000000000D+00 0.000000000000000D+00 0.120564888473478D+04
 0.163156656257623D+04 0.000000000000000D+00 0.000000000000000D+00 -.163156656257623D+04
 0.773478360276271D+03 -.312055186288969D+03 -.386867388415327D+03 -.587159895047473D+03
 0.322222492595021D+03 -.132342186450928D+03 -.780171054213977D+02 0.283242319721476D+03
 0.478058876753495D+03 -.562061411315441D+02 -.311816393230278D+03 0.357982815585853D+03
 0.151696950013092D+03 -.604740604541234D+01 -.116555254556240D+03 -.540652402598558D+02
 0.111175876767313D+04 0.506650919916853D+03 0.893256141623243D+03 -.425917677841445D+03
-.462151723933D-04 0.000000000000D+00 0.000000000000D+00 0.241990627438D-08 0.000000000000D+00  7 -2 2 24 -11 11 -24 21 2 0.10717049D+00 0.10615166D+00 0.46139297D+05 0.46139297D+05 0.46139297D+05 0.11503778D+01  1  2 14  1  7  1       -2 -.239402952840D-03 0.100000000000D+01
  </mgrwgt>
  </event>
  <event>
  8     66 0.27011060E-05 0.11131420E+03 0.75467711E-02 0.10134115E+00
       -2 -1    0    0    0  501 0.00000000E+00 0.00000000E+00 0.47547433E+03 0.47547443E+03 0.32000000E+00 0.0000E+00 0.9000E+01
        2 -1    0    0  501    0 0.00000000E+00 0.00000000E+00 -.17252759E+03 0.17252788E+03 0.32000000E+00 0.0000E+00 0.9000E+01
       25  2    1    2    0    0 0.18333158E+03 -.38432870E+02 0.11682806E+03 0.36875728E+03 0.29537363E+03 0.0000E+00 0.0000E+00
       23  2    1    2    0    0 -.18333158E+03 0.38432870E+02 0.18611868E+03 0.27924503E+03 0.90829920E+02 0.0000E+00 0.0000E+00
       24  1    3    3    0    0 0.18411921E+03 0.54769546E+02 0.14629553E+02 0.20876021E+03 0.80419002E+02 0.0000E+00 0.9000E+01
      -11  1    4    4    0    0 -.12428251E+03 -.49946320E+01 0.15717802E+03 0.20043956E+03 0.51099893E-03 0.0000E+00 0.9000E+01
       11  1    4    4    0    0 -.59049074E+02 0.43427502E+02 0.28940655E+02 0.78805473E+02 0.51099893E-03 0.0000E+00 0.9000E+01
      -24  1    3    3    0    0 -.78762864E+00 -.93202416E+02 0.10219851E+03 0.15999707E+03 0.80419002E+02 0.0000E+00 0.9000E+01
#aMCatNLO 1  0  0  1  2 0.44606752D+02 0.00000000D+00  -5  7  0 0.00000000D+00 0.00000000D+00 0.00000000D+00 0.00000000D+00 0.00000000D+00
  <mgrwgt>
 0.1203072839D-02    9    2    0
 0.286413282621300D+03 0.000000000000000D+00 0.000000000000000D+00 0.286413282621300D+03
 0.286413282621300D+03 0.000000000000000D+00 0.000000000000000D+00 -.286413282621300D+03
 0.228420141156218D+03 0.184119208277295D+03 0.547695459109774D+02 -.938560542293537D+02
 0.143618917191202D+03 -.124282505734006D+03 -.499463203008082D+01 0.718004581777442D+02
 0.738419873107728D+02 -.590490739077299D+02 0.434275021366821D+02 -.893856917030091D+01
 0.126945519584407D+03 -.787628635558690D+00 -.932024160175786D+02 0.309941652219104D+02
 0.000000000000000D+00 0.000000000000000D+00 -.000000000000000D+00 0.000000000000000D+00
 0.332130365107336D+03 0.000000000000000D+00 0.000000000000000D+00 0.332130365107336D+03
 0.298371572930802D+03 0.000000000000000D+00 0.000000000000000D+00 -.298371572930802D+03
 0.224222001271714D+03 0.173864031956483D+03 0.690697428419557D+02 -.938560542293537D+02
 0.149377718589827D+03 -.130920712563848D+03 0.426192894612117D+01 0.718004581777442D+02
 0.794933871172257D+02 -.625230794268411D+02 0.482717838446205D+02 -.893856917030091D+01
 0.121467626270270D+03 -.641574049779660D+01 -.853543688010486D+02 0.309941652219104D+02
 0.559412047891017D+02 0.259955005320034D+02 -.362490868316488D+02 0.337587921765340D+02
0.184902226397D-04 0.000000000000D+00 0.000000000000D+00 0.144948755964D-07 0.000000000000D+00  7 -2 2 24 -11 11 -24 21 0 0.73149927D-01 0.26542737D-01 0.69968849D+05 0.69968849D+05 0.69968849D+05 0.11346761D+01  1  2  2  1  7  1       -2 0.797538104267D-03 0.100000000000D+01
-.101933422741D-05 0.000000000000D+00 -.710073235237D-07 0.144948755964D-07 0.000000000000D+00  7 -2 2 24 -11 11 -24 21 2 0.73149927D-01 0.26542737D-01 0.69968849D+05 0.69968849D+05 0.69968849D+05 0.11346761D+01  1  2  3  1  7  1       -2 -.566069411998D-04 0.100000000000D+01
0.114753188075D-05 0.000000000000D+00 0.000000000000D+00 0.144948755964D-07 0.000000000000D+00  7 -2 2 24 -11 11 -24 21 2 0.73149927D-01 0.26542737D-01 0.69968849D+05 0.69968849D+05 0.69968849D+05 0.11346761D+01  1  2 15  1  7  1       -2 0.637261733703D-04 0.100000000000D+01
0.343865930328D-04 0.000000000000D+00 0.000000000000D+00 0.144948755964D-07 0.000000000000D+00  7 -2 2 24 -11 11 -24 21 2 0.86181747D-01 0.26542737D-01 0.82847894D+05 0.82847894D+05 0.82847894D+05 0.11284903D+01  1  2 12  1  7  1       -2 0.131156681769D-02 0.100000000000D+01
-.346993651329D-04 0.000000000000D+00 0.000000000000D+00 0.144948755964D-07 0.000000000000D+00  7 -2 2 24 -11 11 -24 21 2 0.73149927D-01 0.26542737D-01 0.69968849D+05 0.69968849D+05 0.69968849D+05 0.11346761D+01  1  2  4  1  7  1       -2 -.192696847503D-02 0.100000000000D+01
-.669683221979D-04 0.000000000000D+00 -.136552909080D-04 0.144948755964D-07 0.000000000000D+00  7 -2 2 24 -11 11 -24 21 2 0.87352680D-01 0.26542737D-01 0.69968849D+05 0.69968849D+05 0.69968849D+05 0.11346761D+01  1  2  5  1  7  1       -2 -.250839768480D-02 0.100000000000D+01
0.685219716990D-04 0.000000000000D+00 0.134431011590D-04 0.144948755964D-07 0.000000000000D+00  7 -2 2 24 -11 11 -24 21 2 0.73149927D-01 0.26542737D-01 0.69968849D+05 0.69968849D+05 0.69968849D+05 0.11346761D+01  1  2  6  1  7  1       -2 0.380524769850D-02 0.100000000000D+01
0.842437397456D-06 0.000000000000D+00 0.000000000000D+00 0.144948755964D-07 0.000000000000D+00  7 21 2 24 -11 11 -24 2 2 0.86181747D-01 0.26542737D-01 0.82847894D+05 0.82847894D+05 0.82847894D+05 0.11284903D+01  1  2 12  3  7  1       -2 0.316750396842D-03 0.100000000000D+01
-.161878882345D-05 0.000000000000D+00 -.356127606320D-06 0.144948755964D-07 0.000000000000D+00  7 21 2 24 -11 11 -24 2 2 0.87352680D-01 0.26542737D-01 0.69968849D+05 0.69968849D+05 0.69968849D+05 0.11346761D+01  1  2  5  3  7  1       -2 -.599783250387D-03 0.100000000000D+01
  </mgrwgt>
  </event>
  <event>
  8     66 0.27011060E-05 0.15303542E+03 0.75467711E-02 0.10612507E+00
       -2 -1    0    0    0  501 0.00000000E+00 0.00000000E+00 0.20204002E+03 0.20204027E+03 0.32000000E+00 0.0000E+00 0.9000E+01
        2 -1    0    0  501    0 0.00000000E+00 0.00000000E+00 -.34458943E+03 0.34458957E+03 0.32000000E+00 0.0000E+00 0.9000E+01
       25  2    1    2    0    0 -.78214884E+02 0.17723863E+01 0.55679395E+02 0.31562671E+03 0.30066479E+03 0.0000E+00 0.0000E+00
       23  2    1    2    0    0 0.78214884E+02 -.17723863E+01 -.19822880E+03 0.23100314E+03 0.89146399E+02 0.0000E+00 0.0000E+00
       24  1    3    3    0    0 -.23983263E+02 -.28967442E+02 -.97417057E+02 0.13180140E+03 0.80419002E+02 0.0000E+00 0.9000E+01
      -13  1    4    4    0    0 0.63848298E+02 -.39563296E+02 -.15229780E+03 0.16981310E+03 0.10565837E+00 0.0000E+00 0.9000E+01
       13  1    4    4    0    0 0.14366586E+02 0.37790910E+02 -.45931007E+02 0.61190034E+02 0.10565837E+00 0.0000E+00 0.9000E+01
      -24  1    3    3    0    0 -.54231620E+02 0.30739828E+02 0.15309645E+03 0.18382531E+03 0.80419002E+02 0.0000E+00 0.9000E+01
#aMCatNLO 1  0  0  2  2 0.92137060D+02 0.00000000D+00  -5  7  0 0.00000000D+00 0.00000000D+00 0.00000000D+00 0.00000000D+00 0.00000000D+00
  <mgrwgt>
 0.7679141222D-03    3    2    0
 0.263857847186100D+03 0.000000000000000D+00 0.000000000000000D+00 0.263857847186100D+03
 0.263857847186100D+03 0.000000000000000D+00 0.000000000000000D+00 -.263857847186100D+03
 0.110210541808296D+03 -.239832642383599D+02 -.289674409500321D+02 -.653057269509117D+02
 0.134760085925771D+03 0.638483686121864D+02 -.395634038204475D+02 -.111885672283915D+03
 0.509759309603757D+02 0.143665170833820D+02 0.377910174966671D+02 -.310481516476663D+02
 0.231769135677758D+03 -.542316214572085D+02 0.307398272738125D+02 0.208239550882493D+03
 0.000000000000000D+00 -.000000000000000D+00 0.000000000000000D+00 0.000000000000000D+00
 0.589736395866477D+03 0.000000000000000D+00 0.000000000000000D+00 0.589736395866477D+03
 0.274442683525923D+03 0.000000000000000D+00 0.000000000000000D+00 -.274442683525923D+03
 0.113118384869982D+03 -.116789078322304D+02 -.439012321066514D+02 -.653057269509117D+02
 0.149218513231108D+03 0.794942320823192D+02 -.585527804132408D+02 -.111885672283915D+03
 0.482497681636949D+02 0.198333788322353D+02 0.311558901527603D+02 -.310481516476663D+02
 0.225112028822651D+03 -.290596530656758D+02 0.188621948444585D+00 0.208239550882493D+03
 0.328480384304963D+03 -.585890500166482D+02 0.711095004186873D+02 0.315293712340554D+03
0.705467753786D-05 0.000000000000D+00 0.000000000000D+00 0.981009464533D-07 0.000000000000D+00  7 -2 2 24 -13 13 -24 21 0 0.31083111D-01 0.53013789D-01 0.23419839D+05 0.23419839D+05 0.23419839D+05 0.11774469D+01  1  2  2  2  7  2        2 0.740329190985D-03 0.100000000000D+01
-.250520969331D-06 0.000000000000D+00 -.270918192846D-07 0.981009464533D-07 0.000000000000D+00  7 -2 2 24 -13 13 -24 21 2 0.31083111D-01 0.53013789D-01 0.23419839D+05 0.23419839D+05 0.23419839D+05 0.11774469D+01  1  2  3  2  7  2        2 -.364480602354D-04 0.100000000000D+01
0.440122382232D-06 0.000000000000D+00 0.000000000000D+00 0.981009464533D-07 0.000000000000D+00  7 -2 2 24 -13 13 -24 21 2 0.31083111D-01 0.53013789D-01 0.23419839D+05 0.23419839D+05 0.23419839D+05 0.11774469D+01  1  2 15  2  7  2        2 0.640329914952D-04 0.100000000000D+01
  </mgrwgt>
  </event>
  <event>
  8     66 0.27011060E-05 0.41700691E+03 0.75467711E-02 0.93384985E-01
       -2 -1    0    0    0  501 0.00000000E+00 0.00000000E+00 0.11061039E+03 0.11061085E+03 0.32000000E+00 0.0000E+00 0.9000E+01
        2 -1    0    0  501    0 0.00000000E+00 0.00000000E+00 -.18969732E+04 0.18969732E+04 0.32000000E+00 0.0000E+00 0.9000E+01
       25  2    1    2    0    0 0.65196091E+02 0.39040824E+03 -.82803696E+03 0.96709193E+03 0.30488108E+03 0.0000E+00 0.0000E+00
       23  2    1    2    0    0 -.65196091E+02 -.39040824E+03 -.95832583E+03 0.10404921E+04 0.86984841E+02 0.0000E+00 0.0000E+00
       24  1    3    3    0    0 -.51847042E+01 0.20478204E+03 -.17915228E+03 0.28376983E+03 0.80419002E+02 0.0000E+00 0.9000E+01
      -13  1    4    4    0    0 -.60953260E+02 -.19507828E+03 -.57509724E+03 0.61033407E+03 0.10565837E+00 0.0000E+00 0.9000E+01
       13  1    4    4    0    0 -.42428305E+01 -.19532995E+03 -.38322859E+03 0.43015806E+03 0.10565837E+00 0.0000E+00 0.9000E+01
      -24  1    3    3    0    0 0.70380795E+02 0.18562620E+03 -.64888469E+03 0.68332210E+03 0.80419002E+02 0.0000E+00 0.9000E+01
#aMCatNLO 1  0  0  1  1 0.26332942D+03 0.00000000D+00  -5  7  0 0.00000000D+00 0.00000000D+00 0.00000000D+00 0.00000000D+00 0.00000000D+00
  <mgrwgt>
 0.1162988657D-02    3    2    0
 0.458067068881193D+03 0.000000000000000D+00 0.000000000000000D+00 0.458067068881193D+03
 0.458067068881193D+03 0.000000000000000D+00 0.000000000000000D+00 -.458067068881193D+03
 0.272515586020689D+03 -.518470128476171D+01 0.204782040259724D+03 0.160732583907188D+03
 0.216087006179130D+03 -.609533440979928D+02 -.195078285733650D+03 -.701622870062787D+02
 0.195378751310034D+03 -.424274729576547D+01 -.195329954617024D+03 -.103169189375648D+01
 0.232152794252534D+03 0.703807926785200D+02 0.185626200090949D+03 -.895386050071529D+02
 0.000000000000000D+00 0.000000000000000D+00 0.000000000000000D+00 -.000000000000000D+00
 0.526955727246842D+03 0.000000000000000D+00 0.000000000000000D+00 0.526955727246842D+03
 0.820973469097750D+03 0.000000000000000D+00 0.000000000000000D+00 -.820973469097750D+03
 0.224880412644448D+03 -.934482209804518D+01 0.134839515006697D+03 0.160732583907188D+03
 0.281850072953156D+03 -.651179904002611D+02 -.265096896307707D+03 -.701622870062787D+02
 0.259407717614874D+03 -.804649051053133D+01 -.259280839169535D+03 -.103169189375648D+01
 0.187090071379977D+03 0.668743290643795D+02 0.126673364130573D+03 -.895386050071529D+02
 0.394700921752136D+03 0.156349739444582D+02 0.262864856339973D+03 -.294017741850908D+03
0.442558885318D-04 0.000000000000D+00 0.000000000000D+00 0.276854587556D-08 0.000000000000D+00  7 -2 2 24 -13 13 -24 21 0 0.17017021D-01 0.29184207D+00 0.17389476D+06 0.17389476D+06 0.17389476D+06 0.11025213D+01  1  2  2  1  7  1       -2 0.115644082280D-02 0.100000000000D+01
-.243229534722D-05 0.000000000000D+00 -.169954264805D-06 0.276854587556D-08 0.000000000000D+00  7 -2 2 24 -13 13 -24 21 2 0.17017021D-01 0.29184207D+00 0.17389476D+06 0.17389476D+06 0.17389476D+06 0.11025213D+01  1  2  3  1  7  1       -2 -.772578584966D-04 0.100000000000D+01
0.263843965502D-05 0.000000000000D+00 0.000000000000D+00 0.276854587556D-08 0.000000000000D+00  7 -2 2 24 -13 13 -24 21 2 0.17017021D-01 0.29184207D+00 0.17389476D+06 0.17389476D+06 0.17389476D+06 0.11025213D+01  1  2 15  1  7  1       -2 0.838056931502D-04 0.100000000000D+01
  </mgrwgt>
  </event>
  <event>
  8     66 0.27011060E-05 0.53200273E+03 0.75467711E-02 0.89430049E-01
       -2 -1    0    0    0  501 0.00000000E+00 0.00000000E+00 0.26608242E+03 0.26608262E+03 0.32000000E+00 0.0000E+00 0.9000E+01
        2 -1    0    0  501    0 0.00000000E+00 0.00000000E+00 -.13259894E+04 0.13259894E+04 0.32000000E+00 0.0000E+00 0.9000E+01
       25  2    1    2    0    0 -.88034846E+02 0.48429861E+03 -.89618123E+03 0.10655340E+04 0.29987770E+03 0.0000E+00 0.0000E+00
       23  2    1    2    0    0 0.88034846E+02 -.48429861E+03 -.16372571E+03 0.52653801E+03 0.90226873E+02 0.0000E+00 0.0000E+00
       24  1    3    3    0    0 -.16508063E+03 0.36431131E+03 -.57489128E+03 0.70494081E+03 0.80419002E+02 0.0000E+00 0.9000E+01
      -11  1    4    4    0    0 0.25574678E+02 -.11801684E+03 -.82348846E+02 0.14616214E+03 0.51099893E-03 0.0000E+00 0.9000E+01
       11  1    4    4    0    0 0.62460169E+02 -.36628177E+03 -.81376861E+02 0.38037587E+03 0.51099893E-03 0.0000E+00 0.9000E+01
      -24  1    3    3    0    0 0.77045781E+02 0.11998731E+03 -.32128995E+03 0.36059320E+03 0.80419002E+02 0.0000E+00 0.9000E+01
#aMCatNLO 1  0  0  2  2 0.46513548D+03 0.00000000D+00  -5  7  0 0.00000000D+00 0.00000000D+00 0.00000000D+00 0.00000000D+00 0.00000000D+00
  <mgrwgt>
 0.9428823192D-03    3    2    0
 0.593988761361085D+03 0.000000000000000D+00 0.000000000000000D+00 0.593988761361085D+03
 0.593988761361085D+03 0.000000000000000D+00 0.000000000000000D+00 -.593988761361085D+03
 0.431813958252732D+03 -.165080627141615D+03 0.364311306446128D+03 -.141498187711249D+03
 0.122408497921619D+03 0.255746775588643D+02 -.118016843507103D+03 0.200449714344265D+02
 0.437158001020287D+03 0.624601685816450D+02 -.366281771314229D+03 0.230311765222093D+03
 0.196597065527533D+03 0.770457810011053D+02 0.119987308375204D+03 -.108858548945270D+03
 0.000000000000000D+00 -.000000000000000D+00 0.000000000000000D+00 0.000000000000000D+00
 0.935948334842099D+03 0.000000000000000D+00 0.000000000000000D+00 0.935948334842099D+03
 0.819365514742419D+03 0.000000000000000D+00 0.000000000000000D+00 -.819365514742419D+03
 0.307929246427793D+03 -.949072021529506D+02 0.243565372549444D+03 -.141498187711249D+03
 0.176439108468190D+03 0.539239208602529D+02 -.166796789166638D+03 0.200449714344265D+02
 0.605753407870613D+03 0.161392696867909D+03 -.536512888330605D+03 0.230311765222093D+03
 0.185668817976006D+03 0.113308238205218D+03 0.575912622764634D+02 -.108858548945270D+03
 0.479523268841916D+03 -.233717653780430D+03 0.402153042671336D+03 0.116582820099680D+03
0.819459426338D-04 0.000000000000D+00 0.000000000000D+00 0.554576937608D-05 0.000000000000D+00  7 -2 2 24 -11 11 -24 21 0 0.40935775D-01 0.20399838D+00 0.28302691D+06 0.28302691D+06 0.28302691D+06 0.10864282D+01  1  2  2  2  7  2        2 0.934995597688D-03 0.100000000000D+01
-.448531782788D-05 0.000000000000D+00 -.314693996576D-06 0.554576937608D-05 0.000000000000D+00  7 -2 2 24 -11 11 -24 21 2 0.40935775D-01 0.20399838D+00 0.28302691D+06 0.28302691D+06 0.28302691D+06 0.10864282D+01  1  2  3  2  7  2        2 -.604056227534D-04 0.100000000000D+01
0.507093305973D-05 0.000000000000D+00 0.000000000000D+00 0.554576937608D-05 0.000000000000D+00  7 -2 2 24 -11 11 -24 21 2 0.40935775D-01 0.20399838D+00 0.28302691D+06 0.28302691D+06 0.28302691D+06 0.10864282D+01  1  2 15  2  7  2        2 0.682923443039D-04 0.100000000000D+01
  </mgrwgt>
  </event>
  <event>
  8     66 0.27011060E-05 0.83435692E+02 0.75467711E-02 0.10295756E+00
       -2 -1    0    0    0  501 0.00000000E+00 0.00000000E+00 0.46548606E+03 0.46548617E+03 0.32000000E+00 0.0000E+00 0.9000E+01
        2 -1    0    0  501    0 0.00000000E+00 0.00000000E+00 -.19910442E+03 0.19910468E+03 0.32000000E+00 0.0000E+00 0.9000E+01
       25  2    1    2    0    0 0.10617241E+03 0.10511544E+03 0.33705172E+03 0.47589596E+03 0.30091737E+03 0.0000E+00 0.0000E+00
       23  2    1    2    0    0 -.10617241E+03 -.10511544E+03 -.70670083E+02 0.18869489E+03 0.91047601E+02 0.0000E+00 0.0000E+00
       24  1    3    3    0    0 0.16544587E+03 0.11744274E+03 0.15439512E+03 0.26733911E+03 0.80419002E+02 0.0000E+00 0.9000E+01
      -11  1    4    4    0    0 0.12315501E+02 -.28994920E+02 -.26303153E+02 0.41039406E+02 0.51099893E-03 0.0000E+00 0.9000E+01
       11  1    4    4    0    0 -.11848791E+03 -.76120519E+02 -.44366930E+02 0.14765548E+03 0.51099893E-03 0.0000E+00 0.9000E+01
      -24  1    3    3    0    0 -.59273464E+02 -.12327305E+02 0.18265661E+03 0.20855685E+03 0.80419002E+02 0.0000E+00 0.9000E+01
#aMCatNLO 1  0  0  2  1 0.17903799D+02 0.00000000D+00  -5  7  0 0.00000000D+00 0.00000000D+00 0.00000000D+00 0.00000000D+00 0.00000000D+00
  <mgrwgt>
 0.4582444008D-03    9    2    0
 0.304434647746631D+03 0.000000000000000D+00 0.000000000000000D+00 0.304434647746631D+03
 0.304434647746631D+03 0.000000000000000D+00 0.000000000000000D+00 -.304434647746631D+03
 0.224256840233635D+03 0.165445869415227D+03 0.117442744034622D+03 0.515633649431578D+02
 0.563028734208378D+02 0.123155012703423D+02 -.289949202993422D+02 -.466651538167172D+02
 0.180579017119965D+03 -.118487906985490D+03 -.761205189367363D+02 -.113026828315284D+03
 0.147730564718825D+03 -.592734637000801D+02 -.123273047985435D+02 0.108128617188843D+03
 0.000000000000000D+00 -.000000000000000D+00 0.000000000000000D+00 -.000000000000000D+00
 0.308892550975367D+03 0.000000000000000D+00 0.000000000000000D+00 0.308892550975367D+03
 0.323089268959290D+03 0.000000000000000D+00 0.000000000000000D+00 -.323089268959290D+03
 0.224995437684269D+03 0.169825374030791D+03 0.112500190023865D+03 0.515633649431578D+02
 0.572055015920159D+02 0.134220297771712D+02 -.302437092354259D+02 -.466651538167172D+02
 0.180021705263834D+03 -.114972615899210D+03 -.800877521246460D+02 -.113026828315284D+03
 0.146909824650588D+03 -.564011823370222D+02 -.155688599553878D+02 0.108128617188843D+03
 0.228493507439500D+02 -.118736055717302D+02 0.134001312915947D+02 -.141967179839233D+02
0.835090661535D-05 0.000000000000D+00 0.000000000000D+00 0.431591483245D-06 0.000000000000D+00  7 -2 2 24 -11 11 -24 21 0 0.71613268D-01 0.30631478D-01 0.60329932D+05 0.60329932D+05 0.60329932D+05 0.11401895D+01  1  2  2  2  7  2        2 0.320870874037D-03 0.100000000000D+01
-.437945827432D-06 0.000000000000D+00 -.320696802472D-07 0.431591483245D-06 0.000000000000D+00  7 -2 2 24 -11 11 -24 21 2 0.71613268D-01 0.30631478D-01 0.60329932D+05 0.60329932D+05 0.60329932D+05 0.11401895D+01  1  2  3  2  7  2        2 -.218761632917D-04 0.100000000000D+01
0.526958848191D-06 0.000000000000D+00 0.000000000000D+00 0.431591483245D-06 0.000000000000D+00  7 -2 2 24 -11 11 -24 21 2 0.71613268D-01 0.30631478D-01 0.60329932D+05 0.60329932D+05 0.60329932D+05 0.11401895D+01  1  2 15  2  7  2        2 0.263225200217D-04 0.100000000000D+01
0.404874102993D-04 0.000000000000D+00 0.000000000000D+00 0.431591483245D-06 0.000000000000D+00  7 -2 2 24 -11 11 -24 21 2 0.71613268D-01 0.32723785D-01 0.64914937D+05 0.64914937D+05 0.64914937D+05 0.11374545D+01  1  2 12  2  7  2        2 0.186818421701D-02 0.100000000000D+01
-.407685336275D-04 0.000000000000D+00 0.000000000000D+00 0.431591483245D-06 0.000000000000D+00  7 -2 2 24 -11 11 -24 21 2 0.71613268D-01 0.30631478D-01 0.60329932D+05 0.60329932D+05 0.60329932D+05 0.11401895D+01  1  2  4  2  7  2        2 -.203645986086D-02 0.100000000000D+01
-.112242332683D-03 0.000000000000D+00 -.167901954036D-04 0.431591483245D-06 0.000000000000D+00  7 -2 2 24 -11 11 -24 21 2 0.71613268D-01 0.32916351D-01 0.60329932D+05 0.60329932D+05 0.60329932D+05 0.11401895D+01  1  2  5  2  7  2        2 -.517311177226D-02 0.100000000000D+01
0.113200533509D-03 0.000000000000D+00 0.167468395898D-04 0.431591483245D-06 0.000000000000D+00  7 -2 2 24 -11 11 -24 21 2 0.71613268D-01 0.30631478D-01 0.60329932D+05 0.60329932D+05 0.60329932D+05 0.11401895D+01  1  2  6  2  7  2        2 0.565456547507D-02 0.100000000000D+01
0.529004712179D-06 0.000000000000D+00 0.000000000000D+00 0.431591483245D-06 0.000000000000D+00  7 -2 21 24 -11 11 -24 -2 2 0.71613268D-01 0.32723785D-01 0.64914937D+05 0.64914937D+05 0.64914937D+05 0.11374545D+01  1  2 12  4  7  2        2 0.119249822265D-03 0.100000000000D+01
-.133375530247D-05 0.000000000000D+00 -.203962580020D-06 0.431591483245D-06 0.000000000000D+00  7 -2 21 24 -11 11 -24 -2 2 0.71613268D-01 0.32916351D-01 0.60329932D+05 0.60329932D+05 0.60329932D+05 0.11401895D+01  1  2  5  4  7  2        2 -.299500711192D-03 0.100000000000D+01
  </mgrwgt>
  </event>
  <event>
  9     66 0.27011060E-05 0.31679191E+03 0.75467711E-02 0.99702220E-01
       -2 -1    0    0    0  502 0.00000000E+00 0.00000000E+00 0.48751445E+03 0.48751456E+03 0.32000000E+00 0.0000E+00 0.9000E+01
        2 -1    0    0  501    0 0.00000000E+00 0.00000000E+00 -.27957518E+03 0.27957536E+03 0.32000000E+00 0.0000E+00 0.9000E+01
       25  2    1    2    0    0 0.27723209E+03 0.44764400E+02 0.12769460E+03 0.42981636E+03 0.29929035E+03 0.0000E+00 0.0000E+00
       23  2    1    2    0    0 -.28616825E+03 -.63719170E+02 0.81949288E+02 0.31623534E+03 0.85654557E+02 0.0000E+00 0.0000E+00
       24  1    3    3    0    0 0.22132274E+03 0.32453622E+02 0.19738995E+03 0.30897734E+03 0.80419002E+02 0.0000E+00 0.9000E+01
      -13  1    4    4    0    0 -.25778425E+03 -.42380680E+02 0.45188556E+02 0.26512423E+03 0.10565837E+00 0.0000E+00 0.9000E+01
       13  1    4    4    0    0 -.28384002E+02 -.21338490E+02 0.36760733E+02 0.51111108E+02 0.10565837E+00 0.0000E+00 0.9000E+01
      -24  1    3    3    0    0 0.55909355E+02 0.12310778E+02 -.69695349E+02 0.12083902E+03 0.80419002E+02 0.0000E+00 0.9000E+01
       21  1    1    2  501  502 0.89361627E+01 0.18954770E+02 -.17046167E+01 0.21038216E+02 0.75000000E+00 0.0000E+00 0.9000E+01
#aMCatNLO 2  0  0  1  1 0.20955627D+02 0.00000000D+00  -5  7  0 0.00000000D+00 0.00000000D+00 0.00000000D+00 0.00000000D+00 0.00000000D+00
  <mgrwgt>
 0.7481552443D-03    2    2    0
 0.357841951376510D+03 0.000000000000000D+00 0.000000000000000D+00 0.357841951376510D+03
 0.357841951376510D+03 0.000000000000000D+00 0.000000000000000D+00 -.357841951376510D+03
 0.267889782051391D+03 0.224643620542012D+03 0.394976525177369D+02 0.115208066421304D+03
 0.258796096384176D+03 -.254527523387258D+03 -.354720263642729D+02 -.305433247641603D+02
 0.415917127214034D+02 -.278588170782699D+02 -.202252102151417D+02 0.233387606751637D+02
 0.147406311596051D+03 0.577427199235151D+02 0.161995840616777D+02 -.108003502332307D+03
 0.000000000000000D+00 0.000000000000000D+00 0.000000000000000D+00 -.000000000000000D+00
 0.365231285695126D+03 0.000000000000000D+00 0.000000000000000D+00 0.365231285695126D+03
 0.373167379207245D+03 0.000000000000000D+00 0.000000000000000D+00 -.373167379207245D+03
 0.264153564332689D+03 0.221322735944847D+03 0.324536219957881D+02 0.115208066421304D+03
 0.263024561089235D+03 -.257784600457507D+03 -.423807127771514D+02 -.305433247641603D+02
 0.424930499894858D+02 -.283836536263457D+02 -.213384571695332D+02 0.233387606751637D+02
 0.146319457879462D+03 0.559093554236654D+02 0.123107781977758D+02 -.108003502332307D+03
 0.224080316114992D+02 0.893616271534023D+01 0.189547697531206D+02 -.793609351211867D+01
-.112216174596D-04 0.000000000000D+00 0.000000000000D+00 0.370585221185D-07 0.000000000000D+00  7 -2 2 24 -13 13 -24 21 2 0.73483552D-01 0.41244463D-01 0.10035712D+06 0.10035712D+06 0.10035712D+06 0.11215950D+01  1  2  8  1  7  1       -2 -.366780631971D-03 0.100000000000D+01
0.375303095832D-04 0.000000000000D+00 0.000000000000D+00 0.370585221185D-07 0.564656951817D-09  7 -2 2 24 -13 13 -24 21 2 0.75000966D-01 0.43010855D-01 0.10697210D+06 0.10697210D+06 0.10697210D+06 0.11193279D+01  1  2  1  1  7  1       -2 0.111493587630D-02 0.100000000000D+01
  </mgrwgt>
  </event>
  <event>
  8     66 0.27011060E-05 0.33808223E+03 0.75467711E-02 0.93244668E-01
       -2 -1    0    0    0  501 0.00000000E+00 0.00000000E+00 0.13929987E+03 0.13930023E+03 0.32000000E+00 0.0000E+00 0.9000E+01
        2 -1    0    0  501    0 0.00000000E+00 0.00000000E+00 -.10081099E+04 0.10081100E+04 0.32000000E+00 0.0000E+00 0.9000E+01
       25  2    1    2    0    0 0.13936486E+03 -.24228017E+03 -.68831256E+03 0.80177147E+03 0.30156435E+03 0.0000E+00 0.0000E+00
       23  2    1    2    0    0 -.13936486E+03 0.24228017E+03 -.18049750E+03 0.34563875E+03 0.93619165E+02 0.0000E+00 0.0000E+00
       24  1    3    3    0    0 0.93234139E+02 0.13733830E+02 -.32454300E+03 0.34738537E+03 0.80419002E+02 0.0000E+00 0.9000E+01
      -11  1    4    4    0    0 -.13824618E+03 0.24219058E+03 -.15293327E+03 0.31805168E+03 0.51099893E-03 0.0000E+00 0.9000E+01
       11  1    4    4    0    0 -.11186815E+01 0.89587910E-01 -.27564228E+02 0.27587065E+02 0.51099893E-03 0.0000E+00 0.9000E+01
      -24  1    3    3    0    0 0.46130725E+02 -.25601400E+03 -.36376956E+03 0.45438610E+03 0.80419002E+02 0.0000E+00 0.9000E+01
#aMCatNLO 1  0  0  1  1 0.35862669D+03 0.00000000D+00  -5  7  0 0.00000000D+00 0.00000000D+00 0.00000000D+00 0.00000000D+00 0.00000000D+00
  <mgrwgt>
 0.1488965801D-02    3    2    0
 0.374739667827262D+03 0.000000000000000D+00 0.000000000000000D+00 0.374739667827262D+03
 0.374739667827262D+03 0.000000000000000D+00 0.000000000000000D+00 -.374739667827262D+03
 0.155611095750825D+03 0.932341385278808D+02 0.137338301504740D+02 -.941614278182082D+02
 0.309635997351942D+03 -.138246182254039D+03 0.242190584658190D+03 0.134559149266185D+03
 0.102812724917091D+02 -.111868150390143D+01 0.895879056029258D-01 -.102198380490481D+02
 0.273950970060048D+03 0.461307252300591D+02 -.256014002714267D+03 -.301778833989283D+02
 0.000000000000000D+00 0.000000000000000D+00 -.000000000000000D+00 -.000000000000000D+00
 0.488058943110346D+03 0.000000000000000D+00 0.000000000000000D+00 0.488058943110346D+03
 0.858144719280906D+03 0.000000000000000D+00 0.000000000000000D+00 -.858144719280906D+03
 0.163586512840630D+03 0.687083778878896D+02 0.818908758546291D+02 -.941614278182082D+02
 0.474699578073482D+03 -.198511128063625D+03 0.409666763121942D+03 0.134559149266185D+03
 0.116192552232462D+02 -.280142312278981D+01 0.476592390636481D+01 -.102198380490481D+02
 0.180957084258723D+03 0.111775621952250D+02 -.158879224085406D+03 -.301778833989283D+02
 0.515341231995171D+03 0.121426611103300D+03 -.337444338797531D+03 -.370085776170560D+03
0.263175403819D-04 0.000000000000D+00 0.000000000000D+00 0.912657060354D-07 0.000000000000D+00  7 -2 2 24 -11 11 -24 21 0 0.21430781D-01 0.15509387D+00 0.11429960D+06 0.11429960D+06 0.11429960D+06 0.11169897D+01  1  2  2  1  7  1       -2 0.147705750947D-02 0.100000000000D+01
-.144324722389D-05 0.000000000000D+00 -.101066284634D-06 0.912657060354D-07 0.000000000000D+00  7 -2 2 24 -11 11 -24 21 2 0.21430781D-01 0.15509387D+00 0.11429960D+06 0.11429960D+06 0.11429960D+06 0.11169897D+01  1  2  3  1  7  1       -2 -.101062764983D-03 0.100000000000D+01
0.161330599035D-05 0.000000000000D+00 0.000000000000D+00 0.912657060354D-07 0.000000000000D+00  7 -2 2 24 -11 11 -24 21 2 0.21430781D-01 0.15509387D+00 0.11429960D+06 0.11429960D+06 0.11429960D+06 0.11169897D+01  1  2 15  1  7  1       -2 0.112971056829D-03 0.100000000000D+01
  </mgrwgt>
  </event>
  <event>
  8     66 0.27011060E-05 0.93967464E+03 0.75467711E-02 0.82220751E-01
       -2 -1    0    0    0  501 0.00000000E+00 0.00000000E+00 0.64717220E+03 0.64717227E+03 0.32000000E+00 0.0000E+00 0.9000E+01
        2 -1    0    0  501    0 0.00000000E+00 0.00000000E+00 -.14252741E+04 0.14252742E+04 0.32000000E+00 0.0000E+00 0.9000E+01
       25  2    1    2    0    0 0.52317287E+03 -.76962730E+03 -.49063070E+03 0.10939970E+04 0.30012489E+03 0.0000E+00 0.0000E+00
       23  2    1    2    0    0 -.52317287E+03 0.76962730E+03 -.28747124E+03 0.97844942E+03 0.93206826E+02 0.0000E+00 0.0000E+00
       24  1    3    3    0    0 0.25731771E+03 -.30756432E+03 -.34625794E+03 0.53588244E+03 0.80419002E+02 0.0000E+00 0.9000E+01
      -11  1    4    4    0    0 -.45079491E+02 0.50556193E+02 -.45798217E+02 0.81765309E+02 0.51099893E-03 0.0000E+00 0.9000E+01
       11  1    4    4    0    0 -.47809338E+03 0.71907111E+03 -.24167302E+03 0.89668411E+03 0.51099893E-03 0.0000E+00 0.9000E+01
      -24  1    3    3    0    0 0.26585516E+03 -.46206299E+03 -.14437276E+03 0.55811458E+03 0.80419002E+02 0.0000E+00 0.9000E+01
#aMCatNLO 1  0  0  1  2 0.12644178D+04 0.00000000D+00  -5  7  0 0.00000000D+00 0.00000000D+00 0.00000000D+00 0.00000000D+00 0.00000000D+00
  <mgrwgt>
 0.1390037740D-02    5    2    0
 0.960415486199058D+03 0.000000000000000D+00 0.000000000000000D+00 0.960415486199058D+03
 0.960415486199058D+03 0.000000000000000D+00 0.000000000000000D+00 -.960415486199058D+03
 0.437916554823443D+03 0.257317710330224D+03 -.307564316503844D+03 -.156510319781147D+03
 0.696670061370325D+02 -.450794914853083D+02 0.505561925226338D+02 -.162911813303307D+02
 0.869563003943735D+03 -.478093383296604D+03 0.719071112376208D+03 0.102485462489571D+03
 0.543684407493905D+03 0.265855164451689D+03 -.462062988394998D+03 0.703160386219067D+02
 0.000000000000000D+00 0.000000000000000D+00 0.000000000000000D+00 0.000000000000000D+00
 0.191367145577255D+04 0.000000000000000D+00 0.000000000000000D+00 0.191367145577255D+04
 0.167307363345912D+04 0.000000000000000D+00 0.000000000000000D+00 -.167307363345912D+04
 0.675551031425772D+03 0.170311341344940D+03 -.629603483882788D+03 -.156510319781147D+03
 0.590182849582281D+02 -.551349614947486D+02 0.133375931578927D+02 -.162911813303307D+02
 0.666177929320454D+03 -.598096196091086D+03 0.274901261752943D+03 0.102485462489571D+03
 0.898892711575475D+03 0.153132173085342D+03 -.879287827305612D+03 0.703160386219067D+02
 0.128710513195174D+04 0.329787643155553D+03 0.122065245627756D+04 0.240597822313436D+03
0.954936112635D-03 0.000000000000D+00 0.000000000000D+00 0.657195409979D-05 0.000000000000D+00  7 -2 2 24 -11 11 -24 21 0 0.99564962D-01 0.21927295D+00 0.88298842D+06 0.88298842D+06 0.88298842D+06 0.10514806D+01  1  2  2  1  7  1       -2 0.136519159556D-02 0.100000000000D+01
-.530212606901D-04 0.000000000000D+00 -.366720611297D-05 0.657195409979D-05 0.000000000000D+00  7 -2 2 24 -11 11 -24 21 2 0.99564962D-01 0.21927295D+00 0.88298842D+06 0.88298842D+06 0.88298842D+06 0.10514806D+01  1  2  3  1  7  1       -2 -.838053750118D-04 0.100000000000D+01
0.608159599101D-04 0.000000000000D+00 0.000000000000D+00 0.657195409979D-05 0.000000000000D+00  7 -2 2 24 -11 11 -24 21 2 0.99564962D-01 0.21927295D+00 0.88298842D+06 0.88298842D+06 0.88298842D+06 0.10514806D+01  1  2 15  1  7  1       -2 0.961256722423D-04 0.100000000000D+01
0.783625923767D-04 0.000000000000D+00 -.274147193658D-03 0.657195409979D-05 0.000000000000D+00  7 -2 2 24 -11 11 -24 21 2 0.29863287D+00 0.21927295D+00 0.88298842D+06 0.88298842D+06 0.88298842D+06 0.10514806D+01  1  2  5  1  7  1       -2 0.406684530451D-05 0.100000000000D+01
0.235058523025D-04 0.000000000000D+00 -.342605727865D-04 0.657195409979D-05 0.000000000000D+00  7 21 2 24 -11 11 -24 2 2 0.29863287D+00 0.21927295D+00 0.88298842D+06 0.88298842D+06 0.88298842D+06 0.10514806D+01  1  2  5  3  7  1       -2 0.845900203847D-05 0.100000000000D+01
  </mgrwgt>
  </event>
  <event>
  8     66 0.27011060E-05 0.34052963E+03 0.75467711E-02 0.90462268E-01
       -2 -1    0    0    0  501 0.00000000E+00 0.00000000E+00 0.19584998E+03 0.19585024E+03 0.32000000E+00 0.0000E+00 0.9000E+01
        2 -1    0    0  501    0 0.00000000E+00 0.00000000E+00 -.13103060E+04 0.13103060E+04 0.32000000E+00 0.0000E+00 0.9000E+01
       25  2    1    2    0    0 0.23769094E+03 -.15436405E+03 -.80607833E+02 0.43000812E+03 0.31318384E+03 0.0000E+00 0.0000E+00
       23  2    1    2    0    0 -.23769094E+03 0.15436405E+03 -.10338482E+04 0.10761482E+04 0.94485719E+02 0.0000E+00 0.0000E+00
       24  1    3    3    0    0 0.15733617E+03 -.20120218E+03 0.23626337E+02 0.26881668E+03 0.80419002E+02 0.0000E+00 0.9000E+01
      -13  1    4    4    0    0 -.21148947E+02 0.40463456E+02 -.87658684E+02 0.98836356E+02 0.10565837E+00 0.0000E+00 0.9000E+01
       13  1    4    4    0    0 -.21654200E+03 0.11390059E+03 -.94618950E+03 0.97731181E+03 0.10565837E+00 0.0000E+00 0.9000E+01
      -24  1    3    3    0    0 0.80354775E+02 0.46838137E+02 -.10423417E+03 0.16119144E+03 0.80419002E+02 0.0000E+00 0.9000E+01
#aMCatNLO 1  0  0  2  2 0.56288395D+03 0.00000000D+00  -5  7  0 0.00000000D+00 0.00000000D+00 0.00000000D+00 0.00000000D+00 0.00000000D+00
  <mgrwgt>
 0.1290955870D-02    3    2    0
 0.506580329070780D+03 0.000000000000000D+00 0.000000000000000D+00 0.506580329070780D+03
 0.506580329070780D+03 0.000000000000000D+00 0.000000000000000D+00 -.506580329070780D+03
 0.425609149666716D+03 0.157336169496273D+03 -.201202182070382D+03 0.330815574034856D+03
 0.505060984015835D+02 -.211487023701468D+02 0.404633637710138D+02 -.215943176818346D+02
 0.412075007384733D+03 -.216542242162710D+03 0.113900681624979D+03 -.331574884144802D+03
 0.124970402688528D+03 0.803547750365841D+02 0.468381366743894D+02 0.223536277917805D+02
 0.000000000000000D+00 0.000000000000000D+00 0.000000000000000D+00 0.000000000000000D+00
 0.149840603433955D+04 0.000000000000000D+00 0.000000000000000D+00 0.149840603433955D+04
 0.665712112652040D+03 0.000000000000000D+00 0.000000000000000D+00 -.665712112652040D+03
 0.505640398926603D+03 -.114424039012763D+02 -.373677835094928D+03 0.330815574034856D+03
 0.499278038191411D+02 -.393512247371836D+02 0.218621167717654D+02 -.215943176818346D+02
 0.510314177649281D+03 -.383714973685134D+03 -.569339537011051D+02 -.331574884144802D+03
 0.931399939384785D+02 0.408247031654235D+02 0.644216209753207D+01 0.223536277917805D+02
 0.100509577265808D+04 0.393683899158170D+03 0.402307509926736D+03 0.832693921687506D+03
0.604860861120D-04 0.000000000000D+00 0.000000000000D+00 0.238050194024D-08 0.000000000000D+00  7 -2 2 24 -13 13 -24 21 0 0.30130789D-01 0.20158556D+00 0.11596043D+06 0.11596043D+06 0.11596043D+06 0.11164826D+01  1  2  2  2  7  2        2 0.126604264052D-02 0.100000000000D+01
-.271581140727D-05 0.000000000000D+00 -.232282497022D-06 0.238050194024D-08 0.000000000000D+00  7 -2 2 24 -13 13 -24 21 2 0.30130789D-01 0.20158556D+00 0.11596043D+06 0.11596043D+06 0.11596043D+06 0.11164826D+01  1  2  3  2  7  2        2 -.708592184340D-04 0.100000000000D+01
0.367065727820D-05 0.000000000000D+00 0.000000000000D+00 0.238050194024D-08 0.000000000000D+00  7 -2 2 24 -13 13 -24 21 2 0.30130789D-01 0.20158556D+00 0.11596043D+06 0.11596043D+06 0.11596043D+06 0.11164826D+01  1  2 15  2  7  2        2 0.957724476656D-04 0.100000000000D+01
  </mgrwgt>
  </event>
  <event>
  8     66 0.27011060E-05 0.20958928E+03 0.75467711E-02 0.97392272E-01
       -2 -1    0    0    0  501 0.00000000E+00 0.00000000E+00 0.13667002E+03 0.13667039E+03 0.32000000E+00 0.0000E+00 0.9000E+01
        2 -1    0    0  501    0 0.00000000E+00 0.00000000E+00 -.10000307E+04 0.10000307E+04 0.32000000E+00 0.0000E+00 0.9000E+01
       25  2    1    2    0    0 -.16682460E+03 0.21894447E+03 -.68363228E+03 0.79543188E+03 0.29931865E+03 0.0000E+00 0.0000E+00
       23  2    1    2    0    0 0.16682460E+03 -.21894447E+03 -.17972837E+03 0.34126922E+03 0.91625697E+02 0.0000E+00 0.0000E+00
       24  1    3    3    0    0 -.20942246E+03 0.81254229E+02 -.35573761E+03 0.42834155E+03 0.80419002E+02 0.0000E+00 0.9000E+01
      -11  1    4    4    0    0 0.29671995E+02 -.30281458E+02 -.73764674E+02 0.85080087E+02 0.51099893E-03 0.0000E+00 0.9000E+01
       11  1    4    4    0    0 0.13715260E+03 -.18866302E+03 -.10596369E+03 0.25618914E+03 0.51099893E-03 0.0000E+00 0.9000E+01
      -24  1    3    3    0    0 0.42597866E+02 0.13769024E+03 -.32789467E+03 0.36709033E+03 0.80419002E+02 0.0000E+00 0.9000E+01
#aMCatNLO 1  0  0  2  1 0.10596848D+03 0.00000000D+00  -5  7  0 0.00000000D+00 0.00000000D+00 0.00000000D+00 0.00000000D+00 0.00000000D+00
  <mgrwgt>
 0.8380529068D-03    6    2    0
 0.369695075992910D+03 0.000000000000000D+00 0.000000000000000D+00 0.369695075992910D+03
 0.369695075992910D+03 0.000000000000000D+00 0.000000000000000D+00 -.369695075992910D+03
 0.243128012032527D+03 -.209422464525238D+03 0.812542294433913D+02 -.467332411700110D+02
 0.446653394098409D+02 0.296719954555505D+02 -.302814584912187D+02 -.140569734269749D+02
 0.270122064414594D+03 0.137152603559014D+03 -.188663015594952D+03 0.136240080619490D+03
 0.181474736128857D+03 0.425978655106740D+02 0.137690244642779D+03 -.754498660225045D+02
 0.000000000000000D+00 0.000000000000000D+00 -.000000000000000D+00 0.000000000000000D+00
 0.428990399442619D+03 0.000000000000000D+00 0.000000000000000D+00 0.428990399442619D+03
 0.424038885954188D+03 0.000000000000000D+00 0.000000000000000D+00 -.424038885954188D+03
 0.277632984831931D+03 -.245241786468732D+03 0.910237806932204D+02 -.467332411700110D+02
 0.398770620464120D+02 0.238569449547048D+02 -.286954308724386D+02 -.140569734269749D+02
 0.246803464857394D+03 0.101597095244662D+03 -.178965418269164D+03 0.136240080619490D+03
 0.182631676974630D+03 0.175536611421219D+02 0.144520933355306D+03 -.754498660225045D+02
 0.106084096686440D+03 0.102234085127243D+03 -.278838649069239D+02 0.495151348843107D+01
0.156958582144D-04 0.000000000000D+00 0.000000000000D+00 0.107529068448D-05 0.000000000000D+00  7 -2 2 24 -11 11 -24 21 0 0.21026189D-01 0.15385090D+00 0.11535686D+06 0.11535686D+06 0.11535686D+06 0.11166659D+01  1  2  2  2  7  2        2 0.919649612385D-03 0.100000000000D+01
-.864370644982D-06 0.000000000000D+00 -.602762283578D-07 0.107529068448D-05 0.000000000000D+00  7 -2 2 24 -11 11 -24 21 2 0.21026189D-01 0.15385090D+00 0.11535686D+06 0.11535686D+06 0.11535686D+06 0.11166659D+01  1  2  3  2  7  2        2 -.631515302729D-04 0.100000000000D+01
0.885779482260D-06 0.000000000000D+00 0.000000000000D+00 0.107529068448D-05 0.000000000000D+00  7 -2 2 24 -11 11 -24 21 2 0.21026189D-01 0.15385090D+00 0.11535686D+06 0.11535686D+06 0.11535686D+06 0.11166659D+01  1  2 15  2  7  2        2 0.647156750565D-04 0.100000000000D+01
0.972778161294D-05 0.000000000000D+00 0.000000000000D+00 0.107529068448D-05 0.000000000000D+00  7 -2 2 24 -11 11 -24 21 2 0.21026189D-01 0.18705519D+00 0.15565699D+06 0.15565699D+06 0.15565699D+06 0.11062854D+01  1  2 12  2  7  2        2 0.518311156203D-03 0.100000000000D+01
-.833650137840D-05 0.000000000000D+00 0.000000000000D+00 0.107529068448D-05 0.000000000000D+00  7 -2 2 24 -11 11 -24 21 2 0.21026189D-01 0.15385090D+00 0.11535686D+06 0.11535686D+06 0.11535686D+06 0.11166659D+01  1  2  4  2  7  2        2 -.609070683074D-03 0.100000000000D+01
0.273464721328D-06 0.000000000000D+00 0.000000000000D+00 0.107529068448D-05 0.000000000000D+00  7 -2 21 24 -11 11 -24 -2 2 0.21026189D-01 0.18705519D+00 0.15565699D+06 0.15565699D+06 0.15565699D+06 0.11062854D+01  1  2 12  4  7  2        2 0.759867648083D-05 0.100000000000D+01
  </mgrwgt>
  </event>
  <event>
  8     66 0.27011060E-05 0.53665860E+03 0.75467711E-02 0.91610097E-01
       -2 -1    0    0    0  501 0.00000000E+00 0.00000000E+00 0.51484429E+03 0.51484439E+03 0.32000000E+00 0.0000E+00 0.9000E+01
        2 -1    0    0  501    0 0.00000000E+00 0.00000000E+00 -.62095563E+03 0.62095571E+03 0.32000000E+00 0.0000E+00 0.9000E+01
       25  2    1    2    0    0 -.43479963E+02 -.51956507E+03 -.41464720E+02 0.60277918E+03 0.29964153E+03 0.0000E+00 0.0000E+00
       23  2    1    2    0    0 0.43479963E+02 0.51956507E+03 -.64646620E+02 0.53302092E+03 0.89965238E+02 0.0000E+00 0.0000E+00
       24  1    3    3    0    0 -.48550043E+01 -.15823011E+03 -.13017697E+03 0.22016721E+03 0.80419002E+02 0.0000E+00 0.9000E+01
      -13  1    4    4    0    0 0.18554046E+02 0.43535117E+03 -.24444281E+02 0.43643147E+03 0.10565837E+00 0.0000E+00 0.9000E+01
       13  1    4    4    0    0 0.24925917E+02 0.84213904E+02 -.40202339E+02 0.96589452E+02 0.10565837E+00 0.0000E+00 0.9000E+01
      -24  1    3    3    0    0 -.38624959E+02 -.36133497E+03 0.88712255E+02 0.38261198E+03 0.80419002E+02 0.0000E+00 0.9000E+01
#aMCatNLO 1  0  0  1  2 0.22717364D+03 0.00000000D+00  -5  7  0 0.00000000D+00 0.00000000D+00 0.00000000D+00 0.00000000D+00 0.00000000D+00
  <mgrwgt>
 0.8853614059D-03    4    2    0
 0.565416274782750D+03 0.000000000000000D+00 0.000000000000000D+00 0.565416274782750D+03
 0.565416274782750D+03 0.000000000000000D+00 0.000000000000000D+00 -.565416274782750D+03
 0.208919243862461D+03 -.485500429402544D+01 -.158230106742057D+03 -.110089494300747D+03
 0.436055387130421D+03 0.185540369888259D+02 0.435351652499288D+03 0.164008238517979D+02
 0.932409051183091D+02 0.249259260263668D+02 0.842134196956186D+02 -.313155638968744D+02
 0.392617013454308D+03 -.386249587211672D+02 -.361334965452850D+03 0.125004234345824D+03
 0.000000000000000D+00 0.000000000000000D+00 -.000000000000000D+00 -.000000000000000D+00
 0.648886772405957D+03 0.000000000000000D+00 0.000000000000000D+00 0.648886772405957D+03
 0.755474461008961D+03 0.000000000000000D+00 0.000000000000000D+00 -.755474461008961D+03
 0.187084171701303D+03 -.265191179746911D+02 -.125340779370651D+03 -.110089494300747D+03
 0.515753994167993D+03 -.335164902550297D+02 0.514402410917956D+03 0.164008238517979D+02
 0.106477390782802D+03 0.139999599956172D+02 0.100800651415829D+03 -.313155638968744D+02
 0.344109828722589D+03 -.789289900331097D+02 -.300147487407586D+03 0.125004234345824D+03
 0.250935848040230D+03 0.124964638267213D+03 -.189714795555547D+03 -.106587688603004D+03
0.136743045509D-03 0.000000000000D+00 0.000000000000D+00 0.249318079910D-05 0.000000000000D+00  7 -2 2 24 -13 13 -24 21 0 0.79206828D-01 0.95531649D-01 0.28800245D+06 0.28800245D+06 0.28800245D+06 0.10858657D+01  1  2  2  1  7  1       -2 0.115333418841D-02 0.100000000000D+01
-.757166739560D-05 0.000000000000D+00 -.525129300027D-06 0.249318079910D-05 0.000000000000D+00  7 -2 2 24 -13 13 -24 21 2 0.79206828D-01 0.95531649D-01 0.28800245D+06 0.28800245D+06 0.28800245D+06 0.10858657D+01  1  2  3  1  7  1       -2 -.752997724344D-04 0.100000000000D+01
0.818726464173D-05 0.000000000000D+00 0.000000000000D+00 0.249318079910D-05 0.000000000000D+00  7 -2 2 24 -13 13 -24 21 2 0.79206828D-01 0.95531649D-01 0.28800245D+06 0.28800245D+06 0.28800245D+06 0.10858657D+01  1  2 15  1  7  1       -2 0.814218496629D-04 0.100000000000D+01
-.275612401733D-04 0.000000000000D+00 0.000000000000D+00 0.249318079910D-05 0.000000000000D+00  7 -2 2 24 -13 13 -24 21 2 0.79206828D-01 0.95531649D-01 0.28800245D+06 0.28800245D+06 0.28800245D+06 0.10858657D+01  1  2  4  1  7  1       -2 -.274094859775D-03 0.100000000000D+01
  </mgrwgt>
  </event>
  <event>
  8     66 0.27011060E-05 0.26340418E+03 0.75467711E-02 0.92113931E-01
       -2 -1    0    0    0  501 0.00000000E+00 0.00000000E+00 0.31193112E+03 0.31193129E+03 0.32000000E+00 0.0000E+00 0.9000E+01
        2 -1    0    0  501    0 0.00000000E+00 0.00000000E+00 -.56004654E+03 0.56004663E+03 0.32000000E+00 0.0000E+00 0.9000E+01
       25  2    1    2    0    0 0.38188189E+02 -.21019857E+03 0.15996655E+03 0.40188266E+03 0.30046397E+03 0.0000E+00 0.0000E+00
       23  2    1    2    0    0 -.38188189E+02 0.21019857E+03 -.40808197E+03 0.47009526E+03 0.93898241E+02 0.0000E+00 0.0000E+00
       24  1    3    3    0    0 0.23058223E+02 -.17116732E+02 0.17179049E+03 0.19184330E+03 0.80419002E+02 0.0000E+00 0.9000E+01
      -11  1    4    4    0    0 -.67636463E+02 0.13628459E+03 -.24050063E+03 0.28458519E+03 0.51099893E-03 0.0000E+00 0.9000E+01
       11  1    4    4    0    0 0.29448274E+02 0.73913982E+02 -.16758134E+03 0.18551007E+03 0.51099893E-03 0.0000E+00 0.9000E+01
      -24  1    3    3    0    0 0.15129966E+02 -.19308184E+03 -.11823936E+02 0.21003936E+03 0.80419002E+02 0.0000E+00 0.9000E+01
#aMCatNLO 1  0  0  1  1 0.56294371D+03 0.00000000D+00  -5  7  0 0.00000000D+00 0.00000000D+00 0.00000000D+00 0.00000000D+00 0.00000000D+00
  <mgrwgt>
 0.7258031568D-03    5    2    0
 0.417966574684799D+03 0.000000000000000D+00 0.000000000000000D+00 0.417966574684799D+03
 0.417966574684799D+03 0.000000000000000D+00 0.000000000000000D+00 -.417966574684799D+03
 0.251104997625375D+03 0.230582231239023D+02 -.171167322021340D+02 0.236139449696907D+03
 0.225472682231528D+03 -.676364627686041D+02 0.136284586489537D+03 -.166402376251684D+03
 0.143768871767707D+03 0.294482739432500D+02 0.739139824965276D+02 -.119745608865736D+03
 0.215586597744987D+03 0.151299657014518D+02 -.193081836783930D+03 0.500085354205128D+02
 0.000000000000000D+00 -.000000000000000D+00 0.000000000000000D+00 0.000000000000000D+00
 0.229540068543822D+04 0.000000000000000D+00 0.000000000000000D+00 0.229540068543822D+04
 0.548130858437279D+03 0.000000000000000D+00 0.000000000000000D+00 -.548130858437279D+03
 0.315437611950377D+03 0.365315502626914D+02 -.189571298489072D+03 0.236139449696907D+03
 0.176786216181215D+03 -.580700759846298D+02 0.138376907251051D+02 -.166402376251684D+03
 0.125249927041174D+03 0.358459891752083D+02 -.797486308626080D+01 -.119745608865736D+03
 0.390340635918969D+03 0.295399248174473D+02 -.377525012843029D+03 0.500085354205128D+02
 0.183571715278377D+04 -.438473882707172D+02 0.561233483693257D+03 0.174726982700094D+04
0.260221216389D-04 0.000000000000D+00 0.000000000000D+00 0.290982764706D-06 0.000000000000D+00  7 -2 2 24 -11 11 -24 21 0 0.47989423D-01 0.86161026D-01 0.69381760D+05 0.69381760D+05 0.69381760D+05 0.11349873D+01  1  2  2  1  7  1       -2 0.724156760715D-03 0.100000000000D+01
-.107096480294D-05 0.000000000000D+00 -.999317988752D-07 0.290982764706D-06 0.000000000000D+00  7 -2 2 24 -11 11 -24 21 2 0.47989423D-01 0.86161026D-01 0.69381760D+05 0.69381760D+05 0.69381760D+05 0.11349873D+01  1  2  3  1  7  1       -2 -.383925606009D-04 0.100000000000D+01
0.159263043927D-05 0.000000000000D+00 0.000000000000D+00 0.290982764706D-06 0.000000000000D+00  7 -2 2 24 -11 11 -24 21 2 0.47989423D-01 0.86161026D-01 0.69381760D+05 0.69381760D+05 0.69381760D+05 0.11349873D+01  1  2 15  1  7  1       -2 0.570935295787D-04 0.100000000000D+01
-.188278877636D-04 0.000000000000D+00 -.118106998070D-04 0.290982764706D-06 0.000000000000D+00  7 -2 2 24 -11 11 -24 21 2 0.29190221D+00 0.86161026D-01 0.69381760D+05 0.69381760D+05 0.69381760D+05 0.11349873D+01  1  2  5  1  7  1       -2 -.564445719301D-05 0.100000000000D+01
-.495284793463D-05 0.000000000000D+00 -.261342701168D-05 0.290982764706D-06 0.000000000000D+00  7 21 2 24 -11 11 -24 2 2 0.29190221D+00 0.86161026D-01 0.69381760D+05 0.69381760D+05 0.69381760D+05 0.11349873D+01  1  2  5  3  7  1       -2 -.114101157345D-04 0.100000000000D+01
  </mgrwgt>
  </event>
  <event>
  8     66 0.27011060E-05 0.16704726E+03 0.75467711E-02 0.10425920E+00
       -2 -1    0    0    0  501 0.00000000E+00 0.00000000E+00 0.42365085E+02 0.42366294E+02 0.32000000E+00 0.0000E+00 0.9000E+01
        2 -1    0    0  501    0 0.00000000E+00 0.00000000E+00 -.33260344E+04 0.33260344E+04 0.32000000E+00 0.0000E+00 0.9000E+01
       25  2    1    2    0    0 -.30613320E+02 -.40490048E+02 -.32334620E+04 0.32476166E+04 0.29859753E+03 0.0000E+00 0.0000E+00
       23  2    1    2    0    0 0.30613320E+02 0.40490048E+02 -.50207270E+02 0.12078406E+03 0.97423816E+02 0.0000E+00 0.0000E+00
       24  1    3    3    0    0 -.98440766E+02 0.56747628E+01 -.26441905E+04 0.26472502E+04 0.80419002E+02 0.0000E+00 0.9000E+01
      -11  1    4    4    0    0 0.10095263E+02 -.23067825E+02 -.47713156E+02 0.53949829E+02 0.51099893E-03 0.0000E+00 0.9000E+01
       11  1    4    4    0    0 0.20518057E+02 0.63557873E+02 -.24941149E+01 0.66834231E+02 0.51099893E-03 0.0000E+00 0.9000E+01
      -24  1    3    3    0    0 0.67827446E+02 -.46164811E+02 -.58927151E+03 0.60036645E+03 0.80419002E+02 0.0000E+00 0.9000E+01
#aMCatNLO 1  0  0  2  1 0.13906207D+03 0.00000000D+00  -5  7  0 0.00000000D+00 0.00000000D+00 0.00000000D+00 0.00000000D+00 0.00000000D+00
  <mgrwgt>
 0.1083674357D-02    4    2    0
 0.375379530284758D+03 0.000000000000000D+00 0.000000000000000D+00 0.375379530284758D+03
 0.375379530284758D+03 0.000000000000000D+00 0.000000000000000D+00 -.375379530284758D+03
 0.312153551833293D+03 -.984407658378114D+02 0.567476279454903D+01 -.285043569750767D+03
 0.333667882236033D+02 0.100952632659392D+02 -.230678246086562D+02 0.218930053618604D+02
 0.288953719661122D+03 0.205180570578400D+02 0.635578727954274D+02 0.281129255408059D+03
 0.116285000851497D+03 0.678274455140322D+02 -.461648109813202D+02 -.179786910191526D+02
 0.000000000000000D+00 0.000000000000000D+00 0.000000000000000D+00 0.000000000000000D+00
 0.593836065922311D+03 0.000000000000000D+00 0.000000000000000D+00 0.593836065922311D+03
 0.404561677309898D+03 0.000000000000000D+00 0.000000000000000D+00 -.404561677309898D+03
 0.325702052202081D+03 -.127828434305572D+03 -.449962840799360D+02 -.285043569750767D+03
 0.366923928932880D+02 0.686745437822134D+01 -.286333037357552D+02 0.218930053618604D+02
 0.281778225646636D+03 -.577704968192058D+01 0.182191080805036D+02 0.281129255408059D+03
 0.119356912967796D+03 0.569708090015998D+02 -.648841298760533D+02 -.179786910191526D+02
 0.234868159522408D+03 0.697672206076718D+02 0.120294609611241D+03 0.189274388612414D+03
0.626092505621D-04 0.000000000000D+00 0.000000000000D+00 0.215607625670D-07 0.000000000000D+00  7 -2 2 24 -11 11 -24 21 0 0.65177996D-02 0.51169769D+00 0.27904786D+05 0.27904786D+05 0.27904786D+05 0.11702645D+01  1  2  2  2  7  2        2 0.113383675808D-02 0.100000000000D+01
-.705905138875D-06 0.000000000000D+00 -.240436007553D-06 0.215607625670D-07 0.000000000000D+00  7 -2 2 24 -11 11 -24 21 2 0.65177996D-02 0.51169769D+00 0.27904786D+05 0.27904786D+05 0.27904786D+05 0.11702645D+01  1  2  3  2  7  2        2 -.175075924724D-04 0.100000000000D+01
0.382979299476D-05 0.000000000000D+00 0.000000000000D+00 0.215607625670D-07 0.000000000000D+00  7 -2 2 24 -11 11 -24 21 2 0.65177996D-02 0.51169769D+00 0.27904786D+05 0.27904786D+05 0.27904786D+05 0.11702645D+01  1  2 15  2  7  2        2 0.949850784666D-04 0.100000000000D+01
-.514643302504D-05 0.000000000000D+00 0.000000000000D+00 0.215607625670D-07 0.000000000000D+00  7 -2 2 24 -11 11 -24 21 2 0.65177996D-02 0.51169769D+00 0.27904786D+05 0.27904786D+05 0.27904786D+05 0.11702645D+01  1  2  4  2  7  2        2 -.127639886901D-03 0.100000000000D+01
  </mgrwgt>
  </event>
  <event>
  8     66 0.27011060E-05 0.55993771E+03 0.75467711E-02 0.88120902E-01
       -2 -1    0    0    0  501 0.00000000E+00 0.00000000E+00 0.21961040E+04 0.21961040E+04 0.32000000E+00 0.0000E+00 0.9000E+01
        2 -1    0    0  501    0 0.00000000E+00 0.00000000E+00 -.67331883E+03 0.67331890E+03 0.32000000E+00 0.0000E+00 0.9000E+01
       25  2    1    2    0    0 0.35470022E+03 -.82904387E+03 0.16988963E+04 0.19464963E+04 0.29912032E+03 0.0000E+00 0.0000E+00
       23  2    1    2    0    0 -.35470022E+03 0.82904387E+03 -.17611114E+03 0.92292669E+03 0.87478857E+02 0.0000E+00 0.0000E+00
       24  1    3    3    0    0 0.17924700E+03 -.18003295E+03 0.58710911E+03 0.64475241E+03 0.80419002E+02 0.0000E+00 0.9000E+01
      -11  1    4    4    0    0 -.22662968E+03 0.50555138E+03 -.65702682E+02 0.55790685E+03 0.51099893E-03 0.0000E+00 0.9000E+01
       11  1    4    4    0    0 -.12807054E+03 0.32349249E+03 -.11040845E+03 0.36501984E+03 0.51099893E-03 0.0000E+00 0.9000E+01
      -24  1    3    3    0    0 0.17545322E+03 -.64901092E+03 0.11117872E+04 0.13017439E+04 0.80419002E+02 0.0000E+00 0.9000E+01
#aMCatNLO 1  0  0  1  2 0.72211704D+01 0.00000000D+00  -5  7  0 0.00000000D+00 0.00000000D+00 0.00000000D+00 0.00000000D+00 0.00000000D+00
  <mgrwgt>
 0.4805622118D-02   11    2    0
 0.121600918028622D+04 0.000000000000000D+00 0.000000000000000D+00 0.121600918028622D+04
 0.121600918028622D+04 0.000000000000000D+00 0.000000000000000D+00 -.121600918028622D+04
 0.393099954522173D+03 0.179247002294125D+03 -.180032951293824D+03 0.288996551723321D+03
 0.699386902899746D+03 -.226629684875234D+03 0.505551378297515D+03 -.426847548642996D+03
 0.499800773106797D+03 -.128070536492285D+03 0.323492491809754D+03 -.358819394993423D+03
 0.839730730043726D+03 0.175453219073395D+03 -.649010918813445D+03 0.496670391913098D+03
 0.000000000000000D+00 0.000000000000000D+00 -.000000000000000D+00 0.000000000000000D+00
 0.123151625269412D+04 0.000000000000000D+00 0.000000000000000D+00 0.123151625269412D+04
 0.121685550092529D+04 0.000000000000000D+00 0.000000000000000D+00 -.121685550092529D+04
 0.392483757926142D+03 0.179046938098575D+03 -.178883960519135D+03 0.288996551723321D+03
 0.700984254493512D+03 -.226986316669702D+03 0.507599554087681D+03 -.426847548642996D+03
 0.500814486790378D+03 -.128325362660209D+03 0.324955986640944D+03 -.358819394993423D+03
 0.837746581920194D+03 0.175026016798636D+03 -.646557448959558D+03 0.496670391913098D+03
 0.163426724891803D+02 0.123872443269998D+01 -.711413124993233D+01 0.146607517688276D+02
0.746791727618D-02 0.000000000000D+00 0.000000000000D+00 0.102513412919D-05 0.000000000000D+00  7 -2 2 24 -11 11 -24 21 0 0.33786217D+00 0.10358752D+00 0.85148772D+06 0.85148772D+06 0.85148772D+06 0.10525436D+01  1  2  2  1  7  1       -2 0.585410705962D-03 0.100000000000D+01
-.376469456939D-03 0.000000000000D+00 -.286787686883D-04 0.102513412919D-05 0.000000000000D+00  7 -2 2 24 -11 11 -24 21 2 0.33786217D+00 0.10358752D+00 0.85148772D+06 0.85148772D+06 0.85148772D+06 0.10525436D+01  1  2  3  1  7  1       -2 -.326942296131D-04 0.100000000000D+01
0.454365993558D-03 0.000000000000D+00 0.000000000000D+00 0.102513412919D-05 0.000000000000D+00  7 -2 2 24 -11 11 -24 21 2 0.33786217D+00 0.10358752D+00 0.85148772D+06 0.85148772D+06 0.85148772D+06 0.10525436D+01  1  2 15  1  7  1       -2 0.394591004608D-04 0.100000000000D+01
0.107931785530D-01 0.000000000000D+00 0.000000000000D+00 0.102513412919D-05 0.000000000000D+00  7 -2 2 24 -11 11 -24 21 2 0.34228750D+00 0.10358752D+00 0.85825462D+06 0.85825462D+06 0.85825462D+06 0.10523117D+01  1  2 12  1  7  1       -2 0.874352939519D-03 0.100000000000D+01
-.249203351625D-01 0.000000000000D+00 0.000000000000D+00 0.102513412919D-05 0.000000000000D+00  7 -2 2 24 -11 11 -24 21 2 0.33786217D+00 0.10358752D+00 0.85148772D+06 0.85148772D+06 0.85148772D+06 0.10525436D+01  1  2  4  1  7  1       -2 -.216418927172D-02 0.100000000000D+01
-.839090720725D+00 0.000000000000D+00 -.491798231959D-01 0.102513412919D-05 0.000000000000D+00  7 -2 2 24 -11 11 -24 21 2 0.34225138D+00 0.10358752D+00 0.85148772D+06 0.85148772D+06 0.85148772D+06 0.10525436D+01  1  2  5  1  7  1       -2 -.680845852245D-01 0.100000000000D+01
0.839659658414D+00 0.000000000000D+00 0.491757267339D-01 0.102513412919D-05 0.000000000000D+00  7 -2 2 24 -11 11 -24 21 2 0.33786217D+00 0.10358752D+00 0.85148772D+06 0.85148772D+06 0.85148772D+06 0.10525436D+01  1  2  6  1  7  1       -2 0.729196623073D-01 0.100000000000D+01
0.139699185115D-01 0.000000000000D+00 0.000000000000D+00 0.102513412919D-05 0.116115221954D-06  7 -2 2 24 -11 11 -24 21 2 0.34217073D+00 0.10365961D+00 0.85825462D+06 0.85825462D+06 0.85825462D+06 0.10523117D+01  1  2 11  1  7  1       -2 0.113278116942D-02 0.100000000000D+01
0.112746936494D-02 0.000000000000D+00 0.000000000000D+00 0.102513412919D-05 0.000000000000D+00  7 21 2 24 -11 11 -24 2 2 0.34228750D+00 0.10358752D+00 0.85825462D+06 0.85825462D+06 0.85825462D+06 0.10523117D+01  1  2 12  3  7  1       -2 0.629386845075D-03 0.100000000000D+01
-.198894732112D-02 0.000000000000D+00 -.116751093318D-03 0.102513412919D-05 0.000000000000D+00  7 21 2 24 -11 11 -24 2 2 0.34225138D+00 0.10358752D+00 0.85148772D+06 0.85148772D+06 0.85148772D+06 0.10525436D+01  1  2  5  3  7  1       -2 -.111239688970D-02 0.100000000000D+01
0.329922936560D-04 0.000000000000D+00 0.000000000000D+00 0.102513412919D-05 0.270742484811D-09  7 21 2 24 -11 11 -24 2 2 0.34217073D+00 0.10365961D+00 0.85825462D+06 0.85825462D+06 0.85825462D+06 0.10523117D+01  1  2 11  3  7  1       -2 0.184346655258D-04 0.100000000000D+01
  </mgrwgt>
  </event>
  <event>
  8     66 0.27011060E-05 0.24659893E+03 0.75467711E-02 0.99112672E-01
       -2 -1    0    0    0  501 0.00000000E+00 0.00000000E+00 0.74473810E+02 0.74474498E+02 0.32000000E+00 0.0000E+00 0.9000E+01
        2 -1    0    0  501    0 0.00000000E+00 0.00000000E+00 -.12384601E+04 0.12384602E+04 0.32000000E+00 0.0000E+00 0.9000E+01
       25  2    1    2    0    0 -.15911657E+03 -.11769163E+02 -.38773177E+03 0.51533707E+03 0.29963272E+03 0.0000E+00 0.0000E+00
       23  2    1    2    0    0 0.15911657E+03 0.11769163E+02 -.77625453E+03 0.79759758E+03 0.90189891E+02 0.0000E+00 0.0000E+00
       24  1    3    3    0    0 -.23263499E+02 -.10313834E+03 -.26213971E+03 0.29387609E+03 0.80419002E+02 0.0000E+00 0.9000E+01
      -13  1    4    4    0    0 0.35047942E+02 -.30929816E+02 -.29912638E+03 0.30275669E+03 0.10565837E+00 0.0000E+00 0.9000E+01
       13  1    4    4    0    0 0.12406863E+03 0.42698979E+02 -.47712815E+03 0.49484089E+03 0.10565837E+00 0.0000E+00 0.9000E+01
      -24  1    3    3    0    0 -.13585307E+03 0.91369180E+02 -.12559206E+03 0.22146098E+03 0.80419002E+02 0.0000E+00 0.9000E+01
#aMCatNLO 1  0  0  1  2 0.16887539D+03 0.00000000D+00  -5  7  0 0.00000000D+00 0.00000000D+00 0.00000000D+00 0.00000000D+00 0.00000000D+00
  <mgrwgt>
 0.1083385305D-02    3    2    0
 0.303699393882576D+03 0.000000000000000D+00 0.000000000000000D+00 0.303699393882576D+03
 0.303699393882576D+03 0.000000000000000D+00 0.000000000000000D+00 -.303699393882576D+03
 0.132883143548281D+03 -.232634992926133D+02 -.103138343788848D+03 -.346489914116275D+01
 0.811998330585918D+02 0.350478204224078D+02 -.309299162571986D+02 -.663958089995485D+02
 0.155290378442421D+03 0.124068753002088D+03 0.426990796161821D+02 -.830592244439350D+02
 0.238025432715858D+03 -.135853074131883D+03 0.913691804298648D+02 0.152919932584646D+03
 0.000000000000000D+00 0.000000000000000D+00 0.000000000000000D+00 -.000000000000000D+00
 0.340934060049934D+03 0.000000000000000D+00 0.000000000000000D+00 0.340934060049934D+03
 0.592478231793192D+03 0.000000000000000D+00 0.000000000000000D+00 -.592478231793192D+03
 0.166420464705730D+03 -.417492658491106D+02 -.139547656352597D+03 -.346489914116275D+01
 0.875362004386400D+02 0.246262456773016D+02 -.514561071047006D+02 -.663958089995485D+02
 0.134979007699547D+03 0.106140963417392D+03 0.738875085208309D+01 -.830592244439350D+02
 0.241502416459824D+03 -.165469956898221D+03 0.330361738700438D+02 0.152919932584646D+03
 0.302974202539387D+03 0.764520136526374D+02 0.150578838735170D+03 -.251544171743258D+03
0.941703148803D-05 0.000000000000D+00 0.000000000000D+00 0.527592491996D-06 0.000000000000D+00  7 -2 2 24 -13 13 -24 21 0 0.11457565D-01 0.19053238D+00 0.60811034D+05 0.60811034D+05 0.60811034D+05 0.11398920D+01  1  2  2  1  7  1       -2 0.106824388367D-02 0.100000000000D+01
-.495575488876D-06 0.000000000000D+00 -.361638804754D-07 0.527592491996D-06 0.000000000000D+00  7 -2 2 24 -13 13 -24 21 2 0.11457565D-01 0.19053238D+00 0.60811034D+05 0.60811034D+05 0.60811034D+05 0.11398920D+01  1  2  3  1  7  1       -2 -.730455229628D-04 0.100000000000D+01
0.598302075645D-06 0.000000000000D+00 0.000000000000D+00 0.527592491996D-06 0.000000000000D+00  7 -2 2 24 -13 13 -24 21 2 0.11457565D-01 0.19053238D+00 0.60811034D+05 0.60811034D+05 0.60811034D+05 0.11398920D+01  1  2 15  1  7  1       -2 0.881869442421D-04 0.100000000000D+01
  </mgrwgt>
  </event>
  <event>
  7     66 0.27011060E-05 0.21703449E+03 0.75467711E-02 0.97849486E-01
       -2 -1    0    0    0  501 0.00000000E+00 0.00000000E+00 0.93872007E+02 0.93872552E+02 0.32000000E+00 0.0000E+00 0.9000E+01
        2 -1    0    0  501    0 0.00000000E+00 0.00000000E+00 -.20189685E+04 0.20189686E+04 0.32000000E+00 0.0000E+00 0.9000E+01
       23  2    1    2    0    0 -.88085241E+02 -.13386806E+03 -.57897805E+02 0.19386009E+03 0.92465727E+02 0.0000E+00 0.0000E+00
       24  1    1    2    0    0 -.14540379E+03 0.32844677E+02 -.57029925E+03 0.59491973E+03 0.80419002E+02 0.0000E+00 0.9000E+01
      -11  1    3    3    0    0 -.18680481E+02 -.10336160E+03 -.53608179E+02 0.11792547E+03 0.51099893E-03 0.0000E+00 0.9000E+01
       11  1    3    3    0    0 -.69404761E+02 -.30506465E+02 -.42896263E+01 0.75934618E+02 0.51099893E-03 0.0000E+00 0.9000E+01
      -24  1    1    2    0    0 0.23348903E+03 0.10102339E+03 -.12968995E+04 0.13240613E+04 0.80419002E+02 0.0000E+00 0.9000E+01
#aMCatNLO 1  0  0  1  2 0.14489195D+03 0.00000000D+00  -5  7  0 0.00000000D+00 0.00000000D+00 0.00000000D+00 0.00000000D+00 0.00000000D+00
  <mgrwgt>
 0.2738086289D-02    9    2    0
 0.435344955162873D+03 0.000000000000000D+00 0.000000000000000D+00 0.435344955162873D+03
 0.435344955162873D+03 0.000000000000000D+00 0.000000000000000D+00 -.435344955162873D+03
 0.182716879054033D+03 -.145403760274522D+03 0.328446820908557D+02 -.685362334335325D+02
 0.167633588537161D+03 -.186804835262930D+02 -.103361601084775D+03 0.130646235928411D+03
 0.174780762805950D+03 -.694047640820796D+02 -.305064699303256D+02 0.157482218241078D+03
 0.345558679928601D+03 0.233489007882894D+03 0.101023388924245D+03 -.219592220735956D+03
 0.000000000000000D+00 -.000000000000000D+00 -.000000000000000D+00 0.000000000000000D+00
 0.515905940202896D+03 0.000000000000000D+00 0.000000000000000D+00 0.515905940202896D+03
 0.511710098386953D+03 0.000000000000000D+00 0.000000000000000D+00 -.511710098386953D+03
 0.169591898315381D+03 -.122522151897836D+03 0.508458751612361D+02 -.685362334335325D+02
 0.156860507554904D+03 0.239462814922404D+01 -.867815972666278D+02 0.130646235928411D+03
 0.164968070363331D+03 -.473388938955303D+02 -.131470263564750D+02 0.157482218241078D+03
 0.391242877342969D+03 0.281342498252061D+03 0.138670214490261D+03 -.219592220735956D+03
 0.144952685013263D+03 -.113876080607919D+03 -.895874660283939D+02 0.419584181594266D+01
0.716790473810D-04 0.000000000000D+00 0.000000000000D+00 0.867576040626D-10 0.000000000000D+00  7 -2 2 24 -11 11 -24 21 0 0.14441891D-01 0.31061059D+00 0.95184636D+05 0.95184636D+05 0.95184636D+05 0.11234851D+01  1  2  2  1  7  1       -2 0.213546718330D-02 0.100000000000D+01
-.340804496209D-05 0.000000000000D+00 -.275266415470D-06 0.867576040626D-10 0.000000000000D+00  7 -2 2 24 -11 11 -24 21 2 0.14441891D-01 0.31061059D+00 0.95184636D+05 0.95184636D+05 0.95184636D+05 0.11234851D+01  1  2  3  1  7  1       -2 -.128156504787D-03 0.100000000000D+01
0.387126948435D-05 0.000000000000D+00 0.000000000000D+00 0.867576040626D-10 0.000000000000D+00  7 -2 2 24 -11 11 -24 21 2 0.14441891D-01 0.31061059D+00 0.95184636D+05 0.95184636D+05 0.95184636D+05 0.11234851D+01  1  2 15  1  7  1       -2 0.145575651648D-03 0.100000000000D+01
0.248713628795D-04 0.000000000000D+00 0.000000000000D+00 0.867576040626D-10 0.000000000000D+00  7 -2 2 24 -11 11 -24 21 2 0.18167701D-01 0.31061059D+00 0.14431240D+06 0.14431240D+06 0.14431240D+06 0.11088791D+01  1  2 12  1  7  1       -2 0.620466298066D-03 0.100000000000D+01
-.305235234349D-04 0.000000000000D+00 0.000000000000D+00 0.867576040626D-10 0.000000000000D+00  7 -2 2 24 -11 11 -24 21 2 0.14441891D-01 0.31061059D+00 0.95184636D+05 0.95184636D+05 0.95184636D+05 0.11234851D+01  1  2  4  1  7  1       -2 -.114780999685D-02 0.100000000000D+01
-.496194932277D-04 0.000000000000D+00 -.313978665492D-04 0.867576040626D-10 0.000000000000D+00  7 -2 2 24 -11 11 -24 21 2 0.20820876D-01 0.31061059D+00 0.95184636D+05 0.95184636D+05 0.95184636D+05 0.11234851D+01  1  2  5  1  7  1       -2 -.102989535783D-02 0.100000000000D+01
0.590967353660D-04 0.000000000000D+00 0.294080359594D-04 0.867576040626D-10 0.000000000000D+00  7 -2 2 24 -11 11 -24 21 2 0.14441891D-01 0.31061059D+00 0.95184636D+05 0.95184636D+05 0.95184636D+05 0.11234851D+01  1  2  6  1  7  1       -2 0.222228026128D-02 0.100000000000D+01
0.789933166487D-06 0.000000000000D+00 0.000000000000D+00 0.867576040626D-10 0.000000000000D+00  7 21 2 24 -11 11 -24 2 2 0.18167701D-01 0.31061059D+00 0.14431240D+06 0.14431240D+06 0.14431240D+06 0.11088791D+01  1  2 12  3  7  1       -2 0.255370389292D-03 0.100000000000D+01
-.126670109208D-05 0.000000000000D+00 -.140038939470D-05 0.867576040626D-10 0.000000000000D+00  7 21 2 24 -11 11 -24 2 2 0.20820876D-01 0.31061059D+00 0.95184636D+05 0.95184636D+05 0.95184636D+05 0.11234851D+01  1  2  5  3  7  1       -2 -.335211634742D-03 0.100000000000D+01
  </mgrwgt>
  </event>
  <event>
  8     66 0.27011060E-05 0.27694850E+03 0.75467711E-02 0.91643832E-01
       -2 -1    0    0    0  501 0.00000000E+00 0.00000000E+00 0.11844803E+03 0.11844847E+03 0.32000000E+00 0.0000E+00 0.9000E+01
        2 -1    0    0  501    0 0.00000000E+00 0.00000000E+00 -.27033139E+04 0.27033139E+04 0.32000000E+00 0.0000E+00 0.9000E+01
       25  2    1    2    0    0 0.92537791E+02 0.40576465E+03 -.21613339E+04 0.22212814E+04 0.29919695E+03 0.0000E+00 0.0000E+00
       23  2    1    2    0    0 -.92537791E+02 -.40576465E+03 -.42353201E+03 0.60048099E+03 0.89386020E+02 0.0000E+00 0.0000E+00
       24  1    3    3    0    0 -.66186523E+02 0.21515957E+03 -.12822400E+04 0.13043316E+04 0.80419002E+02 0.0000E+00 0.9000E+01
      -11  1    4    4    0    0 -.67002817E+02 -.38933037E+03 -.39842667E+03 0.56108050E+03 0.51099893E-03 0.0000E+00 0.9000E+01
       11  1    4    4    0    0 -.25534974E+02 -.16434277E+02 -.25105334E+02 0.39400484E+02 0.51099893E-03 0.0000E+00 0.9000E+01
      -24  1    3    3    0    0 0.15872431E+03 0.19060508E+03 -.87909389E+03 0.91694983E+03 0.80419002E+02 0.0000E+00 0.9000E+01
#aMCatNLO 1  0  0  2  1 0.33128133D+03 0.00000000D+00  -5  7  0 0.00000000D+00 0.00000000D+00 0.00000000D+00 0.00000000D+00 0.00000000D+00
  <mgrwgt>
 0.1113377106D-02    9    2    0
 0.565864699671592D+03 0.000000000000000D+00 0.000000000000000D+00 0.565864699671592D+03
 0.565864699671592D+03 0.000000000000000D+00 0.000000000000000D+00 -.565864699671592D+03
 0.323483198956989D+03 -.661865225636620D+02 0.215159569277811D+03 -.217944644421911D+03
 0.488947584075045D+03 -.670028169983433D+02 -.389330373133354D+03 0.288101063939294D+03
 0.408974820499872D+02 -.255349736832984D+02 -.164342769322700D+02 0.273949575421415D+02
 0.278401134261163D+03 0.158724313245304D+03 0.190605080787813D+03 -.975513770595249D+02
 0.000000000000000D+00 0.000000000000000D+00 0.000000000000000D+00 -.000000000000000D+00
 0.708867995977586D+03 0.000000000000000D+00 0.000000000000000D+00 0.708867995977586D+03
 0.819672161484478D+03 0.000000000000000D+00 0.000000000000000D+00 -.819672161484478D+03
 0.296369035460741D+03 -.116859386794573D+03 0.142166820712017D+03 -.217944644421911D+03
 0.614267444164107D+03 -.157190546007623D+03 -.519243105070040D+03 0.288101063939294D+03
 0.508279546284374D+02 -.330335198548597D+02 -.272357088942686D+02 0.273949575421415D+02
 0.217755118998010D+03 0.118163584312324D+03 0.132178561316582D+03 -.975513770595249D+02
 0.349320604210769D+03 0.188919868344731D+03 0.272133431935709D+03 -.110804165506892D+03
0.111445233375D-03 0.000000000000D+00 0.000000000000D+00 0.987447330119D-06 0.000000000000D+00  7 -2 2 24 -11 11 -24 21 0 0.18222809D-01 0.41589448D+00 0.21400516D+06 0.21400516D+06 0.21400516D+06 0.10955749D+01  1  2  2  2  7  2        2 0.908212368432D-03 0.100000000000D+01
-.588582342436D-05 0.000000000000D+00 -.427979040363D-06 0.987447330119D-06 0.000000000000D+00  7 -2 2 24 -11 11 -24 21 2 0.18222809D-01 0.41589448D+00 0.21400516D+06 0.21400516D+06 0.21400516D+06 0.10955749D+01  1  2  3  2  7  2        2 -.575727960438D-04 0.100000000000D+01
0.684103601080D-05 0.000000000000D+00 0.000000000000D+00 0.987447330119D-06 0.000000000000D+00  7 -2 2 24 -11 11 -24 21 2 0.18222809D-01 0.41589448D+00 0.21400516D+06 0.21400516D+06 0.21400516D+06 0.10955749D+01  1  2 15  2  7  2        2 0.669163076398D-04 0.100000000000D+01
0.750974286849D-05 0.000000000000D+00 0.000000000000D+00 0.987447330119D-06 0.000000000000D+00  7 -2 2 24 -11 11 -24 21 2 0.18222809D-01 0.63589463D+00 0.43041903D+06 0.43041903D+06 0.43041903D+06 0.10731404D+01  1  2 12  2  7  2        2 0.657168186252D-05 0.100000000000D+01
-.396821452880D-04 0.000000000000D+00 0.000000000000D+00 0.987447330119D-06 0.000000000000D+00  7 -2 2 24 -11 11 -24 21 2 0.18222809D-01 0.41589448D+00 0.21400516D+06 0.21400516D+06 0.21400516D+06 0.10955749D+01  1  2  4  2  7  2        2 -.388155045187D-03 0.100000000000D+01
-.555769635912D-04 0.000000000000D+00 -.296700495529D-04 0.987447330119D-06 0.000000000000D+00  7 -2 2 24 -11 11 -24 21 2 0.18222809D-01 0.63334954D+00 0.21400516D+06 0.21400516D+06 0.21400516D+06 0.10955749D+01  1  2  5  2  7  2        2 -.553729157550D-04 0.100000000000D+01
0.646929098277D-04 0.000000000000D+00 0.272262259235D-04 0.987447330119D-06 0.000000000000D+00  7 -2 2 24 -11 11 -24 21 2 0.18222809D-01 0.41589448D+00 0.21400516D+06 0.21400516D+06 0.21400516D+06 0.10955749D+01  1  2  6  2  7  2        2 0.632800448545D-03 0.100000000000D+01
0.373581426732D-06 0.000000000000D+00 0.000000000000D+00 0.987447330119D-06 0.000000000000D+00  7 -2 21 24 -11 11 -24 -2 2 0.18222809D-01 0.63589463D+00 0.43041903D+06 0.43041903D+06 0.43041903D+06 0.10731404D+01  1  2 12  4  7  2        2 0.534252982567D-08 0.100000000000D+01
-.166245084895D-05 0.000000000000D+00 -.146559433092D-05 0.987447330119D-06 0.000000000000D+00  7 -2 21 24 -11 11 -24 -2 2 0.18222809D-01 0.63334954D+00 0.21400516D+06 0.21400516D+06 0.21400516D+06 0.10955749D+01  1  2  5  4  7  2        2 -.282864768987D-07 0.100000000000D+01
  </mgrwgt>
  </event>
  <event>
  9     66 0.27011060E-05 0.18730764E+03 0.75467711E-02 0.10520739E+00
       -4 -1    0    0    0  502 0.00000000E+00 0.00000000E+00 0.40591065E+03 0.40591360E+03 0.15500000E+01 0.0000E+00 0.9000E+01
        4 -1    0    0  501    0 0.00000000E+00 0.00000000E+00 -.27077196E+03 0.27077640E+03 0.15500000E+01 0.0000E+00 0.9000E+01
       25  2    1    2    0    0 0.10169195E+01 -.82863063E+02 -.15016540E+03 0.34757698E+03 0.30231240E+03 0.0000E+00 0.0000E+00
       23  2    1    2    0    0 0.84943501E+01 0.12694933E+02 0.18480902E+03 0.20617461E+03 0.90112610E+02 0.0000E+00 0.0000E+00
       24  1    3    3    0    0 0.71048073E+02 -.15166929E+03 -.77242785E+02 0.20120901E+03 0.80419002E+02 0.0000E+00 0.9000E+01
      -11  1    4    4    0    0 0.11938457E+02 -.16210353E+02 0.10877456E+01 0.20161486E+02 0.51099893E-03 0.0000E+00 0.9000E+01
       11  1    4    4    0    0 -.34441070E+01 0.28905286E+02 0.18372127E+03 0.18601313E+03 0.51099893E-03 0.0000E+00 0.9000E+01
      -24  1    3    3    0    0 -.70031154E+02 0.68806226E+02 -.72922619E+02 0.14636797E+03 0.80419002E+02 0.0000E+00 0.9000E+01
       21  1    1    2  501  502 -.95112696E+01 0.70168131E+02 0.10049507E+03 0.12293841E+03 0.75000000E+00 0.0000E+00 0.9000E+01
#aMCatNLO 2  0  0  1  2 0.70809821D+02 0.00000000D+00  -5  7  0 0.00000000D+00 0.00000000D+00 0.00000000D+00 0.00000000D+00 0.00000000D+00
  <mgrwgt>
 0.9753982662D-05    2    2    0
 0.274055934927470D+03 0.000000000000000D+00 0.000000000000000D+00 0.274055934927470D+03
 0.274055934927470D+03 0.000000000000000D+00 0.000000000000000D+00 -.274055934927470D+03
 0.187512218517047D+03 0.676440816511980D+02 -.126556793428124D+03 -.900070685755914D+02
 0.180178024233168D+02 0.116088165011794D+02 -.137784734862934D+02 -.173931006831651D+00
 0.180075074908743D+03 -.651093583804548D+01 0.515304090571708D+02 0.172421742423347D+03
 0.162506774005833D+03 -.727419623143319D+02 0.888048578572470D+02 -.822407428409236D+02
 0.000000000000000D+00 -.000000000000000D+00 0.000000000000000D+00 0.000000000000000D+00
 0.381264991752896D+03 0.000000000000000D+00 0.000000000000000D+00 0.381264991752896D+03
 0.288279382159247D+03 0.000000000000000D+00 0.000000000000000D+00 -.288279382159247D+03
 0.206445853558219D+03 0.710480731579701D+02 -.151669289587509D+03 -.900070685755914D+02
 0.201328727211637D+02 0.119384570984271D+02 -.162103533002972D+02 -.173931006831651D+00
 0.174861758799021D+03 -.344410702294512D+01 0.289052859663876D+02 0.172421742423347D+03
 0.151226369993169D+03 -.700311536439070D+02 0.688062261951408D+02 -.822407428409236D+02
 0.116877518840569D+03 -.951126958954503D+01 0.701681307262781D+02 0.929856095936493D+02
-.137635924385D-04 0.000000000000D+00 0.000000000000D+00 0.510098711241D-07 0.000000000000D+00  7 -4 4 24 -11 11 -24 21 2 0.63265798D-01 0.39602276D-01 0.46818678D+05 0.46818678D+05 0.46818678D+05 0.11498152D+01  1  2 13  1  7  1       -4 -.610060257531D-04 0.100000000000D+01
0.172232871128D-04 0.000000000000D+00 0.000000000000D+00 0.510098711241D-07 0.762061537702D-10  7 -4 4 24 -11 11 -24 21 2 0.62448108D-01 0.41657626D-01 0.46818678D+05 0.46818678D+05 0.46818678D+05 0.11498152D+01  1  2  1  1  7  1       -4 0.707600084149D-04 0.100000000000D+01
  </mgrwgt>
  </event>
  <event>
  8     66 0.27011060E-05 0.20035788E+03 0.75467711E-02 0.81283177E-01
       -2 -1    0    0    0  501 0.00000000E+00 0.00000000E+00 0.85055029E+03 0.85055036E+03 0.32000000E+00 0.0000E+00 0.9000E+01
        2 -1    0    0  501    0 0.00000000E+00 0.00000000E+00 -.11813361E+04 0.11813361E+04 0.32000000E+00 0.0000E+00 0.9000E+01
       25  2    1    2    0    0 -.28589814E+02 -.10450993E+03 0.81611103E+03 0.87627361E+03 0.30013085E+03 0.0000E+00 0.0000E+00
       23  2    1    2    0    0 0.28589814E+02 0.10450993E+03 -.11468968E+04 0.11556129E+04 0.91263806E+02 0.0000E+00 0.0000E+00
       24  1    3    3    0    0 0.58083946E+02 0.21901698E+02 0.54665247E+03 0.55601220E+03 0.80419002E+02 0.0000E+00 0.9000E+01
      -11  1    4    4    0    0 0.14246096E+02 -.53702983E+01 -.34495471E+02 0.37705820E+02 0.51099893E-03 0.0000E+00 0.9000E+01
       11  1    4    4    0    0 0.14343719E+02 0.10988023E+03 -.11124014E+04 0.11179071E+04 0.51099893E-03 0.0000E+00 0.9000E+01
      -24  1    3    3    0    0 -.86673760E+02 -.12641163E+03 0.26945856E+03 0.32026141E+03 0.80419002E+02 0.0000E+00 0.9000E+01
#aMCatNLO 1  0  0  1  2 0.19592879D+04 0.00000000D+00  -5  7  0 0.00000000D+00 0.00000000D+00 0.00000000D+00 0.00000000D+00 0.00000000D+00
  <mgrwgt>
 0.3106108434D-02    3    2    0
 0.100239007786169D+04 0.000000000000000D+00 0.000000000000000D+00 0.100239007786169D+04
 0.100239007786169D+04 0.000000000000000D+00 0.000000000000000D+00 -.100239007786169D+04
 0.653726817729409D+03 0.580839459401856D+02 0.219016978378601D+02 0.645784876812771D+03
 0.325239321482358D+02 0.142460955097103D+02 -.537029829415904D+01 -.287404735754825D+02
 0.949477514492493D+03 0.143437185133146D+02 0.109880229695694D+03 -.942988941286204D+03
 0.369051891353248D+03 -.866737599632104D+02 -.126411629239395D+03 0.325944538048915D+03
 0.000000000000000D+00 -.000000000000000D+00 -.000000000000000D+00 -.000000000000000D+00
 0.170884653742142D+04 0.000000000000000D+00 0.000000000000000D+00 0.170884653742142D+04
 0.452518004822400D+04 0.000000000000000D+00 0.000000000000000D+00 -.452518004822400D+04
 0.964640800707037D+03 0.443773162610367D+03 0.556858987052422D+03 0.645784876812771D+03
 0.493619919888315D+02 0.337611411501144D+02 0.216973910875135D+02 -.287404735754825D+02
 0.142292261603607D+04 0.579733891640861D+03 0.894085702112389D+03 -.942988941286204D+03
 0.366278589445112D+03 0.885701301776652D+02 0.116654529650251D+03 0.325944538048915D+03
 0.343082258746837D+04 -.114583832557901D+04 -.158929660990258D+04 -.281633351080259D+04
0.212852522258D-02 0.000000000000D+00 0.000000000000D+00 0.591651651667D-04 0.000000000000D+00  7 -2 2 24 -11 11 -24 21 0 0.13085390D+00 0.18174402D+00 0.40143280D+05 0.40143280D+05 0.40143280D+05 0.11557786D+01  1  2  2  1  7  1       -2 0.250079285309D-02 0.100000000000D+01
0.254448855489D-03 0.000000000000D+00 -.817409730826D-05 0.591651651667D-04 0.000000000000D+00  7 -2 2 24 -11 11 -24 21 2 0.13085390D+00 0.18174402D+00 0.40143280D+05 0.40143280D+05 0.40143280D+05 0.11557786D+01  1  2  3  1  7  1       -2 0.399345444141D-03 0.100000000000D+01
0.131236918647D-03 0.000000000000D+00 0.000000000000D+00 0.591651651667D-04 0.000000000000D+00  7 -2 2 24 -11 11 -24 21 2 0.13085390D+00 0.18174402D+00 0.40143280D+05 0.40143280D+05 0.40143280D+05 0.11557786D+01  1  2 15  1  7  1       -2 0.205970136766D-03 0.100000000000D+01
  </mgrwgt>
  </event>
  <event>
  8     66 0.27011060E-05 0.15145319E+03 0.75467711E-02 0.95846963E-01
       -2 -1    0    0    0  501 0.00000000E+00 0.00000000E+00 0.53625168E+02 0.53626123E+02 0.32000000E+00 0.0000E+00 0.9000E+01
        2 -1    0    0  501    0 0.00000000E+00 0.00000000E+00 -.16629610E+04 0.16629610E+04 0.32000000E+00 0.0000E+00 0.9000E+01
       25  2    1    2    0    0 0.38365191E+01 -.92126045E+02 -.15326469E+04 0.15643097E+04 0.29925933E+03 0.0000E+00 0.0000E+00
       23  2    1    2    0    0 -.38365191E+01 0.92126045E+02 -.76688905E+02 0.15227750E+03 0.93836683E+02 0.0000E+00 0.0000E+00
       24  1    3    3    0    0 0.32224783E+02 -.83188149E+02 -.23576580E+03 0.26459673E+03 0.80419002E+02 0.0000E+00 0.9000E+01
      -13  1    4    4    0    0 -.17176137E+02 0.51502957E+02 0.10381389E+02 0.55275298E+02 0.10565837E+00 0.0000E+00 0.9000E+01
       13  1    4    4    0    0 0.13339617E+02 0.40623088E+02 -.87070294E+02 0.97002206E+02 0.10565837E+00 0.0000E+00 0.9000E+01
      -24  1    3    3    0    0 -.28388264E+02 -.89378962E+01 -.12968811E+04 0.12997129E+04 0.80419002E+02 0.0000E+00 0.9000E+01
#aMCatNLO 1  0  0  1  2 0.39860440D+03 0.00000000D+00  -5  7  0 0.00000000D+00 0.00000000D+00 0.00000000D+00 0.00000000D+00 0.00000000D+00
  <mgrwgt>
 0.1185504338D-02    3    2    0
 0.298625867219055D+03 0.000000000000000D+00 0.000000000000000D+00 0.298625867219055D+03
 0.298625867219055D+03 0.000000000000000D+00 0.000000000000000D+00 -.298625867219055D+03
 0.125201829237600D+03 0.322247834023584D+02 -.831881490076832D+02 0.353493605234543D+02
 0.186842682346098D+03 -.171761742323087D+02 0.515029732147106D+02 0.178780901482991D+03
 0.441811823463852D+02 0.133396550424479D+02 0.406230728720636D+02 0.111263842870918D+02
 0.241026040508027D+03 -.283882642124976D+02 -.893789707909105D+01 -.225256646293537D+03
 0.000000000000000D+00 -.000000000000000D+00 -.000000000000000D+00 -.000000000000000D+00
 0.520166382874808D+03 0.000000000000000D+00 0.000000000000000D+00 0.520166382874808D+03
 0.605524487508984D+03 0.000000000000000D+00 0.000000000000000D+00 -.605524487508984D+03
 0.160258669204214D+03 0.116916546030631D+03 -.655482194692229D+02 0.353493605234543D+02
 0.220419168904891D+03 0.103652186335871D+03 0.766695738441657D+02 0.178780901482991D+03
 0.673611976872531D+02 0.464325727118502D+02 0.475157944047649D+02 0.111263842870918D+02
 0.270010477822264D+03 0.123228452429753D+03 0.226414220355775D+02 -.225256646293537D+03
 0.407641356765170D+03 -.390229757508105D+03 -.812785708152852D+02 -.853581046341756D+02
0.101208669238D-04 0.000000000000D+00 0.000000000000D+00 0.171157047964D-06 0.000000000000D+00  7 -2 2 24 -13 13 -24 21 0 0.82501016D-02 0.25584023D+00 0.22938070D+05 0.22938070D+05 0.22938070D+05 0.11783079D+01  1  2  2  1  7  1       -2 0.113081989259D-02 0.100000000000D+01
-.247163870812D-06 0.000000000000D+00 -.388667938729D-07 0.171157047964D-06 0.000000000000D+00  7 -2 2 24 -13 13 -24 21 2 0.82501016D-02 0.25584023D+00 0.22938070D+05 0.22938070D+05 0.22938070D+05 0.11783079D+01  1  2  3  1  7  1       -2 -.383423145987D-04 0.100000000000D+01
0.599673087416D-06 0.000000000000D+00 0.000000000000D+00 0.171157047964D-06 0.000000000000D+00  7 -2 2 24 -13 13 -24 21 2 0.82501016D-02 0.25584023D+00 0.22938070D+05 0.22938070D+05 0.22938070D+05 0.11783079D+01  1  2 15  1  7  1       -2 0.930267603371D-04 0.100000000000D+01
  </mgrwgt>
  </event>
  <event>
  8     66 0.27011060E-05 0.23900530E+03 0.75467711E-02 0.10083147E+00
       -2 -1    0    0    0  501 0.00000000E+00 0.00000000E+00 0.17770873E+03 0.17770902E+03 0.32000000E+00 0.0000E+00 0.9000E+01
        2 -1    0    0  501    0 0.00000000E+00 0.00000000E+00 -.33199831E+03 0.33199847E+03 0.32000000E+00 0.0000E+00 0.9000E+01
       25  2    1    2    0    0 0.12209197E+03 0.45107230E+02 -.88400877E+02 0.33920619E+03 0.30050793E+03 0.0000E+00 0.0000E+00
       23  2    1    2    0    0 -.12209197E+03 -.45107230E+02 -.65888709E+02 0.17050129E+03 0.88251100E+02 0.0000E+00 0.0000E+00
       24  1    3    3    0    0 -.26994001E+02 0.11453698E+03 -.20724073E+02 0.14402812E+03 0.80419002E+02 0.0000E+00 0.9000E+01
      -13  1    4    4    0    0 0.11442730E+02 -.75029324E+01 0.51764195E+01 0.14629988E+02 0.10565837E+00 0.0000E+00 0.9000E+01
       13  1    4    4    0    0 -.13353470E+03 -.37604298E+02 -.71065129E+02 0.15587130E+03 0.10565837E+00 0.0000E+00 0.9000E+01
      -24  1    3    3    0    0 0.14908597E+03 -.69429749E+02 -.67676804E+02 0.19517808E+03 0.80419002E+02 0.0000E+00 0.9000E+01
#aMCatNLO 1  0  0  2  2 0.10852611D+03 0.00000000D+00  -5  7  0 0.00000000D+00 0.00000000D+00 0.00000000D+00 0.00000000D+00 0.00000000D+00
  <mgrwgt>
 0.7420020380D-03    7    2    0
 0.242897325083950D+03 0.000000000000000D+00 0.000000000000000D+00 0.242897325083950D+03
 0.242897325083950D+03 0.000000000000000D+00 0.000000000000000D+00 -.242897325083950D+03
 0.144535760775966D+03 -.269939942184417D+02 0.114536976491249D+03 0.239994891840369D+02
 0.169940015059334D+02 0.114429362340188D+02 -.750288941712649D+01 0.100777947946075D+02
 0.140973656773394D+03 -.133534910829429D+03 -.376043436158451D+02 -.250581889820570D+02
 0.183291231112607D+03 0.149085968813852D+03 -.694297434582771D+02 -.901909499658741D+01
 0.000000000000000D+00 -.000000000000000D+00 0.000000000000000D+00 -.000000000000000D+00
 0.302102788469320D+03 0.000000000000000D+00 0.000000000000000D+00 0.302102788469320D+03
 0.304213221907957D+03 0.000000000000000D+00 0.000000000000000D+00 -.304213221907957D+03
 0.122694825462723D+03 -.130745237966721D+02 0.885431284027906D+02 0.239994891840369D+02
 0.200972887455532D+02 0.133749423147138D+02 -.111108048798456D+02 0.100777947946075D+02
 0.137771883610168D+03 -.119015651042664D+03 -.647182654690630D+02 -.250581889820570D+02
 0.217205385070421D+03 0.169946982073761D+03 -.108386542331983D+03 -.901909499658741D+01
 0.108546627488412D+03 -.512317495491387D+02 0.956724842781009D+02 -.211043343863770D+01
0.537221692731D-05 0.000000000000D+00 0.000000000000D+00 0.609703473211D-07 0.000000000000D+00  7 -2 2 24 -13 13 -24 21 0 0.27339838D-01 0.51076698D-01 0.57123535D+05 0.57123535D+05 0.57123535D+05 0.11422419D+01  1  2  2  2  7  2        2 0.736560581308D-03 0.100000000000D+01
-.298361812709D-06 0.000000000000D+00 -.206307275381D-07 0.609703473211D-07 0.000000000000D+00  7 -2 2 24 -13 13 -24 21 2 0.27339838D-01 0.51076698D-01 0.57123535D+05 0.57123535D+05 0.57123535D+05 0.11422419D+01  1  2  3  2  7  2        2 -.533721023924D-04 0.100000000000D+01
0.346572163032D-06 0.000000000000D+00 0.000000000000D+00 0.609703473211D-07 0.000000000000D+00  7 -2 2 24 -13 13 -24 21 2 0.27339838D-01 0.51076698D-01 0.57123535D+05 0.57123535D+05 0.57123535D+05 0.11422419D+01  1  2 15  2  7  2        2 0.619961542790D-04 0.100000000000D+01
-.220092852081D-05 0.000000000000D+00 0.000000000000D+00 0.609703473211D-07 0.000000000000D+00  7 -2 2 24 -13 13 -24 21 2 0.27339838D-01 0.51076698D-01 0.57123535D+05 0.57123535D+05 0.57123535D+05 0.11422419D+01  1  2  4  2  7  2        2 -.393710513100D-03 0.100000000000D+01
-.455234689583D-05 0.000000000000D+00 -.233803674486D-05 0.609703473211D-07 0.000000000000D+00  7 -2 2 24 -13 13 -24 21 2 0.27339838D-01 0.77466796D-01 0.57123535D+05 0.57123535D+05 0.57123535D+05 0.11422419D+01  1  2  5  2  7  2        2 -.517717914125D-03 0.100000000000D+01
0.525300893180D-05 0.000000000000D+00 0.214891844995D-05 0.609703473211D-07 0.000000000000D+00  7 -2 2 24 -13 13 -24 21 2 0.27339838D-01 0.51076698D-01 0.57123535D+05 0.57123535D+05 0.57123535D+05 0.11422419D+01  1  2  6  2  7  2        2 0.939678332259D-03 0.100000000000D+01
-.139008881297D-06 0.000000000000D+00 -.114660722304D-06 0.609703473211D-07 0.000000000000D+00  7 -2 21 24 -13 13 -24 -2 2 0.27339838D-01 0.77466796D-01 0.57123535D+05 0.57123535D+05 0.57123535D+05 0.11422419D+01  1  2  5  4  7  2        2 -.314325002769D-04 0.100000000000D+01
  </mgrwgt>
  </event>
  <event>
  9     66 0.27011060E-05 0.23423379E+03 0.75467711E-02 0.10179732E+00
       21 -1    0    0  502  501 0.00000000E+00 0.00000000E+00 0.68741411E+03 0.68741452E+03 0.75000000E+00 0.0000E+00 0.9000E+01
        2 -1    0    0  501    0 0.00000000E+00 0.00000000E+00 -.18949513E+03 0.18949540E+03 0.32000000E+00 0.0000E+00 0.9000E+01
       25  2    1    2    0    0 0.70680388E+02 -.13370044E+03 0.18766690E+03 0.38441029E+03 0.29946766E+03 0.0000E+00 0.0000E+00
       23  2    1    2    0    0 -.13387546E+03 0.19490720E+03 0.31504158E+03 0.40439216E+03 0.91489713E+02 0.0000E+00 0.0000E+00
       24  1    3    3    0    0 0.24430298E+02 -.99042007E+02 0.23962991E+03 0.27257269E+03 0.80419002E+02 0.0000E+00 0.9000E+01
      -13  1    4    4    0    0 -.11355184E+03 0.18339145E+03 0.31407664E+03 0.38101259E+03 0.10565837E+00 0.0000E+00 0.9000E+01
       13  1    4    4    0    0 -.20323621E+02 0.11515753E+02 0.96493512E+00 0.23379572E+02 0.10565837E+00 0.0000E+00 0.9000E+01
      -24  1    3    3    0    0 0.46250091E+02 -.34658433E+02 -.51963013E+02 0.11183760E+03 0.80419002E+02 0.0000E+00 0.9000E+01
        2  1    1    2  502    0 0.63195070E+02 -.61206761E+02 -.47895040E+01 0.88107470E+02 0.32000000E+00 0.0000E+00 0.9000E+01
#aMCatNLO 2  0  0  1  2 0.87976613D+02 0.00000000D+00  -5  7  0 0.00000000D+00 0.00000000D+00 0.00000000D+00 0.00000000D+00 0.00000000D+00
  <mgrwgt>
 0.1644699546D-03    1    2    0
 0.300729778802366D+03 0.000000000000000D+00 0.000000000000000D+00 0.300729778802366D+03
 0.300729778802366D+03 0.000000000000000D+00 0.000000000000000D+00 -.300729778802366D+03
 0.169833411006809D+03 0.414328613195179D+02 -.115509618273623D+03 0.855395676222217D+02
 0.206587624136091D+03 -.904925618620398D+02 0.161057795609521D+03 0.924658270240503D+02
 0.265478253803579D+02 -.173924925344446D+02 0.867673821025445D+01 -.180832090596768D+02
 0.198490697081475D+03 0.664521930769665D+02 -.542249155461520D+02 -.159922185586595D+03
 0.000000000000000D+00 0.000000000000000D+00 -.000000000000000D+00 -.000000000000000D+00
 0.323536797730234D+03 0.000000000000000D+00 0.000000000000000D+00 0.323536797730234D+03
 0.402618054888922D+03 0.000000000000000D+00 0.000000000000000D+00 -.402618054888922D+03
 0.155532608237320D+03 0.244302978421899D+02 -.990420071943138D+02 0.855395676222217D+02
 0.234683797028432D+03 -.113551962368923D+03 0.183391677190126D+03 0.924658270240503D+02
 0.295407218662701D+02 -.203234964761818D+02 0.115155238468329D+02 -.180832090596768D+02
 0.188102629639189D+03 0.462500908637432D+02 -.346584329580750D+02 -.159922185586595D+03
 0.118295095847944D+03 0.631950701391715D+02 -.612067608845701D+02 -.790812571586880D+02
0.809015193729D-06 0.000000000000D+00 0.000000000000D+00 0.102970525529D-05 0.158251733759D-10  7 21 2 24 -13 13 -24 2 2 0.10575600D+00 0.29153131D-01 0.77274632D+05 0.77274632D+05 0.77274632D+05 0.11310274D+01  1  2  1  3  7  1       -2 0.164469954574D-03 0.100000000000D+01
  </mgrwgt>
  </event>
  <event>
  8     66 0.27011060E-05 0.84374811E+02 0.75467711E-02 0.10622332E+00
       -2 -1    0    0    0  501 0.00000000E+00 0.00000000E+00 0.54259010E+02 0.54259953E+02 0.32000000E+00 0.0000E+00 0.9000E+01
        2 -1    0    0  501    0 0.00000000E+00 0.00000000E+00 -.19443753E+04 0.19443753E+04 0.32000000E+00 0.0000E+00 0.9000E+01
       25  2    1    2    0    0 -.10690125E+03 -.66590153E+02 -.48104505E+03 0.58108222E+03 0.30064942E+03 0.0000E+00 0.0000E+00
       23  2    1    2    0    0 0.10690125E+03 0.66590153E+02 -.14090712E+04 0.14175531E+04 0.90071177E+02 0.0000E+00 0.0000E+00
       24  1    3    3    0    0 0.72042026E+01 0.21111688E+02 -.37701971E+03 0.38614593E+03 0.80419002E+02 0.0000E+00 0.9000E+01
      -13  1    4    4    0    0 0.75779516E+02 0.66988080E+02 -.64802804E+03 0.65587369E+03 0.10565837E+00 0.0000E+00 0.9000E+01
       13  1    4    4    0    0 0.31121730E+02 -.39792744E+00 -.76104321E+03 0.76167939E+03 0.10565837E+00 0.0000E+00 0.9000E+01
      -24  1    3    3    0    0 -.11410545E+03 -.87701841E+02 -.10402535E+03 0.19493628E+03 0.80419002E+02 0.0000E+00 0.9000E+01
#aMCatNLO 1  0  0  2  1 0.23485026D+02 0.00000000D+00  -5  7  0 0.00000000D+00 0.00000000D+00 0.00000000D+00 0.00000000D+00 0.00000000D+00
  <mgrwgt>
 0.1146856270D-02    9    2    0
 0.324808940845863D+03 0.000000000000000D+00 0.000000000000000D+00 0.324808940845863D+03
 0.324808940845863D+03 0.000000000000000D+00 0.000000000000000D+00 -.324808940845863D+03
 0.910593604084886D+02 0.720420222115712D+01 0.211116875310947D+02 -.364278366579541D+02
 0.132391572115082D+03 0.757795773345463D+02 0.669881728874376D+02 -.854258082742166D+02
 0.129089944696419D+03 0.311216686335252D+02 -.398019867570390D+00 -.125281671218797D+03
 0.297077004471737D+03 -.114105448189229D+03 -.877018405509619D+02 0.247135316150967D+03
 0.000000000000000D+00 0.000000000000000D+00 -.000000000000000D+00 -.000000000000000D+00
 0.336755446718474D+03 0.000000000000000D+00 0.000000000000000D+00 0.336755446718474D+03
 0.336771843852547D+03 0.000000000000000D+00 0.000000000000000D+00 -.336771843852547D+03
 0.911807359792771D+02 0.417837462027967D+01 0.224112596992255D+02 -.364278366579541D+02
 0.130916532690319D+03 0.714077352051410D+02 0.688658490488914D+02 -.854258082742166D+02
 0.128134800865625D+03 0.268508316981988D+02 0.143627525689919D+01 -.125281671218797D+03
 0.299810189588641D+03 -.124015878342619D+03 -.834453788814948D+02 0.247135316150967D+03
 0.234850314471584D+02 0.215789368190000D+02 -.926800512352129D+01 -.163971340727439D-01
0.487258504251D-05 0.000000000000D+00 0.000000000000D+00 0.464333348501D-06 0.000000000000D+00  7 -2 2 24 -13 13 -24 21 0 0.83476145D-02 0.29913474D+00 0.36210886D+05 0.36210886D+05 0.36210886D+05 0.11598291D+01  1  2  2  2  7  2        2 0.379526589293D-03 0.100000000000D+01
-.176606528849D-06 0.000000000000D+00 -.187120095443D-07 0.464333348501D-06 0.000000000000D+00  7 -2 2 24 -13 13 -24 21 2 0.83476145D-02 0.29913474D+00 0.36210886D+05 0.36210886D+05 0.36210886D+05 0.11598291D+01  1  2  3  2  7  2        2 -.185045071664D-04 0.100000000000D+01
0.308738846275D-06 0.000000000000D+00 0.000000000000D+00 0.464333348501D-06 0.000000000000D+00  7 -2 2 24 -13 13 -24 21 2 0.83476145D-02 0.29913474D+00 0.36210886D+05 0.36210886D+05 0.36210886D+05 0.11598291D+01  1  2 15  2  7  2        2 0.323490882850D-04 0.100000000000D+01
0.100206837292D-04 0.000000000000D+00 0.000000000000D+00 0.464333348501D-06 0.000000000000D+00  7 -2 2 24 -13 13 -24 21 2 0.83476145D-02 0.31545421D+00 0.40582661D+05 0.40582661D+05 0.40582661D+05 0.11553535D+01  1  2 12  2  7  2        2 0.913940343931D-03 0.100000000000D+01
-.769490056109D-05 0.000000000000D+00 0.000000000000D+00 0.464333348501D-06 0.000000000000D+00  7 -2 2 24 -13 13 -24 21 2 0.83476145D-02 0.29913474D+00 0.36210886D+05 0.36210886D+05 0.36210886D+05 0.11598291D+01  1  2  4  2  7  2        2 -.806257523463D-03 0.100000000000D+01
-.460237742256D-04 0.000000000000D+00 -.914862193492D-05 0.464333348501D-06 0.000000000000D+00  7 -2 2 24 -13 13 -24 21 2 0.83476145D-02 0.31610511D+00 0.36210886D+05 0.36210886D+05 0.36210886D+05 0.11598291D+01  1  2  5  2  7  2        2 -.421721480036D-02 0.100000000000D+01
0.464717430947D-04 0.000000000000D+00 0.913471122932D-05 0.464333348501D-06 0.000000000000D+00  7 -2 2 24 -13 13 -24 21 2 0.83476145D-02 0.29913474D+00 0.36210886D+05 0.36210886D+05 0.36210886D+05 0.11598291D+01  1  2  6  2  7  2        2 0.486922374124D-02 0.100000000000D+01
0.109700312353D-06 0.000000000000D+00 0.000000000000D+00 0.464333348501D-06 0.000000000000D+00  7 -2 21 24 -13 13 -24 -2 2 0.83476145D-02 0.31545421D+00 0.40582661D+05 0.40582661D+05 0.40582661D+05 0.11553535D+01  1  2 12  4  7  2        2 0.210908434601D-05 0.100000000000D+01
-.429410257650D-06 0.000000000000D+00 -.872944795027D-07 0.464333348501D-06 0.000000000000D+00  7 -2 21 24 -13 13 -24 -2 2 0.83476145D-02 0.31610511D+00 0.36210886D+05 0.36210886D+05 0.36210886D+05 0.11598291D+01  1  2  5  4  7  2        2 -.831574645716D-05 0.100000000000D+01
  </mgrwgt>
  </event>
  <event>
  8     66 0.27011060E-05 0.24065843E+03 0.75467711E-02 0.92706655E-01
       -2 -1    0    0    0  501 0.00000000E+00 0.00000000E+00 0.32845027E+03 0.32845043E+03 0.32000000E+00 0.0000E+00 0.9000E+01
        2 -1    0    0  501    0 0.00000000E+00 0.00000000E+00 -.22703798E+04 0.22703798E+04 0.32000000E+00 0.0000E+00 0.9000E+01
       25  2    1    2    0    0 0.14696357E+03 -.13480353E+03 0.22339504E+03 0.42296059E+03 0.29869722E+03 0.0000E+00 0.0000E+00
       23  2    1    2    0    0 -.14696357E+03 0.13480353E+03 -.21653246E+04 0.21758696E+04 0.77511286E+02 0.0000E+00 0.0000E+00
       24  1    3    3    0    0 0.35123556E+02 -.23460747E+02 -.45012996E+02 0.10137779E+03 0.80419002E+02 0.0000E+00 0.9000E+01
      -13  1    4    4    0    0 -.35554755E+02 -.35408676E+01 -.30565499E+03 0.30773635E+03 0.10565837E+00 0.0000E+00 0.9000E+01
       13  1    4    4    0    0 -.11140881E+03 0.13834440E+03 -.18596696E+04 0.18681333E+04 0.10565837E+00 0.0000E+00 0.9000E+01
      -24  1    3    3    0    0 0.11184001E+03 -.11134278E+03 0.26840804E+03 0.32158280E+03 0.80419002E+02 0.0000E+00 0.9000E+01
#aMCatNLO 1  0  0  2  2 0.49508904D+03 0.00000000D+00  -5  7  0 0.00000000D+00 0.00000000D+00 0.00000000D+00 0.00000000D+00 0.00000000D+00
  <mgrwgt>
 0.5136505977D-02    4    2    0
 0.863543329701279D+03 0.000000000000000D+00 0.000000000000000D+00 0.863543329701279D+03
 0.863543329701279D+03 0.000000000000000D+00 0.000000000000000D+00 -.863543329701279D+03
 0.101935593570926D+03 0.351235555454050D+02 -.234607473053846D+02 0.462555776529513D+02
 0.119387269165529D+03 -.355546142523283D+02 -.354113117468640D+01 -.113915099236995D+03
 0.720065772234286D+03 -.111408954242516D+03 0.138344662502203D+03 -.697813381653791D+03
 0.785698024431817D+03 0.111840012949440D+03 -.111342784022132D+03 0.765472903237834D+03
 0.000000000000000D+00 -.000000000000000D+00 -.000000000000000D+00 0.000000000000000D+00
 0.130216784198738D+04 0.000000000000000D+00 0.000000000000000D+00 0.130216784198738D+04
 0.105006109736122D+04 0.000000000000000D+00 0.000000000000000D+00 -.105006109736122D+04
 0.103011997125453D+03 0.446184655220847D+02 0.372420029671177D+01 0.462555776529513D+02
 0.119876686018057D+03 -.244698793334482D+02 0.281956560821694D+02 -.113915099236995D+03
 0.775976754447937D+03 -.420995807394337D+02 0.336784846942403D+03 -.697813381653791D+03
 0.797781853009867D+03 0.185200225846338D+03 0.986953889125194D+02 0.765472903237834D+03
 0.555581648747285D+03 -.163249231295541D+03 -.467400092233804D+03 0.252106744626158D+03
0.217132638686D-02 0.000000000000D+00 0.000000000000D+00 0.332619212955D-07 0.000000000000D+00  7 -2 2 24 -13 13 -24 21 0 0.50530824D-01 0.34928921D+00 0.57916482D+05 0.57916482D+05 0.57916482D+05 0.11417227D+01  1  2  2  2  7  2        2 0.548842918227D-02 0.100000000000D+01
0.118795148549D-03 0.000000000000D+00 -.833846504892D-05 0.332619212955D-07 0.000000000000D+00  7 -2 2 24 -13 13 -24 21 2 0.50530824D-01 0.34928921D+00 0.57916482D+05 0.57916482D+05 0.57916482D+05 0.11417227D+01  1  2  3  2  7  2        2 0.391419934657D-03 0.100000000000D+01
0.132126862910D-03 0.000000000000D+00 0.000000000000D+00 0.332619212955D-07 0.000000000000D+00  7 -2 2 24 -13 13 -24 21 2 0.50530824D-01 0.34928921D+00 0.57916482D+05 0.57916482D+05 0.57916482D+05 0.11417227D+01  1  2 15  2  7  2        2 0.435346802275D-03 0.100000000000D+01
-.357729983465D-03 0.000000000000D+00 0.000000000000D+00 0.332619212955D-07 0.000000000000D+00  7 -2 2 24 -13 13 -24 21 2 0.50530824D-01 0.34928921D+00 0.57916482D+05 0.57916482D+05 0.57916482D+05 0.11417227D+01  1  2  4  2  7  2        2 -.117868994199D-02 0.100000000000D+01
  </mgrwgt>
  </event>
  <event>
  8     66 0.27011060E-05 0.17385481E+03 0.75467711E-02 0.93355287E-01
       -2 -1    0    0    0  501 0.00000000E+00 0.00000000E+00 0.72026522E+02 0.72027233E+02 0.32000000E+00 0.0000E+00 0.9000E+01
        2 -1    0    0  501    0 0.00000000E+00 0.00000000E+00 -.92692084E+03 0.92692089E+03 0.32000000E+00 0.0000E+00 0.9000E+01
       25  2    1    2    0    0 0.62509108E+02 0.10805938E+03 -.38274463E+03 0.50171146E+03 0.29939392E+03 0.0000E+00 0.0000E+00
       23  2    1    2    0    0 -.62509108E+02 -.10805938E+03 -.47214969E+03 0.49723667E+03 0.93459929E+02 0.0000E+00 0.0000E+00
       24  1    3    3    0    0 0.34679727E+02 0.80944122E+01 0.91371829E+01 0.88424584E+02 0.80419002E+02 0.0000E+00 0.9000E+01
      -13  1    4    4    0    0 0.21147661E+01 -.15187296E+02 -.22383943E+03 0.22436406E+03 0.10565837E+00 0.0000E+00 0.9000E+01
       13  1    4    4    0    0 -.64623874E+02 -.92872088E+02 -.24831026E+03 0.27287262E+03 0.10565837E+00 0.0000E+00 0.9000E+01
      -24  1    3    3    0    0 0.27829381E+02 0.99964972E+02 -.39188181E+03 0.41328687E+03 0.80419002E+02 0.0000E+00 0.9000E+01
#aMCatNLO 1  0  0  1  2 0.50534273D+03 0.00000000D+00  -5  7  0 0.00000000D+00 0.00000000D+00 0.00000000D+00 0.00000000D+00 0.00000000D+00
  <mgrwgt>
 0.9742822110D-03    5    2    0
 0.258385887759114D+03 0.000000000000000D+00 0.000000000000000D+00 0.258385887759114D+03
 0.258385887759114D+03 0.000000000000000D+00 0.000000000000000D+00 -.258385887759114D+03
 0.186045181327058D+03 0.346797282626460D+02 0.809441484532119D+01 0.163943253708679D+03
 0.634108886035270D+02 0.211484776055253D+01 -.151872010614044D+02 -.615289942739118D+02
 0.116698704863461D+03 -.646239580358286D+02 -.928721869409989D+02 -.285847626785480D+02
 0.150617000724182D+03 0.278293820126300D+02 0.999649731570821D+02 -.738294967562188D+02
 0.000000000000000D+00 0.000000000000000D+00 -.000000000000000D+00 0.000000000000000D+00
 0.105666691735716D+04 0.000000000000000D+00 0.000000000000000D+00 0.105666691735716D+04
 0.453218833943542D+03 0.000000000000000D+00 0.000000000000000D+00 -.453218833943542D+03
 0.245007557327435D+03 -.759823910331795D+02 0.144605577380260D+03 0.163943253708679D+03
 0.758513307360672D+02 -.336372794108566D+02 0.289160971071330D+02 -.615289942739118D+02
 0.132468072144353D+03 -.128591359537241D+03 -.139629414027530D+02 -.285847626785480D+02
 0.269462316628923D+03 -.800155830274817D+02 0.233000935642222D+03 -.738294967562188D+02
 0.787096474463922D+03 0.318226613008758D+03 -.392559668726862D+03 0.603448083413616D+03
0.472536290194D-05 0.000000000000D+00 0.000000000000D+00 0.947485709871D-07 0.000000000000D+00  7 -2 2 24 -13 13 -24 21 0 0.11081062D-01 0.14260326D+00 0.30225496D+05 0.30225496D+05 0.30225496D+05 0.11670343D+01  1  2  2  1  7  1       -2 0.856258717755D-03 0.100000000000D+01
-.212407578802D-06 0.000000000000D+00 -.181466377601D-07 0.947485709871D-07 0.000000000000D+00  7 -2 2 24 -13 13 -24 21 2 0.11081062D-01 0.14260326D+00 0.30225496D+05 0.30225496D+05 0.30225496D+05 0.11670343D+01  1  2  3  1  7  1       -2 -.524212152572D-04 0.100000000000D+01
0.293221947883D-06 0.000000000000D+00 0.000000000000D+00 0.947485709871D-07 0.000000000000D+00  7 -2 2 24 -13 13 -24 21 2 0.11081062D-01 0.14260326D+00 0.30225496D+05 0.30225496D+05 0.30225496D+05 0.11670343D+01  1  2 15  1  7  1       -2 0.723658305171D-04 0.100000000000D+01
0.423773250695D-05 0.000000000000D+00 -.247472232720D-05 0.947485709871D-07 0.000000000000D+00  7 -2 2 24 -13 13 -24 21 2 0.77229707D-01 0.14260326D+00 0.30225496D+05 0.30225496D+05 0.30225496D+05 0.11670343D+01  1  2  5  1  7  1       -2 0.338143568547D-04 0.100000000000D+01
0.775063137984D-06 0.000000000000D+00 -.587403798758D-06 0.947485709871D-07 0.000000000000D+00  7 21 2 24 -13 13 -24 2 2 0.77229707D-01 0.14260326D+00 0.30225496D+05 0.30225496D+05 0.30225496D+05 0.11670343D+01  1  2  5  3  7  1       -2 0.642645211755D-04 0.100000000000D+01
  </mgrwgt>
  </event>
  <event>
  8     66 0.27011060E-05 0.12977342E+03 0.75467711E-02 0.10237030E+00
       -2 -1    0    0    0  501 0.00000000E+00 0.00000000E+00 0.92724231E+02 0.92724783E+02 0.32000000E+00 0.0000E+00 0.9000E+01
        2 -1    0    0  501    0 0.00000000E+00 0.00000000E+00 -.52469723E+03 0.52469733E+03 0.32000000E+00 0.0000E+00 0.9000E+01
       25  2    1    2    0    0 0.84407559E+01 -.27355495E+02 -.42403433E+03 0.52028797E+03 0.30012479E+03 0.0000E+00 0.0000E+00
       23  2    1    2    0    0 -.84407559E+01 0.27355495E+02 -.79386645E+01 0.97134135E+02 0.92479448E+02 0.0000E+00 0.0000E+00
       24  1    3    3    0    0 0.19715874E+01 0.10867833E+03 -.25609766E+03 0.28959989E+03 0.80419002E+02 0.0000E+00 0.9000E+01
      -13  1    4    4    0    0 -.33947383E+01 0.55153501E+02 -.28516265E+02 0.62182164E+02 0.10565837E+00 0.0000E+00 0.9000E+01
       13  1    4    4    0    0 -.50460176E+01 -.27798007E+02 0.20577601E+02 0.34951971E+02 0.10565837E+00 0.0000E+00 0.9000E+01
      -24  1    3    3    0    0 0.64691685E+01 -.13603383E+03 -.16793667E+03 0.23068809E+03 0.80419002E+02 0.0000E+00 0.9000E+01
#aMCatNLO 1  0  0  2  1 0.13324723D+03 0.00000000D+00  -5  7  0 0.00000000D+00 0.00000000D+00 0.00000000D+00 0.00000000D+00 0.00000000D+00
  <mgrwgt>
 0.6142193279D-03    9    2    0
 0.220572772070999D+03 0.000000000000000D+00 0.000000000000000D+00 0.220572772070999D+03
 0.220572772070999D+03 0.000000000000000D+00 0.000000000000000D+00 -.220572772070999D+03
 0.154547853664156D+03 0.197158860252256D+01 0.108678319750314D+03 -.748529142549429D+02
 0.591060752135234D+02 -.339473721006095D+01 0.551536079992840D+02 0.209781651028547D+02
 0.690681251605624D+02 -.504602083431436D+01 -.277981063594036D+02 0.630254620749905D+02
 0.158423490103756D+03 0.646916944185274D+01 -.136033821390195D+03 -.915071292290227D+01
 0.000000000000000D+00 -.000000000000000D+00 -.000000000000000D+00 -.000000000000000D+00
 0.266848115270215D+03 0.000000000000000D+00 0.000000000000000D+00 0.266848115270215D+03
 0.352246475184015D+03 0.000000000000000D+00 0.000000000000000D+00 -.352246475184015D+03
 0.165572477014552D+03 0.489871526965995D+02 0.113773148363689D+03 -.748529142549429D+02
 0.625187902458977D+02 0.144681134414963D+02 0.570893108749083D+02 0.209781651028547D+02
 0.697301720696802D+02 0.153390644420306D+02 -.255890822255190D+02 0.630254620749905D+02
 0.163008482274756D+03 0.536773722673553D+02 -.130918117533912D+03 -.915071292290227D+01
 0.158264668849344D+03 -.132471702847482D+03 -.143552594791670D+02 -.853983599137996D+02
0.293983071142D-05 0.000000000000D+00 0.000000000000D+00 0.229864614339D-06 0.000000000000D+00  7 -2 2 24 -13 13 -24 21 0 0.14265316D-01 0.80722701D-01 0.35509747D+05 0.35509747D+05 0.35509747D+05 0.11606022D+01  1  2  2  2  7  2        2 0.708032902311D-03 0.100000000000D+01
-.158401301260D-06 0.000000000000D+00 -.112897240071D-07 0.229864614339D-06 0.000000000000D+00  7 -2 2 24 -13 13 -24 21 2 0.14265316D-01 0.80722701D-01 0.35509747D+05 0.35509747D+05 0.35509747D+05 0.11606022D+01  1  2  3  2  7  2        2 -.513874015071D-04 0.100000000000D+01
0.170175596589D-06 0.000000000000D+00 0.000000000000D+00 0.229864614339D-06 0.000000000000D+00  7 -2 2 24 -13 13 -24 21 2 0.14265316D-01 0.80722701D-01 0.35509747D+05 0.35509747D+05 0.35509747D+05 0.11606022D+01  1  2 15  2  7  2        2 0.552071330165D-04 0.100000000000D+01
0.341918853760D-06 0.000000000000D+00 0.000000000000D+00 0.229864614339D-06 0.000000000000D+00  7 -2 2 24 -13 13 -24 21 2 0.14265316D-01 0.13326353D+00 0.70866051D+05 0.70866051D+05 0.70866051D+05 0.11342059D+01  1  2 12  2  7  2        2 0.588928407378D-04 0.100000000000D+01
-.170022457261D-05 0.000000000000D+00 0.000000000000D+00 0.229864614339D-06 0.000000000000D+00  7 -2 2 24 -13 13 -24 21 2 0.14265316D-01 0.80722701D-01 0.35509747D+05 0.35509747D+05 0.35509747D+05 0.11606022D+01  1  2  4  2  7  2        2 -.551574526662D-03 0.100000000000D+01
-.163016090047D-05 0.000000000000D+00 -.102034583237D-05 0.229864614339D-06 0.000000000000D+00  7 -2 2 24 -13 13 -24 21 2 0.14265316D-01 0.14694372D+00 0.35509747D+05 0.35509747D+05 0.35509747D+05 0.11606022D+01  1  2  5  2  7  2        2 -.258539105029D-03 0.100000000000D+01
0.202605092067D-05 0.000000000000D+00 0.861161708152D-06 0.229864614339D-06 0.000000000000D+00  7 -2 2 24 -13 13 -24 21 2 0.14265316D-01 0.80722701D-01 0.35509747D+05 0.35509747D+05 0.35509747D+05 0.11606022D+01  1  2  6  2  7  2        2 0.657276747768D-03 0.100000000000D+01
0.193182635842D-07 0.000000000000D+00 0.000000000000D+00 0.229864614339D-06 0.000000000000D+00  7 -2 21 24 -13 13 -24 -2 2 0.14265316D-01 0.13326353D+00 0.70866051D+05 0.70866051D+05 0.70866051D+05 0.11342059D+01  1  2 12  4  7  2        2 0.308945719743D-05 0.100000000000D+01
-.516916539907D-07 0.000000000000D+00 -.668752637519D-07 0.229864614339D-06 0.000000000000D+00  7 -2 21 24 -13 13 -24 -2 2 0.14265316D-01 0.14694372D+00 0.35509747D+05 0.35509747D+05 0.35509747D+05 0.11606022D+01  1  2  5  4  7  2        2 -.677871990166D-05 0.100000000000D+01
  </mgrwgt>
  </event>
  <event>
  8     66 0.27011060E-05 0.32292946E+03 0.75467711E-02 0.81708229E-01
       -2 -1    0    0    0  501 0.00000000E+00 0.00000000E+00 0.32834592E+03 0.32834607E+03 0.32000000E+00 0.0000E+00 0.9000E+01
        2 -1    0    0  501    0 0.00000000E+00 0.00000000E+00 -.38590043E+03 0.38590056E+03 0.32000000E+00 0.0000E+00 0.9000E+01
       25  2    1    2    0    0 0.12554114E+03 0.25221323E+03 -.64521533E+02 0.41604529E+03 0.29926337E+03 0.0000E+00 0.0000E+00
       23  2    1    2    0    0 -.12554114E+03 -.25221323E+03 0.69670189E+01 0.29820134E+03 0.97485422E+02 0.0000E+00 0.0000E+00
       24  1    3    3    0    0 0.91831182E+02 0.36090881E+02 0.71708630E+02 0.14609881E+03 0.80419002E+02 0.0000E+00 0.9000E+01
      -11  1    4    4    0    0 -.12692630E+03 -.22548277E+03 -.20858659E+02 0.25959170E+03 0.51099893E-03 0.0000E+00 0.9000E+01
       11  1    4    4    0    0 0.13851600E+01 -.26730465E+02 0.27825678E+02 0.38609646E+02 0.51099893E-03 0.0000E+00 0.9000E+01
      -24  1    3    3    0    0 0.33709960E+02 0.21612235E+03 -.13623016E+03 0.26994649E+03 0.80419002E+02 0.0000E+00 0.9000E+01
#aMCatNLO 1  0  0  2  2 0.18194720D+04 0.00000000D+00  -5  7  0 0.00000000D+00 0.00000000D+00 0.00000000D+00 0.00000000D+00 0.00000000D+00
  <mgrwgt>
 0.9591828729D-03    5    2    0
 0.355961984088061D+03 0.000000000000000D+00 0.000000000000000D+00 0.355961984088061D+03
 0.355961984088061D+03 0.000000000000000D+00 0.000000000000000D+00 -.355961984088061D+03
 0.152372642724208D+03 0.918311817858508D+02 0.360908810009390D+02 0.837537381659989D+02
 0.258752330967923D+03 -.126926301272293D+03 -.225482769345563D+03 0.596231875535729D-01
 0.409851397735129D+02 0.138515995502057D+01 -.267304652433505D+02 0.310378034343190D+02
 0.259813854710477D+03 0.337099595314213D+02 0.216122353587975D+03 -.114851164787871D+03
 0.000000000000000D+00 -.000000000000000D+00 0.000000000000000D+00 -.000000000000000D+00
 0.137419123940702D+04 0.000000000000000D+00 0.000000000000000D+00 0.137419123940702D+04
 0.306003941618675D+04 0.000000000000000D+00 0.000000000000000D+00 -.306003941618675D+04
 0.610280562958971D+03 0.584257337177825D+03 -.132679406345699D+03 0.837537381659989D+02
 0.590089232084258D+03 0.421149527054247D+03 -.413325990144400D+03 0.596231875535729D-01
 0.137977020729514D+03 0.116936563922706D+03 -.663336492688015D+02 0.310378034343190D+02
 0.615447936250530D+03 0.598844670134695D+03 0.224325049605143D+02 -.114851164787871D+03
 0.248043590357050D+04 -.172118809828947D+04 0.589906540798387D+03 -.168584817677973D+04
0.250201330070D-04 0.000000000000D+00 0.000000000000D+00 0.330059711600D-07 0.000000000000D+00  7 -2 2 24 -11 11 -24 21 0 0.50514779D-01 0.59369319D-01 0.10428344D+06 0.10428344D+06 0.10428344D+06 0.11202303D+01  1  2  2  2  7  2        2 0.945958035728D-03 0.100000000000D+01
-.137397761154D-05 0.000000000000D+00 -.960838986992D-07 0.330059711600D-07 0.000000000000D+00  7 -2 2 24 -11 11 -24 21 2 0.50514779D-01 0.59369319D-01 0.10428344D+06 0.10428344D+06 0.10428344D+06 0.11202303D+01  1  2  3  2  7  2        2 -.651893365908D-04 0.100000000000D+01
0.160838487957D-05 0.000000000000D+00 0.000000000000D+00 0.330059711600D-07 0.000000000000D+00  7 -2 2 24 -11 11 -24 21 2 0.50514779D-01 0.59369319D-01 0.10428344D+06 0.10428344D+06 0.10428344D+06 0.11202303D+01  1  2 15  2  7  2        2 0.763109547061D-04 0.100000000000D+01
0.555012668241D-04 0.000000000000D+00 -.230553108750D-04 0.330059711600D-07 0.000000000000D+00  7 -2 2 24 -11 11 -24 21 2 0.50514779D-01 0.74029395D+00 0.10428344D+06 0.10428344D+06 0.10428344D+06 0.11202303D+01  1  2  5  2  7  2        2 0.209948874197D-05 0.100000000000D+01
0.117186127930D-04 0.000000000000D+00 -.673583663603D-05 0.330059711600D-07 0.000000000000D+00  7 -2 21 24 -11 11 -24 -2 2 0.50514779D-01 0.74029395D+00 0.10428344D+06 0.10428344D+06 0.10428344D+06 0.11202303D+01  1  2  5  4  7  2        2 0.373032312531D-08 0.100000000000D+01
  </mgrwgt>
  </event>
  <event>
  8     66 0.27011060E-05 0.29885035E+03 0.75467711E-02 0.85229793E-01
       -2 -1    0    0    0  501 0.00000000E+00 0.00000000E+00 0.15468120E+03 0.15468153E+03 0.32000000E+00 0.0000E+00 0.9000E+01
        2 -1    0    0  501    0 0.00000000E+00 0.00000000E+00 -.44005318E+04 0.44005318E+04 0.32000000E+00 0.0000E+00 0.9000E+01
       25  2    1    2    0    0 0.14867724E+03 0.16637716E+03 -.80056334E+02 0.38246318E+03 0.30013794E+03 0.0000E+00 0.0000E+00
       23  2    1    2    0    0 -.14867724E+03 -.16637716E+03 -.41657943E+04 0.41727502E+04 0.90640695E+02 0.0000E+00 0.0000E+00
       24  1    3    3    0    0 0.92882843E+02 -.52458656E+02 -.39683205E+02 0.13935963E+03 0.80419002E+02 0.0000E+00 0.9000E+01
      -13  1    4    4    0    0 -.67848703E+02 -.93696113E+02 -.13815525E+04 0.13863872E+04 0.10565837E+00 0.0000E+00 0.9000E+01
       13  1    4    4    0    0 -.80828539E+02 -.72681050E+02 -.27842418E+04 0.27863629E+04 0.10565837E+00 0.0000E+00 0.9000E+01
      -24  1    3    3    0    0 0.55794399E+02 0.21883582E+03 -.40373128E+02 0.24310355E+03 0.80419002E+02 0.0000E+00 0.9000E+01
#aMCatNLO 1  0  0  2  2 0.12116841D+04 0.00000000D+00  -5  7  0 0.00000000D+00 0.00000000D+00 0.00000000D+00 0.00000000D+00 0.00000000D+00
  <mgrwgt>
 0.9719898791D-03    3    2    0
 0.825033521427809D+03 0.000000000000000D+00 0.000000000000000D+00 0.825033521427809D+03
 0.825033521427809D+03 0.000000000000000D+00 0.000000000000000D+00 -.825033521427809D+03
 0.282609048464396D+03 0.928828431044918D+02 -.524586564993551D+02 0.249041211719446D+03
 0.272366991181651D+03 -.678486854966002D+02 -.936961416472850D+02 -.246579331660504D+03
 0.527859341781702D+03 -.808285565092000D+02 -.726810214594790D+02 -.516545930463552D+03
 0.567231661427869D+03 0.557943989013084D+02 0.218835819606119D+03 0.514084050404610D+03
 0.000000000000000D+00 0.000000000000000D+00 0.000000000000000D+00 0.000000000000000D+00
 0.656966382364963D+04 0.000000000000000D+00 0.000000000000000D+00 0.656966382364963D+04
 0.108976524262026D+04 0.000000000000000D+00 0.000000000000000D+00 -.108976524262026D+04
 0.333002504274195D+03 -.433029958786560D+02 -.201312635747878D+03 0.249041211719446D+03
 0.422308865864652D+03 -.221525162151937D+03 -.261667754832929D+03 -.246579331660504D+03
 0.734335578863597D+03 -.360051832069363D+03 -.377877919876211D+03 -.516545930463552D+03
 0.557521719669806D+03 -.193024003177904D+03 -.531279141880601D+02 0.514084050404610D+03
 0.561226039759764D+04 0.817903993277861D+03 0.893986224645078D+03 0.547989858102938D+04
0.277998959888D-02 0.000000000000D+00 0.000000000000D+00 0.181196121766D-04 0.000000000000D+00  7 -2 2 24 -13 13 -24 21 0 0.23797134D-01 0.67700492D+00 0.89311530D+05 0.89311530D+05 0.89311530D+05 0.11257730D+01  1  2  2  2  7  2        2 0.889440387742D-03 0.100000000000D+01
0.391964743709D-04 0.000000000000D+00 -.106758920478D-04 0.181196121766D-04 0.000000000000D+00  7 -2 2 24 -13 13 -24 21 2 0.23797134D-01 0.67700492D+00 0.89311530D+05 0.89311530D+05 0.89311530D+05 0.11257730D+01  1  2  3  2  7  2        2 0.158936034940D-04 0.100000000000D+01
0.164385364194D-03 0.000000000000D+00 0.000000000000D+00 0.181196121766D-04 0.000000000000D+00  7 -2 2 24 -13 13 -24 21 2 0.23797134D-01 0.67700492D+00 0.89311530D+05 0.89311530D+05 0.89311530D+05 0.11257730D+01  1  2 15  2  7  2        2 0.666558878224D-04 0.100000000000D+01
  </mgrwgt>
  </event>
  <event>
  7     66 0.27011060E-05 0.12376210E+03 0.75467711E-02 0.10601532E+00
       -2 -1    0    0    0  501 0.00000000E+00 0.00000000E+00 0.33589512E+02 0.33591037E+02 0.32000000E+00 0.0000E+00 0.9000E+01
        2 -1    0    0  501    0 0.00000000E+00 0.00000000E+00 -.22072778E+04 0.22072779E+04 0.32000000E+00 0.0000E+00 0.9000E+01
       25  2    1    2    0    0 0.86545487E+02 -.11420133E+03 -.11498621E+04 0.11983673E+04 0.30556361E+03 0.0000E+00 0.0000E+00
       24  1    3    3    0    0 0.99906150E+02 -.16202770E+02 -.18836259E+03 0.22845448E+03 0.80419002E+02 0.0000E+00 0.9000E+01
      -11  1    1    2    0    0 -.59437891E+02 0.64734264E+02 -.22301432E+03 0.23970560E+03 0.51099893E-03 0.0000E+00 0.9000E+01
       11  1    1    2    0    0 -.27107595E+02 0.49467066E+02 -.80081185E+03 0.80279601E+03 0.51099893E-03 0.0000E+00 0.9000E+01
      -24  1    3    3    0    0 -.13360663E+02 -.97998560E+02 -.96149956E+03 0.96991280E+03 0.80419002E+02 0.0000E+00 0.9000E+01
#aMCatNLO 1  0  0  2  1 0.76491646D+01 0.00000000D+00  -5  7  0 0.00000000D+00 0.00000000D+00 0.00000000D+00 0.00000000D+00 0.00000000D+00
  <mgrwgt>
 0.9574906471D-03   11    2    0
 0.272292342939551D+03 0.000000000000000D+00 0.000000000000000D+00 0.272292342939551D+03
 0.272292342939551D+03 0.000000000000000D+00 0.000000000000000D+00 -.272292342939551D+03
 0.188207603866673D+03 0.999061522038529D+02 -.162027746024645D+02 0.136788585217723D+03
 0.961929353327489D+02 -.594378920925704D+02 0.647342664467955D+02 0.391112840382115D+02
 0.106953498465197D+03 -.271075999452559D+02 0.494670705685068D+02 -.908693446026943D+02
 0.153230648214483D+03 -.133606601660266D+02 -.979985624128377D+02 -.850305246532399D+02
 0.000000000000000D+00 0.000000000000000D+00 -.000000000000000D+00 -.000000000000000D+00
 0.272602977875532D+03 0.000000000000000D+00 0.000000000000000D+00 0.272602977875532D+03
 0.323864805338196D+03 0.000000000000000D+00 0.000000000000000D+00 -.323864805338196D+03
 0.186978951456867D+03 0.978268050025245D+02 -.145846326889152D+02 0.136788585217723D+03
 0.974196981050232D+02 -.605109259786953D+02 0.655692982801940D+02 0.391112840382115D+02
 0.107691246839649D+03 -.282971973444607D+02 0.503928117870357D+02 -.908693446026943D+02
 0.152548506405808D+03 -.150553398403448D+02 -.966797676443150D+02 -.850305246532399D+02
 0.518293804063810D+02 0.603665816097637D+01 -.469770973399956D+01 -.512618274626643D+02
0.569329441423D-05 0.000000000000D+00 0.000000000000D+00 0.217206906595D-10 0.000000000000D+00  7 -2 2 24 -11 11 -24 21 0 0.51677363D-02 0.33958132D+00 0.40207196D+05 0.40207196D+05 0.40207196D+05 0.11557165D+01  1  2  2  2  7  2        2 0.654879277114D-03 0.100000000000D+01
-.280290499396D-06 0.000000000000D+00 -.218637496295D-07 0.217206906595D-10 0.000000000000D+00  7 -2 2 24 -11 11 -24 21 2 0.51677363D-02 0.33958132D+00 0.40207196D+05 0.40207196D+05 0.40207196D+05 0.11557165D+01  1  2  3  2  7  2        2 -.430634259067D-04 0.100000000000D+01
0.368480155099D-06 0.000000000000D+00 0.000000000000D+00 0.217206906595D-10 0.000000000000D+00  7 -2 2 24 -11 11 -24 21 2 0.51677363D-02 0.33958132D+00 0.40207196D+05 0.40207196D+05 0.40207196D+05 0.11557165D+01  1  2 15  2  7  2        2 0.566127567341D-04 0.100000000000D+01
0.262076652244D-03 0.000000000000D+00 0.000000000000D+00 0.217206906595D-10 0.000000000000D+00  7 -2 2 24 -11 11 -24 21 2 0.51677363D-02 0.40406891D+00 0.41778395D+05 0.41778395D+05 0.41778395D+05 0.11542217D+01  1  2 12  2  7  2        2 0.235107313694D-01 0.100000000000D+01
-.262035347270D-03 0.000000000000D+00 0.000000000000D+00 0.217206906595D-10 0.000000000000D+00  7 -2 2 24 -11 11 -24 21 2 0.51677363D-02 0.33958132D+00 0.40207196D+05 0.40207196D+05 0.40207196D+05 0.11557165D+01  1  2  4  2  7  2        2 -.402587308040D-01 0.100000000000D+01
-.271895509737D-03 0.000000000000D+00 -.343635871642D-05 0.217206906595D-10 0.000000000000D+00  7 -2 2 24 -11 11 -24 21 2 0.51677363D-02 0.40402443D+00 0.40207196D+05 0.40207196D+05 0.40207196D+05 0.11557165D+01  1  2  5  2  7  2        2 -.244857648517D-01 0.100000000000D+01
0.268480500452D-03 0.000000000000D+00 0.338512612283D-05 0.217206906595D-10 0.000000000000D+00  7 -2 2 24 -11 11 -24 21 2 0.51677363D-02 0.33958132D+00 0.40207196D+05 0.40207196D+05 0.40207196D+05 0.11557165D+01  1  2  6  2  7  2        2 0.412489547935D-01 0.100000000000D+01
0.307499727549D-05 0.000000000000D+00 0.000000000000D+00 0.217206906595D-10 0.267847764109D-11  7 -2 2 24 -11 11 -24 21 2 0.51736318D-02 0.40389839D+00 0.41778395D+05 0.41778395D+05 0.41778395D+05 0.11542217D+01  1  2 11  2  7  2        2 0.275794205142D-03 0.100000000000D+01
0.672656058820D-05 0.000000000000D+00 0.000000000000D+00 0.217206906595D-10 0.000000000000D+00  7 -2 21 24 -11 11 -24 -2 2 0.51677363D-02 0.40406891D+00 0.41778395D+05 0.41778395D+05 0.41778395D+05 0.11542217D+01  1  2 12  4  7  2        2 0.695351648703D-04 0.100000000000D+01
-.694411297501D-05 0.000000000000D+00 -.881549170923D-07 0.217206906595D-10 0.000000000000D+00  7 -2 21 24 -11 11 -24 -2 2 0.51677363D-02 0.40402443D+00 0.40207196D+05 0.40207196D+05 0.40207196D+05 0.11557165D+01  1  2  5  4  7  2        2 -.722725939816D-04 0.100000000000D+01
0.787405556314D-07 0.000000000000D+00 0.000000000000D+00 0.217206906595D-10 0.685507324243D-13  7 -2 21 24 -11 11 -24 -2 2 0.51736318D-02 0.40389839D+00 0.41778395D+05 0.41778395D+05 0.41778395D+05 0.11542217D+01  1  2 11  4  7  2        2 0.814755983059D-06 0.100000000000D+01
  </mgrwgt>
  </event>
  <event>
  9     66 0.27011060E-05 0.24539788E+03 0.75467711E-02 0.99138566E-01
       -2 -1    0    0    0  502 0.00000000E+00 0.00000000E+00 0.28062536E+04 0.28062537E+04 0.32000000E+00 0.0000E+00 0.9000E+01
        2 -1    0    0  501    0 0.00000000E+00 0.00000000E+00 -.28488072E+03 0.28488090E+03 0.32000000E+00 0.0000E+00 0.9000E+01
       25  2    1    2    0    0 0.11783504E+03 0.46065416E+02 0.21953950E+04 0.22185309E+04 0.29345028E+03 0.0000E+00 0.0000E+00
       23  2    1    2    0    0 -.15754482E+03 0.11001589E+03 -.21850377E+03 0.30480165E+03 0.90753958E+02 0.0000E+00 0.0000E+00
       24  1    3    3    0    0 0.13126396E+03 0.13063973E+03 0.13510256E+04 0.13660287E+04 0.80419002E+02 0.0000E+00 0.9000E+01
      -11  1    4    4    0    0 -.65032292E+02 0.71521353E+01 -.11393306E+03 0.13138149E+03 0.51099893E-03 0.0000E+00 0.9000E+01
       11  1    4    4    0    0 -.92512527E+02 0.10286376E+03 -.10457071E+03 0.17342017E+03 0.51099893E-03 0.0000E+00 0.9000E+01
      -24  1    3    3    0    0 -.13428926E+02 -.84574310E+02 0.84436939E+03 0.85250222E+03 0.80419002E+02 0.0000E+00 0.9000E+01
       21  1    1    2  501  502 0.39709784E+02 -.15608131E+03 0.54448170E+03 0.56780201E+03 0.75000000E+00 0.0000E+00 0.9000E+01
#aMCatNLO 2  0  0  1  2 0.16105354D+03 0.00000000D+00  -5  7  0 0.00000000D+00 0.00000000D+00 0.00000000D+00 0.00000000D+00 0.00000000D+00
  <mgrwgt>
 0.5780850497D-03    2    2    0
 0.779931092882635D+03 0.000000000000000D+00 0.000000000000000D+00 0.779931092882635D+03
 0.779931092882635D+03 0.000000000000000D+00 0.000000000000000D+00 -.779931092882635D+03
 0.487822604517711D+03 0.143739781806843D+03 0.816028857337583D+02 0.451866707879787D+03
 0.354552937231875D+03 -.560241388420204D+02 -.282548658243115D+02 -.348956650207457D+03
 0.400415442404569D+03 -.822132450924424D+02 0.623819089292847D+02 -.386887588694384D+03
 0.317071201611115D+03 -.550239787238048D+01 -.115729928838732D+03 0.283977531022055D+03
 0.000000000000000D+00 0.000000000000000D+00 -.000000000000000D+00 0.000000000000000D+00
 0.977870476803611D+03 0.000000000000000D+00 0.000000000000000D+00 0.977870476803611D+03
 0.817538435981345D+03 0.000000000000000D+00 0.000000000000000D+00 -.817538435981345D+03
 0.494921916363829D+03 0.131263961629741D+03 0.130639726079105D+03 0.451866707879787D+03
 0.355036752736908D+03 -.650322922160380D+02 0.715213528162235D+01 -.348956650207457D+03
 0.410878968215546D+03 -.925125273194302D+02 0.102863757101752D+03 -.386887588694384D+03
 0.307316781233235D+03 -.134289261095690D+02 -.845743098780413D+02 0.283977531022055D+03
 0.227254494235438D+03 0.397097840152962D+02 -.156081308584438D+03 0.160332040822266D+03
-.321059882688D-02 0.000000000000D+00 0.000000000000D+00 0.907785020187D-07 0.000000000000D+00  7 -2 2 24 -11 11 -24 21 2 0.43851777D+00 0.41811678D-01 0.11703240D+06 0.11703240D+06 0.11703240D+06 0.11161595D+01  1  2 13  1  7  1       -2 -.190801643396D-03 0.100000000000D+01
0.119871558646D-01 0.000000000000D+00 0.000000000000D+00 0.907785020187D-07 0.239123214512D-10  7 -2 2 24 -11 11 -24 21 2 0.43173103D+00 0.43827787D-01 0.11703240D+06 0.11703240D+06 0.11703240D+06 0.11161595D+01  1  2  1  1  7  1       -2 0.768886693109D-03 0.100000000000D+01
  </mgrwgt>
  </event>
  <event>
  8     66 0.27011060E-05 0.16659473E+03 0.75467711E-02 0.93937190E-01
       -2 -1    0    0    0  501 0.00000000E+00 0.00000000E+00 0.33489062E+03 0.33489078E+03 0.32000000E+00 0.0000E+00 0.9000E+01
        2 -1    0    0  501    0 0.00000000E+00 0.00000000E+00 -.44925980E+03 0.44925992E+03 0.32000000E+00 0.0000E+00 0.9000E+01
       25  2    1    2    0    0 0.39471799E+01 0.27179287E+02 -.38946823E+03 0.49310360E+03 0.30118327E+03 0.0000E+00 0.0000E+00
       23  2    1    2    0    0 -.39471799E+01 -.27179287E+02 0.27509906E+03 0.29104709E+03 0.90964956E+02 0.0000E+00 0.0000E+00
       24  1    3    3    0    0 -.91285527E+02 -.51759450E+02 -.27916870E+03 0.30889232E+03 0.80419002E+02 0.0000E+00 0.9000E+01
      -11  1    4    4    0    0 0.30901854E+01 0.12636082E+02 0.15995729E-01 0.13008461E+02 0.51099893E-03 0.0000E+00 0.9000E+01
       11  1    4    4    0    0 -.70373653E+01 -.39815369E+02 0.27508306E+03 0.27803863E+03 0.51099893E-03 0.0000E+00 0.9000E+01
      -24  1    3    3    0    0 0.95232707E+02 0.78938738E+02 -.11029954E+03 0.18421128E+03 0.80419002E+02 0.0000E+00 0.9000E+01
#aMCatNLO 1  0  0  2  2 0.45880319D+03 0.00000000D+00  -5  7  0 0.00000000D+00 0.00000000D+00 0.00000000D+00 0.00000000D+00 0.00000000D+00
  <mgrwgt>
 0.1250658106D-02    5    2    0
 0.387882713947540D+03 0.000000000000000D+00 0.000000000000000D+00 0.387882713947540D+03
 0.387882713947540D+03 0.000000000000000D+00 0.000000000000000D+00 -.387882713947540D+03
 0.271073993416377D+03 -.912855265712969D+02 -.517594504713710D+02 -.236647006906561D+03
 0.131514281542836D+02 0.309018539492095D+01 0.126360817434822D+02 0.193397386082076D+01
 0.321598768353373D+03 -.703736532999128D+01 -.398153688285701D+02 0.319046986666013D+03
 0.169941237971048D+03 0.952327065063673D+02 0.789387375564589D+02 -.843339536202729D+02
 0.000000000000000D+00 0.000000000000000D+00 -.000000000000000D+00 -.000000000000000D+00
 0.622736646507993D+03 0.000000000000000D+00 0.000000000000000D+00 0.622736646507993D+03
 0.756433206086941D+03 0.000000000000000D+00 0.000000000000000D+00 -.756433206086941D+03
 0.356011886500495D+03 -.253492832408472D+03 0.410187944323258D+01 -.236647006906561D+03
 0.159847136866256D+02 -.444641401173478D+01 0.152315534068363D+02 0.193397386082076D+01
 0.369901004440847D+03 -.185906510249725D+03 0.217840040500730D+02 0.319046986666013D+03
 0.159386130186558D+03 0.100461206843835D+02 0.108275492459948D+03 -.843339536202729D+02
 0.477886117780408D+03 0.433799635985548D+03 -.149392929360090D+03 -.133696559578949D+03
0.310073416818D-04 0.000000000000D+00 0.000000000000D+00 0.899590645389D-06 0.000000000000D+00  7 -2 2 24 -11 11 -24 21 0 0.51521655D-01 0.69116913D-01 0.27753804D+05 0.27753804D+05 0.27753804D+05 0.11704849D+01  1  2  2  2  7  2        2 0.970481185312D-03 0.100000000000D+01
-.226636518141D-06 0.000000000000D+00 -.119076356479D-06 0.899590645389D-06 0.000000000000D+00  7 -2 2 24 -11 11 -24 21 2 0.51521655D-01 0.69116913D-01 0.27753804D+05 0.27753804D+05 0.27753804D+05 0.11704849D+01  1  2  3  2  7  2        2 -.971816075715D-05 0.100000000000D+01
0.167448033383D-05 0.000000000000D+00 0.000000000000D+00 0.899590645389D-06 0.000000000000D+00  7 -2 2 24 -11 11 -24 21 2 0.51521655D-01 0.69116913D-01 0.27753804D+05 0.27753804D+05 0.27753804D+05 0.11704849D+01  1  2 15  2  7  2        2 0.718016196258D-04 0.100000000000D+01
0.165351355309D-04 0.000000000000D+00 -.101494045375D-04 0.899590645389D-06 0.000000000000D+00  7 -2 2 24 -11 11 -24 21 2 0.51521655D-01 0.19093057D+00 0.27753804D+05 0.27753804D+05 0.27753804D+05 0.11704849D+01  1  2  5  2  7  2        2 0.201618913107D-03 0.100000000000D+01
0.245799466654D-05 0.000000000000D+00 -.115522336494D-05 0.899590645389D-06 0.000000000000D+00  7 -2 21 24 -11 11 -24 -2 2 0.51521655D-01 0.19093057D+00 0.27753804D+05 0.27753804D+05 0.27753804D+05 0.11704849D+01  1  2  5  4  7  2        2 0.164745490467D-04 0.100000000000D+01
  </mgrwgt>
  </event>
  <event>
  8     66 0.27011060E-05 0.20504575E+03 0.75467711E-02 0.96280066E-01
       -2 -1    0    0    0  501 0.00000000E+00 0.00000000E+00 0.53724084E+02 0.53725037E+02 0.32000000E+00 0.0000E+00 0.9000E+01
        2 -1    0    0  501    0 0.00000000E+00 0.00000000E+00 -.96800397E+03 0.96800402E+03 0.32000000E+00 0.0000E+00 0.9000E+01
       25  2    1    2    0    0 0.13673765E+02 0.87793633E+02 -.75760347E+03 0.81959266E+03 0.29979062E+03 0.0000E+00 0.0000E+00
       23  2    1    2    0    0 -.13673765E+02 -.87793633E+02 -.15667642E+03 0.20213640E+03 0.91743837E+02 0.0000E+00 0.0000E+00
       24  1    3    3    0    0 0.12293369E+03 0.85016170E+01 -.46130329E+03 0.48420338E+03 0.80419002E+02 0.0000E+00 0.9000E+01
      -11  1    4    4    0    0 -.32341751E+02 -.26743397E+02 -.11454899E+02 0.43501871E+02 0.51099893E-03 0.0000E+00 0.9000E+01
       11  1    4    4    0    0 0.18667986E+02 -.61050237E+02 -.14522152E+03 0.15863453E+03 0.51099893E-03 0.0000E+00 0.9000E+01
      -24  1    3    3    0    0 -.10925993E+03 0.79292016E+02 -.29630018E+03 0.33538928E+03 0.80419002E+02 0.0000E+00 0.9000E+01
#aMCatNLO 1  0  0  2  1 0.34240795D+03 0.00000000D+00  -5  7  0 0.00000000D+00 0.00000000D+00 0.00000000D+00 0.00000000D+00 0.00000000D+00
  <mgrwgt>
 0.9124666594D-03    3    2    0
 0.228047452057567D+03 0.000000000000000D+00 0.000000000000000D+00 0.228047452057567D+03
 0.228047452057567D+03 0.000000000000000D+00 0.000000000000000D+00 -.228047452057567D+03
 0.159976231039866D+03 0.122933694652536D+03 0.850161707709236D+01 -.627710743057780D+02
 0.744891950531922D+02 -.323417507991716D+02 -.267433966533326D+02 0.615421974774976D+02
 0.642594270715689D+02 0.186679856952835D+02 -.610502369216386D+02 -.732453749111639D+01
 0.157370050950507D+03 -.109259929548648D+03 0.792920164978789D+02 0.855341431939681D+01
 0.000000000000000D+00 -.000000000000000D+00 -.000000000000000D+00 0.000000000000000D+00
 0.139976044853916D+04 0.000000000000000D+00 0.000000000000000D+00 0.139976044853916D+04
 0.311457523371771D+03 0.000000000000000D+00 0.000000000000000D+00 -.311457523371771D+03
 0.216449019103819D+03 0.136626250793310D+03 0.133326748033907D+03 -.627710743057780D+02
 0.705394154429014D+02 -.270663013162312D+02 0.213490607223340D+02 0.615421974774976D+02
 0.363214576579527D+02 0.223266388019016D+02 -.276969427328920D+02 -.732453749111639D+01
 0.247010862971586D+03 -.945504796272566D+02 0.213387432566525D+03 0.855341431939681D+01
 0.114089721673467D+04 -.373361086517241D+02 -.340366298589875D+03 0.108830292516739D+04
0.338124749235D-05 0.000000000000D+00 0.000000000000D+00 0.517129531221D-06 0.000000000000D+00  7 -2 2 24 -11 11 -24 21 0 0.82653211D-02 0.14892376D+00 0.42043761D+05 0.42043761D+05 0.42043761D+05 0.11539754D+01  1  2  2  2  7  2        2 0.905026500465D-03 0.100000000000D+01
-.185265293889D-06 0.000000000000D+00 -.129848806735D-07 0.517129531221D-06 0.000000000000D+00  7 -2 2 24 -11 11 -24 21 2 0.82653211D-02 0.14892376D+00 0.42043761D+05 0.42043761D+05 0.42043761D+05 0.11539754D+01  1  2  3  2  7  2        2 -.660345939103D-04 0.100000000000D+01
0.206139250275D-06 0.000000000000D+00 0.000000000000D+00 0.517129531221D-06 0.000000000000D+00  7 -2 2 24 -11 11 -24 21 2 0.82653211D-02 0.14892376D+00 0.42043761D+05 0.42043761D+05 0.42043761D+05 0.11539754D+01  1  2 15  2  7  2        2 0.734747528537D-04 0.100000000000D+01
  </mgrwgt>
  </event>
  <event>
  8     66 0.27011060E-05 0.30697878E+03 0.75467711E-02 0.94259954E-01
       -2 -1    0    0    0  501 0.00000000E+00 0.00000000E+00 0.62087037E+02 0.62087861E+02 0.32000000E+00 0.0000E+00 0.9000E+01
        2 -1    0    0  501    0 0.00000000E+00 0.00000000E+00 -.17445347E+04 0.17445347E+04 0.32000000E+00 0.0000E+00 0.9000E+01
       25  2    1    2    0    0 -.13149862E+03 0.21249500E+03 -.93342314E+03 0.10117959E+04 0.30001030E+03 0.0000E+00 0.0000E+00
       23  2    1    2    0    0 0.13149862E+03 -.21249500E+03 -.74902449E+03 0.79482665E+03 0.90915957E+02 0.0000E+00 0.0000E+00
       24  1    3    3    0    0 -.10573451E+03 0.23631772E+03 -.84419318E+03 0.88665393E+03 0.80419002E+02 0.0000E+00 0.9000E+01
      -11  1    4    4    0    0 0.11593374E+03 -.20925110E+03 -.61541342E+03 0.66027292E+03 0.51099893E-03 0.0000E+00 0.9000E+01
       11  1    4    4    0    0 0.15564887E+02 -.32438962E+01 -.13361107E+03 0.13455373E+03 0.51099893E-03 0.0000E+00 0.9000E+01
      -24  1    3    3    0    0 -.25764116E+02 -.23822720E+02 -.89229959E+02 0.12514197E+03 0.80419002E+02 0.0000E+00 0.9000E+01
#aMCatNLO 1  0  0  2  2 0.33471420D+03 0.00000000D+00  -5  7  0 0.00000000D+00 0.00000000D+00 0.00000000D+00 0.00000000D+00 0.00000000D+00
  <mgrwgt>
 0.1211650681D-02    5    2    0
 0.329110558060227D+03 0.000000000000000D+00 0.000000000000000D+00 0.329110558060227D+03
 0.329110558060227D+03 0.000000000000000D+00 0.000000000000000D+00 -.329110558060227D+03
 0.275801203229485D+03 -.105734508306399D+03 0.236317718971726D+03 -.507270854836515D+02
 0.239225243794813D+03 0.115933736807104D+03 -.209251102930258D+03 -.143591820788221D+01
 0.277933628848250D+02 0.155648871291410D+02 -.324389615336418D+01 -.227965446252466D+02
 0.115401306211331D+03 -.257641156298459D+02 -.238227198881041D+02 0.749595483167804D+02
 0.000000000000000D+00 -.000000000000000D+00 -.000000000000000D+00 -.000000000000000D+00
 0.406577595286257D+03 0.000000000000000D+00 0.000000000000000D+00 0.406577595286257D+03
 0.111892203509189D+04 0.000000000000000D+00 0.000000000000000D+00 -.111892203509189D+04
 0.291328350923695D+03 0.247771192883129D+02 0.274258726854144D+03 -.507270854836515D+02
 0.295285327656664D+03 0.238938867003281D+03 -.173492307332032D+03 -.143591820788221D+01
 0.383202843757807D+02 0.307793996633859D+02 0.117911159412580D+01 -.227965446252466D+02
 0.113502649614603D+03 0.269127861802150D+02 -.850902881221517D+01 0.749595483167804D+02
 0.787063017807408D+03 -.321408172135194D+03 -.934365023040225D+02 -.712344439805637D+03
0.150120456179D-04 0.000000000000D+00 0.000000000000D+00 0.200139001098D-05 0.000000000000D+00  7 -2 2 24 -11 11 -24 21 0 0.95519175D-02 0.26839001D+00 0.94235972D+05 0.94235972D+05 0.94235972D+05 0.11238440D+01  1  2  2  2  7  2        2 0.119707260320D-02 0.100000000000D+01
-.829088299426D-06 0.000000000000D+00 -.576502079352D-07 0.200139001098D-05 0.000000000000D+00  7 -2 2 24 -11 11 -24 21 2 0.95519175D-02 0.26839001D+00 0.94235972D+05 0.94235972D+05 0.94235972D+05 0.11238440D+01  1  2  3  2  7  2        2 -.835013468701D-04 0.100000000000D+01
0.974286208013D-06 0.000000000000D+00 0.000000000000D+00 0.200139001098D-05 0.000000000000D+00  7 -2 2 24 -11 11 -24 21 2 0.95519175D-02 0.26839001D+00 0.94235972D+05 0.94235972D+05 0.94235972D+05 0.11238440D+01  1  2 15  2  7  2        2 0.981249049859D-04 0.100000000000D+01
-.957583932260D-05 0.000000000000D+00 -.413706462493D-05 0.200139001098D-05 0.000000000000D+00  7 -2 2 24 -11 11 -24 21 2 0.95519175D-02 0.91777999D+00 0.94235972D+05 0.94235972D+05 0.94235972D+05 0.11238440D+01  1  2  5  2  7  2        2 -.454670402408D-07 0.100000000000D+01
-.122691813086D-05 0.000000000000D+00 -.592755120658D-06 0.200139001098D-05 0.000000000000D+00  7 -2 21 24 -11 11 -24 -2 2 0.95519175D-02 0.91777999D+00 0.94235972D+05 0.94235972D+05 0.94235972D+05 0.11238440D+01  1  2  5  4  7  2        2 -.132241915972D-10 0.100000000000D+01
  </mgrwgt>
  </event>
  <event>
  8     66 0.27011060E-05 0.19005576E+03 0.75467711E-02 0.10551871E+00
       -2 -1    0    0    0  501 0.00000000E+00 0.00000000E+00 0.12071707E+03 0.12071750E+03 0.32000000E+00 0.0000E+00 0.9000E+01
        2 -1    0    0  501    0 0.00000000E+00 0.00000000E+00 -.37696021E+03 0.37696035E+03 0.32000000E+00 0.0000E+00 0.9000E+01
       25  2    1    2    0    0 0.27118561E+02 0.68756139E+02 -.17353177E+03 0.35409925E+03 0.29968347E+03 0.0000E+00 0.0000E+00
       23  2    1    2    0    0 -.27118561E+02 -.68756139E+02 -.82711365E+02 0.14357859E+03 0.91163689E+02 0.0000E+00 0.0000E+00
       24  1    3    3    0    0 0.10916722E+02 -.88822156E+02 -.25808808E+02 0.12305227E+03 0.80419002E+02 0.0000E+00 0.9000E+01
      -13  1    4    4    0    0 -.28700977E+02 -.24152279E+02 0.11579663E+02 0.39257845E+02 0.10565837E+00 0.0000E+00 0.9000E+01
       13  1    4    4    0    0 0.15824160E+01 -.44603860E+02 -.94291028E+02 0.10432074E+03 0.10565837E+00 0.0000E+00 0.9000E+01
      -24  1    3    3    0    0 0.16201839E+02 0.15757829E+03 -.14772297E+03 0.23104698E+03 0.80419002E+02 0.0000E+00 0.9000E+01
#aMCatNLO 1  0  0  1  2 0.40495975D+02 0.00000000D+00  -5  7  0 0.00000000D+00 0.00000000D+00 0.00000000D+00 0.00000000D+00 0.00000000D+00
  <mgrwgt>
 0.4952447166D-03    4    2    0
 0.213320584768912D+03 0.000000000000000D+00 0.000000000000000D+00 0.213320584768912D+03
 0.213320584768912D+03 0.000000000000000D+00 0.000000000000000D+00 -.213320584768912D+03
 0.128039793163715D+03 0.109167377033639D+02 -.888221167568199D+02 0.437998754768803D+02
 0.527491350731155D+02 -.287010130481061D+02 -.241523026202284D+02 0.370862424507408D+02
 0.650586503035698D+02 0.158241471453102D+01 -.446039313149782D+02 -.473351165018332D+02
 0.180793590997424D+03 0.162018606302112D+02 0.157578350692027D+03 -.335510014257879D+02
 0.000000000000000D+00 0.000000000000000D+00 -.000000000000000D+00 -.000000000000000D+00
 0.225180166881550D+03 0.000000000000000D+00 0.000000000000000D+00 0.225180166881550D+03
 0.251889602610144D+03 0.000000000000000D+00 0.000000000000000D+00 -.251889602610144D+03
 0.126667891946950D+03 -.107273356248704D+01 -.875097654369343D+02 0.437998754768803D+02
 0.554448508236149D+02 -.337938656037058D+02 -.235948458629517D+02 0.370862424507408D+02
 0.647410904592042D+02 -.452745300113698D+01 -.439351534528701D+02 -.473351165018332D+02
 0.181704927668243D+03 -.861486208213542D+00 0.159446081574276D+03 -.335510014257879D+02
 0.485110085936827D+02 0.402555383755434D+02 -.440631682151987D+01 -.267094357285942D+02
0.337538394672D-05 0.000000000000D+00 0.000000000000D+00 0.506932606184D-06 0.000000000000D+00  7 -2 2 24 -13 13 -24 21 0 0.18571900D-01 0.57993922D-01 0.36121191D+05 0.36121191D+05 0.36121191D+05 0.11599271D+01  1  2  2  1  7  1       -2 0.764430077381D-03 0.100000000000D+01
-.184480896982D-06 0.000000000000D+00 -.129623631144D-07 0.506932606184D-06 0.000000000000D+00  7 -2 2 24 -13 13 -24 21 2 0.18571900D-01 0.57993922D-01 0.36121191D+05 0.36121191D+05 0.36121191D+05 0.11599271D+01  1  2  3  1  7  1       -2 -.562117813907D-04 0.100000000000D+01
0.209357783614D-06 0.000000000000D+00 0.000000000000D+00 0.506932606184D-06 0.000000000000D+00  7 -2 2 24 -13 13 -24 21 2 0.18571900D-01 0.57993922D-01 0.36121191D+05 0.36121191D+05 0.36121191D+05 0.11599271D+01  1  2 15  1  7  1       -2 0.637918297097D-04 0.100000000000D+01
-.908313696348D-06 0.000000000000D+00 0.000000000000D+00 0.506932606184D-06 0.000000000000D+00  7 -2 2 24 -13 13 -24 21 2 0.18571900D-01 0.57993922D-01 0.36121191D+05 0.36121191D+05 0.36121191D+05 0.11599271D+01  1  2  4  1  7  1       -2 -.276765409149D-03 0.100000000000D+01
  </mgrwgt>
  </event>
  <event>
  8     66 0.27011060E-05 0.17388227E+03 0.75467711E-02 0.96210627E-01
       -2 -1    0    0    0  501 0.00000000E+00 0.00000000E+00 0.81791144E+02 0.81791770E+02 0.32000000E+00 0.0000E+00 0.9000E+01
        2 -1    0    0  501    0 0.00000000E+00 0.00000000E+00 -.12822117E+04 0.12822117E+04 0.32000000E+00 0.0000E+00 0.9000E+01
       25  2    1    2    0    0 0.21165393E+03 -.10903660E+03 -.82138235E+03 0.90621627E+03 0.29978760E+03 0.0000E+00 0.0000E+00
       23  2    1    2    0    0 -.21165393E+03 0.10903660E+03 -.37903820E+03 0.45778723E+03 0.95983471E+02 0.0000E+00 0.0000E+00
       24  1    3    3    0    0 0.18207398E+03 -.17031935E+03 -.68841966E+03 0.73657889E+03 0.80419002E+02 0.0000E+00 0.9000E+01
      -13  1    4    4    0    0 -.21149919E+03 0.11507883E+03 -.33068165E+03 0.40905429E+03 0.10565837E+00 0.0000E+00 0.9000E+01
       13  1    4    4    0    0 -.15473815E+00 -.60422389E+01 -.48356550E+02 0.48732943E+02 0.10565837E+00 0.0000E+00 0.9000E+01
      -24  1    3    3    0    0 0.29579947E+02 0.61282754E+02 -.13296269E+03 0.16963739E+03 0.80419002E+02 0.0000E+00 0.9000E+01
#aMCatNLO 1  0  0  2  1 0.21931695D+03 0.00000000D+00  -5  7  0 0.00000000D+00 0.00000000D+00 0.00000000D+00 0.00000000D+00 0.00000000D+00
  <mgrwgt>
 0.1083481946D-02    7    2    0
 0.323842577414967D+03 0.000000000000000D+00 0.000000000000000D+00 0.323842577414967D+03
 0.323842577414967D+03 0.000000000000000D+00 0.000000000000000D+00 -.323842577414967D+03
 0.275292830503013D+03 0.182073984365545D+03 -.170319350164803D+03 -.846127044165629D+02
 0.248569259185431D+03 -.211499448154323D+03 0.115078980785642D+03 0.617372515078922D+02
 0.130055800962093D+02 -.154483969677081D+00 -.604238363837351D+01 -.115156783694554D+02
 0.110817485045280D+03 0.295799477584553D+02 0.612827530175347D+02 0.343911312781262D+02
 0.000000000000000D+00 -.000000000000000D+00 0.000000000000000D+00 -.000000000000000D+00
 0.362869238469350D+03 0.000000000000000D+00 0.000000000000000D+00 0.362869238469350D+03
 0.915498594606660D+03 0.000000000000000D+00 0.000000000000000D+00 -.915498594606660D+03
 0.364922074204107D+03 0.284072120474692D+03 -.197090397806146D+03 -.846127044165629D+02
 0.183269658008269D+03 -.142699480628887D+03 0.970213252381397D+02 0.617372515078922D+02
 0.141997972265789D+02 0.417983839406091D+01 -.717999609796198D+01 -.115156783694554D+02
 0.121418374850869D+03 0.665794375750016D+02 0.515716431642704D+02 0.343911312781262D+02
 0.594557928786187D+03 -.212131915814867D+03 0.556774255016978D+02 -.552629356137310D+03
0.121936845547D-04 0.000000000000D+00 0.000000000000D+00 0.132910734796D-06 0.000000000000D+00  7 -2 2 24 -13 13 -24 21 0 0.12583304D-01 0.19726339D+00 0.94291340D+05 0.94291340D+05 0.94291340D+05 0.11238230D+01  1  2  2  2  7  2        2 0.112601343693D-02 0.100000000000D+01
-.675097081553D-06 0.000000000000D+00 -.468269593610D-07 0.132910734796D-06 0.000000000000D+00  7 -2 2 24 -13 13 -24 21 2 0.12583304D-01 0.19726339D+00 0.94291340D+05 0.94291340D+05 0.94291340D+05 0.11238230D+01  1  2  3  2  7  2        2 -.787355115428D-04 0.100000000000D+01
0.751737251742D-06 0.000000000000D+00 0.000000000000D+00 0.132910734796D-06 0.000000000000D+00  7 -2 2 24 -13 13 -24 21 2 0.12583304D-01 0.19726339D+00 0.94291340D+05 0.94291340D+05 0.94291340D+05 0.11238230D+01  1  2 15  2  7  2        2 0.876739341334D-04 0.100000000000D+01
0.357004097860D-05 0.000000000000D+00 0.000000000000D+00 0.132910734796D-06 0.000000000000D+00  7 -2 2 24 -13 13 -24 21 2 0.12583304D-01 0.54567287D+00 0.18992436D+06 0.18992436D+06 0.18992436D+06 0.10995537D+01  1  2 12  2  7  2        2 0.182540525897D-04 0.100000000000D+01
-.157736880513D-04 0.000000000000D+00 -.347336965224D-05 0.132910734796D-06 0.000000000000D+00  7 -2 2 24 -13 13 -24 21 2 0.12583304D-01 0.56733429D+00 0.94291340D+05 0.94291340D+05 0.94291340D+05 0.11238230D+01  1  2  5  2  7  2        2 -.695790314498D-04 0.100000000000D+01
0.406999993914D-06 0.000000000000D+00 0.000000000000D+00 0.132910734796D-06 0.000000000000D+00  7 -2 21 24 -13 13 -24 -2 2 0.12583304D-01 0.54567287D+00 0.18992436D+06 0.18992436D+06 0.18992436D+06 0.10995537D+01  1  2 12  4  7  2        2 0.702702255711D-07 0.100000000000D+01
-.169420078713D-05 0.000000000000D+00 -.414156679738D-06 0.132910734796D-06 0.000000000000D+00  7 -2 21 24 -13 13 -24 -2 2 0.12583304D-01 0.56733429D+00 0.94291340D+05 0.94291340D+05 0.94291340D+05 0.11238230D+01  1  2  5  4  7  2        2 -.215204565540D-06 0.100000000000D+01
  </mgrwgt>
  </event>
  <event>
  9     66 0.27011060E-05 0.17754672E+03 0.75467711E-02 0.10441210E+00
       21 -1    0    0  502  501 0.00000000E+00 0.00000000E+00 0.17300095E+03 0.17300257E+03 0.75000000E+00 0.0000E+00 0.9000E+01
        2 -1    0    0  501    0 0.00000000E+00 0.00000000E+00 -.86203072E+03 0.86203078E+03 0.32000000E+00 0.0000E+00 0.9000E+01
       25  2    1    2    0    0 -.24319454E+02 -.11574675E+03 -.16186412E+02 0.32266672E+03 0.29977169E+03 0.0000E+00 0.0000E+00
       23  2    1    2    0    0 -.56267725E+02 0.91055543E+02 -.39381616E+03 0.42088725E+03 0.10294533E+03 0.0000E+00 0.0000E+00
       24  1    3    3    0    0 -.18253060E+02 0.20670181E+02 -.10960262E+03 0.13870970E+03 0.80419002E+02 0.0000E+00 0.9000E+01
      -11  1    4    4    0    0 -.52480930E+02 0.15552901E+02 -.27251110E+03 0.27795403E+03 0.51099893E-03 0.0000E+00 0.9000E+01
       11  1    4    4    0    0 -.37867950E+01 0.75502643E+02 -.12130505E+03 0.14293322E+03 0.51099893E-03 0.0000E+00 0.9000E+01
      -24  1    3    3    0    0 -.60663943E+01 -.13641693E+03 0.93416209E+02 0.18395702E+03 0.80419002E+02 0.0000E+00 0.9000E+01
        2  1    1    2  502    0 0.80587180E+02 0.24691207E+02 -.27902721E+03 0.29147939E+03 0.32000000E+00 0.0000E+00 0.9000E+01
#aMCatNLO 2  0  0  1  2 0.84284929D+02 0.00000000D+00  -5  7  0 0.00000000D+00 0.00000000D+00 0.00000000D+00 0.00000000D+00 0.00000000D+00
  <mgrwgt>
 0.1093409985D-03    1    2    0
 0.307272860503497D+03 0.000000000000000D+00 0.000000000000000D+00 0.307272860503497D+03
 0.307272860503497D+03 0.000000000000000D+00 0.000000000000000D+00 -.307272860503497D+03
 0.931422983692120D+02 -.605125276458533D+01 0.244087080084392D+02 -.396972178428997D+02
 0.148236809818135D+03 -.328179293816986D+02 0.215774726974835D+02 -.142938965884553D+03
 0.945450598262505D+02 0.833216171089819D+01 0.792157847311142D+02 -.509333178597911D+02
 0.278621552993396D+03 0.305370204353858D+02 -.125201965437037D+03 0.233569501587243D+03
 0.000000000000000D+00 0.000000000000000D+00 0.000000000000000D+00 -.000000000000000D+00
 0.321727697387672D+03 0.000000000000000D+00 0.000000000000000D+00 0.321727697387672D+03
 0.463537533937381D+03 0.000000000000000D+00 0.000000000000000D+00 -.463537533937381D+03
 0.938270517278934D+02 -.182530598891703D+02 0.206701809811615D+02 -.396972178428997D+02
 0.153061062181317D+03 -.524809303991158D+02 0.155529010917835D+02 -.142938965884553D+03
 0.911547677410435D+02 -.378679510137073D+01 0.755026423152018D+02 -.509333178597911D+02
 0.282255750029824D+03 -.606639434084547D+01 -.136416931714932D+03 0.233569501587243D+03
 0.164966599644975D+03 0.805871797305023D+02 0.246912073267848D+02 -.141809836549709D+03
0.139034911606D-06 0.000000000000D+00 0.000000000000D+00 0.177706339029D-07 0.179592748336D-12  7 21 2 24 -11 11 -24 2 2 0.26615647D-01 0.13262018D+00 0.52465679D+05 0.52465679D+05 0.52465679D+05 0.11454611D+01  1  2  1  3  7  1       -2 0.109340998511D-03 0.100000000000D+01
  </mgrwgt>
  </event>
  <event>
  8     66 0.27011060E-05 0.13497184E+03 0.75467711E-02 0.10333596E+00
       -2 -1    0    0    0  501 0.00000000E+00 0.00000000E+00 0.11854334E+03 0.11854377E+03 0.32000000E+00 0.0000E+00 0.9000E+01
        2 -1    0    0  501    0 0.00000000E+00 0.00000000E+00 -.11257579E+04 0.11257579E+04 0.32000000E+00 0.0000E+00 0.9000E+01
       25  2    1    2    0    0 -.20682560E+03 -.46513515E+02 -.22928500E+03 0.43285944E+03 0.29975882E+03 0.0000E+00 0.0000E+00
       23  2    1    2    0    0 0.20682560E+03 0.46513515E+02 -.77792956E+03 0.81144228E+03 0.91235058E+02 0.0000E+00 0.0000E+00
       24  1    3    3    0    0 -.10132858E+03 -.24665242E+02 0.35070010E+02 0.13628271E+03 0.80419002E+02 0.0000E+00 0.9000E+01
      -11  1    4    4    0    0 0.37482703E+02 0.18050914E+02 -.58382983E+02 0.71689338E+02 0.51099893E-03 0.0000E+00 0.9000E+01
       11  1    4    4    0    0 0.16934290E+03 0.28462601E+02 -.71954658E+03 0.73975294E+03 0.51099893E-03 0.0000E+00 0.9000E+01
      -24  1    3    3    0    0 -.10549702E+03 -.21848273E+02 -.26435501E+03 0.29657673E+03 0.80419002E+02 0.0000E+00 0.9000E+01
#aMCatNLO 1  0  0  2  1 0.15311503D+02 0.00000000D+00  -5  7  0 0.00000000D+00 0.00000000D+00 0.00000000D+00 0.00000000D+00 0.00000000D+00
  <mgrwgt>
 0.1526775191D-02    9    2    0
 0.365310002967573D+03 0.000000000000000D+00 0.000000000000000D+00 0.365310002967573D+03
 0.365310002967573D+03 0.000000000000000D+00 0.000000000000000D+00 -.365310002967573D+03
 0.280446519072026D+03 -.101328583816399D+03 -.246652417587400D+02 0.247602863586008D+03
 0.416070955617412D+02 0.374827032420316D+02 0.180509141945924D+02 -.601544256989442D+00
 0.267906795136619D+03 0.169342896078414D+03 0.284626006984826D+02 -.205637824316512D+03
 0.140659596164761D+03 -.105497015504046D+03 -.218482731343350D+02 -.413634950125068D+02
 0.000000000000000D+00 0.000000000000000D+00 0.000000000000000D+00 -.000000000000000D+00
 0.372863780158216D+03 0.000000000000000D+00 0.000000000000000D+00 0.372863780158216D+03
 0.373232592899548D+03 0.000000000000000D+00 0.000000000000000D+00 -.373232592899548D+03
 0.282524642638642D+03 -.106078615696920D+03 -.281621550943011D+02 0.247602863586008D+03
 0.407593739006695D+02 0.367877416126588D+02 0.175392922411854D+02 -.601544256989442D+00
 0.264754035497459D+03 0.164848605608315D+03 0.251539609516165D+02 -.205637824316512D+03
 0.142742376817666D+03 -.107888200875919D+03 -.236086335329657D+02 -.413634950125068D+02
 0.153159442033263D+02 0.123304693518645D+02 0.907753543446489D+01 -.368812741332242D+00
0.852620044398D-05 0.000000000000D+00 0.000000000000D+00 0.387496965574D-05 0.000000000000D+00  7 -2 2 24 -11 11 -24 21 0 0.18237474D-01 0.17319356D+00 0.57469104D+05 0.57469104D+05 0.57469104D+05 0.11420146D+01  1  2  2  2  7  2        2 0.536490570711D-03 0.100000000000D+01
-.371481799187D-06 0.000000000000D+00 -.327428547050D-07 0.387496965574D-05 0.000000000000D+00  7 -2 2 24 -11 11 -24 21 2 0.18237474D-01 0.17319356D+00 0.57469104D+05 0.57469104D+05 0.57469104D+05 0.11420146D+01  1  2  3  2  7  2        2 -.304850870386D-04 0.100000000000D+01
0.498925078851D-06 0.000000000000D+00 0.000000000000D+00 0.387496965574D-05 0.000000000000D+00  7 -2 2 24 -11 11 -24 21 2 0.18237474D-01 0.17319356D+00 0.57469104D+05 0.57469104D+05 0.57469104D+05 0.11420146D+01  1  2 15  2  7  2        2 0.409435253297D-04 0.100000000000D+01
0.126210453205D-04 0.000000000000D+00 0.000000000000D+00 0.387496965574D-05 0.000000000000D+00  7 -2 2 24 -11 11 -24 21 2 0.18237474D-01 0.17870270D+00 0.61380919D+05 0.61380919D+05 0.61380919D+05 0.11395429D+01  1  2 12  2  7  2        2 0.983013092404D-03 0.100000000000D+01
-.977558328204D-05 0.000000000000D+00 0.000000000000D+00 0.387496965574D-05 0.000000000000D+00  7 -2 2 24 -11 11 -24 21 2 0.18237474D-01 0.17319356D+00 0.57469104D+05 0.57469104D+05 0.57469104D+05 0.11420146D+01  1  2  4  2  7  2        2 -.802218326332D-03 0.100000000000D+01
-.177900501870D-03 0.000000000000D+00 -.289056895846D-04 0.387496965574D-05 0.000000000000D+00  7 -2 2 24 -11 11 -24 21 2 0.18237474D-01 0.17948337D+00 0.57469104D+05 0.57469104D+05 0.57469104D+05 0.11420146D+01  1  2  5  2  7  2        2 -.138359251098D-01 0.100000000000D+01
0.178836228100D-03 0.000000000000D+00 0.288873074657D-04 0.387496965574D-05 0.000000000000D+00  7 -2 2 24 -11 11 -24 21 2 0.18237474D-01 0.17319356D+00 0.57469104D+05 0.57469104D+05 0.57469104D+05 0.11420146D+01  1  2  6  2  7  2        2 0.146759221884D-01 0.100000000000D+01
0.216560025638D-06 0.000000000000D+00 0.000000000000D+00 0.387496965574D-05 0.000000000000D+00  7 -2 21 24 -11 11 -24 -2 2 0.18237474D-01 0.17870270D+00 0.61380919D+05 0.61380919D+05 0.61380919D+05 0.11395429D+01  1  2 12  4  7  2        2 0.993376310853D-05 0.100000000000D+01
-.111555636038D-05 0.000000000000D+00 -.183400831933D-06 0.387496965574D-05 0.000000000000D+00  7 -2 21 24 -11 11 -24 -2 2 0.18237474D-01 0.17948337D+00 0.57469104D+05 0.57469104D+05 0.57469104D+05 0.11420146D+01  1  2  5  4  7  2        2 -.508994261975D-04 0.100000000000D+01
  </mgrwgt>
  </event>
  <event>
  8     66 0.27011060E-05 0.16530399E+03 0.75467711E-02 0.10398307E+00
       -2 -1    0    0    0  501 0.00000000E+00 0.00000000E+00 0.22952994E+03 0.22953017E+03 0.32000000E+00 0.0000E+00 0.9000E+01
        2 -1    0    0  501    0 0.00000000E+00 0.00000000E+00 -.17132953E+04 0.17132953E+04 0.32000000E+00 0.0000E+00 0.9000E+01
       25  2    1    2    0    0 0.15817135E+03 -.82715111E+01 -.16553733E+04 0.16889195E+04 0.29513023E+03 0.0000E+00 0.0000E+00
       23  2    1    2    0    0 -.15817135E+03 0.82715111E+01 0.17160794E+03 0.25390597E+03 0.99661228E+02 0.0000E+00 0.0000E+00
       24  1    3    3    0    0 0.79519407E+02 0.68577622E+02 -.31499866E+03 0.34163958E+03 0.80419002E+02 0.0000E+00 0.9000E+01
      -13  1    4    4    0    0 -.16767896E+03 0.96899837E-01 0.17343041E+03 0.24123508E+03 0.10565837E+00 0.0000E+00 0.9000E+01
       13  1    4    4    0    0 0.95076056E+01 0.81746113E+01 -.18224772E+01 0.12670889E+02 0.10565837E+00 0.0000E+00 0.9000E+01
      -24  1    3    3    0    0 0.78651947E+02 -.76849133E+02 -.13403746E+04 0.13472799E+04 0.80419002E+02 0.0000E+00 0.9000E+01
#aMCatNLO 1  0  0  2  1 0.28902320D+02 0.00000000D+00  -5  7  0 0.00000000D+00 0.00000000D+00 0.00000000D+00 0.00000000D+00 0.00000000D+00
  <mgrwgt>
 0.2971760386D-02    6    2    0
 0.627098730582282D+03 0.000000000000000D+00 0.000000000000000D+00 0.627098730582282D+03
 0.627098730582282D+03 0.000000000000000D+00 0.000000000000000D+00 -.627098730582282D+03
 0.156563844270481D+03 0.795194066911805D+02 0.685776223730045D+02 -.837782492507999D+02
 0.578862982585313D+03 -.167679158078881D+03 0.968912616719244D-01 0.554045163470998D+03
 0.174712559999008D+02 0.950780383340978D+01 0.817461983756381D+01 0.121664309882058D+02
 0.501299378308869D+03 0.786519475542911D+02 -.768491334722403D+02 -.482433345208404D+03
 0.000000000000000D+00 -.000000000000000D+00 -.000000000000000D+00 0.000000000000000D+00
 0.644507550120258D+03 0.000000000000000D+00 0.000000000000000D+00 0.644507550120258D+03
 0.639377038613467D+03 0.000000000000000D+00 0.000000000000000D+00 -.639377038613467D+03
 0.158941056752118D+03 0.827968932164196D+02 0.701492907539984D+02 -.837782492507999D+02
 0.575533441967984D+03 -.155687208939598D+03 0.584744649464084D+01 0.554045163470998D+03
 0.177549096259172D+02 0.987373565507170D+01 0.835009682862896D+01 0.121664309882058D+02
 0.502301027995009D+03 0.890774173258364D+02 -.718497593876283D+02 -.482433345208404D+03
 0.293541523926964D+02 -.260608372577301D+02 -.124970746896400D+02 0.513051150679096D+01
0.184964992447D-03 0.000000000000D+00 0.000000000000D+00 0.559132416989D-08 0.000000000000D+00  7 -2 2 24 -13 13 -24 21 0 0.35312319D-01 0.26358391D+00 0.50335778D+05 0.50335778D+05 0.50335778D+05 0.11470398D+01  1  2  2  2  7  2        2 0.182450999654D-02 0.100000000000D+01
0.292415334625D-05 0.000000000000D+00 -.710314273399D-06 0.559132416989D-08 0.000000000000D+00  7 -2 2 24 -13 13 -24 21 2 0.35312319D-01 0.26358391D+00 0.50335778D+05 0.50335778D+05 0.50335778D+05 0.11470398D+01  1  2  3  2  7  2        2 0.379501786341D-04 0.100000000000D+01
0.104822565254D-04 0.000000000000D+00 0.000000000000D+00 0.559132416989D-08 0.000000000000D+00  7 -2 2 24 -13 13 -24 21 2 0.35312319D-01 0.26358391D+00 0.50335778D+05 0.50335778D+05 0.50335778D+05 0.11470398D+01  1  2 15  2  7  2        2 0.136040576715D-03 0.100000000000D+01
0.270756227573D-03 0.000000000000D+00 0.000000000000D+00 0.559132416989D-08 0.000000000000D+00  7 -2 2 24 -13 13 -24 21 2 0.35312319D-01 0.27231860D+00 0.55830977D+05 0.55830977D+05 0.55830977D+05 0.11431054D+01  1  2 12  2  7  2        2 0.324359940659D-02 0.100000000000D+01
-.175916441480D-03 0.000000000000D+00 0.000000000000D+00 0.559132416989D-08 0.000000000000D+00  7 -2 2 24 -13 13 -24 21 2 0.35312319D-01 0.26358391D+00 0.50335778D+05 0.50335778D+05 0.50335778D+05 0.11470398D+01  1  2  4  2  7  2        2 -.228307465044D-02 0.100000000000D+01
0.380416798181D-05 0.000000000000D+00 0.000000000000D+00 0.559132416989D-08 0.000000000000D+00  7 -2 21 24 -13 13 -24 -2 2 0.35312319D-01 0.27231860D+00 0.55830977D+05 0.55830977D+05 0.55830977D+05 0.11431054D+01  1  2 12  4  7  2        2 0.127348776446D-04 0.100000000000D+01
  </mgrwgt>
  </event>
  <event>
  7     66 0.27011060E-05 0.17418133E+03 0.75467711E-02 0.10075829E+00
       -2 -1    0    0    0  501 0.00000000E+00 0.00000000E+00 0.11865511E+03 0.11865554E+03 0.32000000E+00 0.0000E+00 0.9000E+01
        2 -1    0    0  501    0 0.00000000E+00 0.00000000E+00 -.10194190E+04 0.10194190E+04 0.32000000E+00 0.0000E+00 0.9000E+01
       25  2    1    2    0    0 -.68746558E+02 0.49635898E+01 -.92471280E+03 0.97471637E+03 0.30037897E+03 0.0000E+00 0.0000E+00
       24  1    3    3    0    0 -.19747125E+02 0.32474972E+02 -.66867159E+02 0.11127895E+03 0.80419002E+02 0.0000E+00 0.9000E+01
      -11  1    1    2    0    0 -.53429439E+01 0.61526016E+02 0.44560547E+01 0.61918124E+02 0.51099893E-03 0.0000E+00 0.9000E+01
       11  1    1    2    0    0 0.74089502E+02 -.66489606E+02 0.19492856E+02 0.10144010E+03 0.51099893E-03 0.0000E+00 0.9000E+01
      -24  1    3    3    0    0 -.48999433E+02 -.27511383E+02 -.85784564E+03 0.86343742E+03 0.80419002E+02 0.0000E+00 0.9000E+01
#aMCatNLO 1  0  0  1  1 0.19780378D+03 0.00000000D+00  -5  7  0 0.00000000D+00 0.00000000D+00 0.00000000D+00 0.00000000D+00 0.00000000D+00
  <mgrwgt>
 0.1143276970D-02    3    2    0
 0.347792396080265D+03 0.000000000000000D+00 0.000000000000000D+00 0.347792396080265D+03
 0.347792396080265D+03 0.000000000000000D+00 0.000000000000000D+00 -.347792396080265D+03
 0.954768265128627D+02 -.197471257271555D+02 0.324749724053312D+02 0.346992166970038D+02
 0.107077232583761D+03 -.534293884684057D+01 0.615260063980947D+02 0.874730660202181D+02
 0.191213004361037D+03 0.740894985256386D+02 -.664895963164413D+02 0.163255299536248D+03
 0.301817728702868D+03 -.489994339516425D+02 -.275113824869847D+02 -.285427582253470D+03
 0.000000000000000D+00 -.000000000000000D+00 0.000000000000000D+00 -.000000000000000D+00
 0.395458992579092D+03 0.000000000000000D+00 0.000000000000000D+00 0.395458992579092D+03
 0.650314898134179D+03 0.000000000000000D+00 0.000000000000000D+00 -.650314898134179D+03
 0.884968194496423D+02 -.452455272396211D+01 0.118306331865422D+02 0.346992166970038D+02
 0.963390145807872D+02 0.114883777055806D+02 0.386999435285583D+02 0.874730660202181D+02
 0.226515831723522D+03 0.108653730101134D+03 -.113364439441294D+03 0.163255299536248D+03
 0.311811206458633D+03 0.177420383488899D+01 -.963688746873628D+02 -.285427582253470D+03
 0.322611018500687D+03 -.117391758917641D+03 0.159202737413556D+03 -.254855905555086D+03
0.150053036971D-04 0.000000000000D+00 0.000000000000D+00 0.128791442636D-08 0.000000000000D+00  7 -2 2 24 -11 11 -24 21 0 0.18254670D-01 0.15683373D+00 0.30339135D+05 0.30339135D+05 0.30339135D+05 0.11668832D+01  1  2  2  1  7  1       -2 0.109343383295D-02 0.100000000000D+01
-.348954464702D-06 0.000000000000D+00 -.576243171842D-07 0.128791442636D-08 0.000000000000D+00  7 -2 2 24 -11 11 -24 21 2 0.18254670D-01 0.15683373D+00 0.30339135D+05 0.30339135D+05 0.30339135D+05 0.11668832D+01  1  2  3  1  7  1       -2 -.346235247271D-04 0.100000000000D+01
0.851300355080D-06 0.000000000000D+00 0.000000000000D+00 0.128791442636D-08 0.000000000000D+00  7 -2 2 24 -11 11 -24 21 2 0.18254670D-01 0.15683373D+00 0.30339135D+05 0.30339135D+05 0.30339135D+05 0.11668832D+01  1  2 15  1  7  1       -2 0.844666622035D-04 0.100000000000D+01
  </mgrwgt>
  </event>
  <event>
  9     66 0.27011060E-05 0.34384445E+03 0.75467711E-02 0.94560045E-01
       -2 -1    0    0    0  501 0.00000000E+00 0.00000000E+00 0.41883976E+03 0.41883988E+03 0.32000000E+00 0.0000E+00 0.9000E+01
        2 -1    0    0  502    0 0.00000000E+00 0.00000000E+00 -.82821491E+03 0.82821498E+03 0.32000000E+00 0.0000E+00 0.9000E+01
       25  2    1    2    0    0 -.87156548E+02 -.37724491E+03 0.46059410E+02 0.49318351E+03 0.30199093E+03 0.0000E+00 0.0000E+00
       23  2    1    2    0    0 -.11867336E+03 0.20652077E+03 -.35513889E+02 0.25602938E+03 0.86922996E+02 0.0000E+00 0.0000E+00
       24  1    3    3    0    0 -.82691643E+02 -.17839506E+02 0.44346443E+02 0.12485984E+03 0.80419002E+02 0.0000E+00 0.9000E+01
      -13  1    4    4    0    0 -.12011827E+03 0.13069500E+03 -.29589710E+02 0.17995873E+03 0.10565837E+00 0.0000E+00 0.9000E+01
       13  1    4    4    0    0 0.14449113E+01 0.75825774E+02 -.59241792E+01 0.76070643E+02 0.10565837E+00 0.0000E+00 0.9000E+01
      -24  1    3    3    0    0 -.44649052E+01 -.35940540E+03 0.17129665E+01 0.36832368E+03 0.80419002E+02 0.0000E+00 0.9000E+01
       21  1    1    2  502  501 0.20582991E+03 0.17072414E+03 -.41992068E+03 0.49784196E+03 0.75000000E+00 0.0000E+00 0.9000E+01
#aMCatNLO 2  0  0  2  1 0.26741856D+03 0.00000000D+00  -5  7  0 0.00000000D+00 0.00000000D+00 0.00000000D+00 0.00000000D+00 0.00000000D+00
  <mgrwgt>
 0.1183982446D-03    2    2    0
 0.349891433468920D+03 0.000000000000000D+00 0.000000000000000D+00 0.349891433468920D+03
 0.349891433468920D+03 0.000000000000000D+00 0.000000000000000D+00 -.349891433468920D+03
 0.104336499400926D+03 -.502195489492909D+02 0.909423832466781D+01 0.425932023390208D+02
 0.189670819467014D+03 -.675481436501681D+02 0.174299146576302D+03 -.321259326631581D+02
 0.100457136884958D+03 0.265350489158724D+02 0.966363782446553D+02 -.699556501730022D+01
 0.305318411184943D+03 0.912326436835866D+02 -.280029763145625D+03 -.347170465856246D+01
 0.000000000000000D+00 0.000000000000000D+00 0.000000000000000D+00 -.000000000000000D+00
 0.412985135321235D+03 0.000000000000000D+00 0.000000000000000D+00 0.412985135321235D+03
 0.839955200816974D+03 0.000000000000000D+00 0.000000000000000D+00 -.839955200816974D+03
 0.124247948446766D+03 -.826916432847369D+02 -.178395062778304D+02 0.425932023390208D+02
 0.180393245076508D+03 -.120118453341678D+03 0.130695082105482D+03 -.321259326631581D+02
 0.761614198004366D+02 0.144508987412759D+01 0.758256925544551D+02 -.699556501730022D+01
 0.368336055057926D+03 -.446490522362743D+01 -.359405405342453D+03 -.347170465856246D+01
 0.503801667756572D+03 0.205829911975914D+03 0.170724136960346D+03 -.426970065495739D+03
-.687051116782D-06 0.000000000000D+00 0.000000000000D+00 0.230993719101D-08 0.000000000000D+00  7 -2 2 24 -13 13 -24 21 2 0.54592534D-01 0.12564886D+00 0.25291167D+06 0.25291167D+06 0.25291167D+06 0.10900810D+01  1  2 13  2  7  2        2 -.108867692032D-04 0.100000000000D+01
0.117032396608D-04 0.000000000000D+00 0.000000000000D+00 0.230993719101D-08 0.435762252070D-12  7 -2 2 24 -13 13 -24 21 2 0.64436859D-01 0.12741761D+00 0.25291167D+06 0.25291167D+06 0.25291167D+06 0.10900810D+01  1  2  1  2  7  2        2 0.129285013792D-03 0.100000000000D+01
  </mgrwgt>
  </event>
  <event>
  8     66 0.27011060E-05 0.28191782E+03 0.75467711E-02 0.91696816E-01
       -2 -1    0    0    0  501 0.00000000E+00 0.00000000E+00 0.21442135E+03 0.21442159E+03 0.32000000E+00 0.0000E+00 0.9000E+01
        2 -1    0    0  501    0 0.00000000E+00 0.00000000E+00 -.27739245E+04 0.27739245E+04 0.32000000E+00 0.0000E+00 0.9000E+01
       25  2    1    2    0    0 0.13605160E+03 0.13821290E+03 0.58190300E+02 0.36193834E+03 0.30000068E+03 0.0000E+00 0.0000E+00
       23  2    1    2    0    0 -.13605160E+03 -.13821290E+03 -.26176935E+04 0.26264078E+04 0.89921673E+02 0.0000E+00 0.0000E+00
       24  1    3    3    0    0 0.20006865E+03 0.11946111E+03 0.71357863E+02 0.25662732E+03 0.80419002E+02 0.0000E+00 0.9000E+01
      -13  1    4    4    0    0 -.11127767E+02 0.12731913E+02 -.15069378E+03 0.15163955E+03 0.10565837E+00 0.0000E+00 0.9000E+01
       13  1    4    4    0    0 -.12492383E+03 -.15094481E+03 -.24669997E+04 0.24747682E+04 0.10565837E+00 0.0000E+00 0.9000E+01
      -24  1    3    3    0    0 -.64017046E+02 0.18751790E+02 -.13167562E+02 0.10531103E+03 0.80419002E+02 0.0000E+00 0.9000E+01
#aMCatNLO 1  0  0  1  1 0.57281293D+03 0.00000000D+00  -5  7  0 0.00000000D+00 0.00000000D+00 0.00000000D+00 0.00000000D+00 0.00000000D+00
  <mgrwgt>
 0.1729898693D-02    3    2    0
 0.771225666866898D+03 0.000000000000000D+00 0.000000000000000D+00 0.771225666866898D+03
 0.771225666866898D+03 0.000000000000000D+00 0.000000000000000D+00 -.771225666866898D+03
 0.615599278383736D+03 0.200068645870822D+03 0.119461109715020D+03 0.564089386354040D+03
 0.437283652245187D+02 -.111276099483471D+02 0.127321386378006D+02 -.403266520771831D+02
 0.700943950521678D+03 -.124923990255602D+03 -.150945038183644D+03 -.673002239133937D+03
 0.182179739603862D+03 -.640170456668737D+02 0.187517898308229D+02 0.149239504857080D+03
 0.000000000000000D+00 0.000000000000000D+00 0.000000000000000D+00 -.000000000000000D+00
 0.938685404550367D+03 0.000000000000000D+00 0.000000000000000D+00 0.938685404550367D+03
 0.152985674869651D+04 0.000000000000000D+00 0.000000000000000D+00 -.152985674869651D+04
 0.572717756281416D+03 0.487011306243350D+02 -.311412344694779D+02 0.564089386354040D+03
 0.462408812823915D+02 -.225878692016255D+02 0.132981162136458D+01 -.403266520771831D+02
 0.820141976493823D+03 -.318679520583091D+03 -.343721123716353D+03 -.673002239133937D+03
 0.206277997458006D+03 -.113498691323748D+03 -.304797234030236D+02 0.149239504857080D+03
 0.823163541731242D+03 0.406064950484129D+03 0.404012269967489D+03 -.591171344146146D+03
0.558202617564D-03 0.000000000000D+00 0.000000000000D+00 0.156580546716D-04 0.000000000000D+00  7 -2 2 24 -13 13 -24 21 0 0.32987920D-01 0.42675764D+00 0.79477659D+05 0.79477659D+05 0.79477659D+05 0.11300012D+01  1  2  2  1  7  1       -2 0.158373359723D-02 0.100000000000D+01
0.717545479166D-05 0.000000000000D+00 -.214364502957D-05 0.156580546716D-04 0.000000000000D+00  7 -2 2 24 -13 13 -24 21 2 0.32987920D-01 0.42675764D+00 0.79477659D+05 0.79477659D+05 0.79477659D+05 0.11300012D+01  1  2  3  1  7  1       -2 0.259954589504D-04 0.100000000000D+01
0.331700932808D-04 0.000000000000D+00 0.000000000000D+00 0.156580546716D-04 0.000000000000D+00  7 -2 2 24 -13 13 -24 21 2 0.32987920D-01 0.42675764D+00 0.79477659D+05 0.79477659D+05 0.79477659D+05 0.11300012D+01  1  2 15  1  7  1       -2 0.120169637089D-03 0.100000000000D+01
  </mgrwgt>
  </event>
  <event>
  8     66 0.27011060E-05 0.13948706E+03 0.75467711E-02 0.10396947E+00
       -2 -1    0    0    0  501 0.00000000E+00 0.00000000E+00 0.10877425E+04 0.10877425E+04 0.32000000E+00 0.0000E+00 0.9000E+01
        2 -1    0    0  501    0 0.00000000E+00 0.00000000E+00 -.76337369E+02 0.76338039E+02 0.32000000E+00 0.0000E+00 0.9000E+01
       25  2    1    2    0    0 0.40677669E+02 0.16576433E+03 0.83017341E+03 0.89875179E+03 0.29905587E+03 0.0000E+00 0.0000E+00
       23  2    1    2    0    0 -.40677669E+02 -.16576433E+03 0.18123173E+03 0.26532880E+03 0.91771153E+02 0.0000E+00 0.0000E+00
       24  1    3    3    0    0 -.19764301E+02 0.12339105E+02 0.50486061E+02 0.97769829E+02 0.80419002E+02 0.0000E+00 0.9000E+01
      -11  1    4    4    0    0 -.55820045E+01 0.88941710E+01 -.92073543E+00 0.10541006E+02 0.51099893E-03 0.0000E+00 0.9000E+01
       11  1    4    4    0    0 -.35095665E+02 -.17465850E+03 0.18215246E+03 0.25478779E+03 0.51099893E-03 0.0000E+00 0.9000E+01
      -24  1    3    3    0    0 0.60441970E+02 0.15342523E+03 0.77968734E+03 0.80098196E+03 0.80419002E+02 0.0000E+00 0.9000E+01
#aMCatNLO 1  0  0  2  1 0.17910837D+02 0.00000000D+00  -5  7  0 0.00000000D+00 0.00000000D+00 0.00000000D+00 0.00000000D+00 0.00000000D+00
  <mgrwgt>
 0.7538316240D-03    9    2    0
 0.288159362081834D+03 0.000000000000000D+00 0.000000000000000D+00 0.288159362081834D+03
 0.288159362081834D+03 0.000000000000000D+00 0.000000000000000D+00 -.288159362081834D+03
 0.108880894455082D+03 -.197643006609855D+02 0.123391049653819D+02 -.696056903636735D+02
 0.229071455699359D+02 -.558200446237758D+01 0.889417102896820D+01 -.203585919466867D+02
 0.194967786265943D+03 -.350956648597879D+02 -.174658503982433D+03 -.792157747933476D+02
 0.249562897872708D+03 0.604419699831510D+02 0.153425227988083D+03 0.169180057103708D+03
 0.000000000000000D+00 0.000000000000000D+00 0.000000000000000D+00 -.000000000000000D+00
 0.297014212353551D+03 0.000000000000000D+00 0.000000000000000D+00 0.297014212353551D+03
 0.297500190242369D+03 0.000000000000000D+00 0.000000000000000D+00 -.297500190242369D+03
 0.109252622268564D+03 -.226421816988869D+02 0.105498338895948D+02 -.696056903636735D+02
 0.229195832852032D+02 -.618660606593736D+01 0.851827079286499D+01 -.203585919466867D+02
 0.198854203994951D+03 -.402914406172396D+02 -.177888884653715D+03 -.792157747933476D+02
 0.245570564004416D+03 0.539095708242823D+02 0.149363825617197D+03 0.169180057103708D+03
 0.179174290427854D+02 0.152106575577815D+02 0.945695435405797D+01 -.485977888817999D+00
0.304665538546D-04 0.000000000000D+00 0.000000000000D+00 0.327595114412D-06 0.000000000000D+00  7 -2 2 24 -11 11 -24 21 0 0.16734506D+00 0.11744266D-01 0.51948124D+05 0.51948124D+05 0.51948124D+05 0.11458381D+01  1  2  2  2  7  2        2 0.452957826018D-03 0.100000000000D+01
-.157940702778D-05 0.000000000000D+00 -.116999588829D-06 0.327595114412D-06 0.000000000000D+00  7 -2 2 24 -11 11 -24 21 2 0.16734506D+00 0.11744266D-01 0.51948124D+05 0.51948124D+05 0.51948124D+05 0.11458381D+01  1  2  3  2  7  2        2 -.308301075687D-04 0.100000000000D+01
0.187597818908D-05 0.000000000000D+00 0.000000000000D+00 0.327595114412D-06 0.000000000000D+00  7 -2 2 24 -11 11 -24 21 2 0.16734506D+00 0.11744266D-01 0.51948124D+05 0.51948124D+05 0.51948124D+05 0.11458381D+01  1  2 15  2  7  2        2 0.366191921074D-04 0.100000000000D+01
0.656255853799D-04 0.000000000000D+00 0.000000000000D+00 0.327595114412D-06 0.000000000000D+00  7 -2 2 24 -11 11 -24 21 2 0.16734506D+00 0.12299784D-01 0.55941668D+05 0.55941668D+05 0.55941668D+05 0.11430306D+01  1  2 12  2  7  2        2 0.120232211313D-02 0.100000000000D+01
-.512344623272D-04 0.000000000000D+00 0.000000000000D+00 0.327595114412D-06 0.000000000000D+00  7 -2 2 24 -11 11 -24 21 2 0.16734506D+00 0.11744266D-01 0.51948124D+05 0.51948124D+05 0.51948124D+05 0.11458381D+01  1  2  4  2  7  2        2 -.100009937717D-02 0.100000000000D+01
-.381361231934D-03 0.000000000000D+00 -.707926695269D-04 0.327595114412D-06 0.000000000000D+00  7 -2 2 24 -11 11 -24 21 2 0.16734506D+00 0.12509830D-01 0.51948124D+05 0.51948124D+05 0.51948124D+05 0.11458381D+01  1  2  5  2  7  2        2 -.688283842693D-02 0.100000000000D+01
0.385204357975D-03 0.000000000000D+00 0.706517473353D-04 0.327595114412D-06 0.000000000000D+00  7 -2 2 24 -11 11 -24 21 2 0.16734506D+00 0.11744266D-01 0.51948124D+05 0.51948124D+05 0.51948124D+05 0.11458381D+01  1  2  6  2  7  2        2 0.751920916106D-02 0.100000000000D+01
0.762035196993D-06 0.000000000000D+00 0.000000000000D+00 0.327595114412D-06 0.000000000000D+00  7 -2 21 24 -11 11 -24 -2 2 0.16734506D+00 0.12299784D-01 0.55941668D+05 0.55941668D+05 0.55941668D+05 0.11430306D+01  1  2 12  4  7  2        2 0.130640226918D-03 0.100000000000D+01
-.401965797857D-05 0.000000000000D+00 -.764311868722D-06 0.327595114412D-06 0.000000000000D+00  7 -2 21 24 -11 11 -24 -2 2 0.16734506D+00 0.12509830D-01 0.51948124D+05 0.51948124D+05 0.51948124D+05 0.11458381D+01  1  2  5  4  7  2        2 -.674148983597D-03 0.100000000000D+01
  </mgrwgt>
  </event>
  <event>
  8     66 0.27011060E-05 0.34248759E+03 0.75467711E-02 0.92633727E-01
       -2 -1    0    0    0  501 0.00000000E+00 0.00000000E+00 0.79166064E+03 0.79166070E+03 0.32000000E+00 0.0000E+00 0.9000E+01
        2 -1    0    0  501    0 0.00000000E+00 0.00000000E+00 -.41886361E+03 0.41886373E+03 0.32000000E+00 0.0000E+00 0.9000E+01
       25  2    1    2    0    0 0.44393912E+03 0.29580731E+03 0.19344418E+03 0.64045063E+03 0.29693846E+03 0.0000E+00 0.0000E+00
       23  2    1    2    0    0 -.44393912E+03 -.29580731E+03 0.17935285E+03 0.57007381E+03 0.90734733E+02 0.0000E+00 0.0000E+00
       24  1    3    3    0    0 0.46229085E+02 0.15372457E+03 0.74481988E+02 0.19437889E+03 0.80419002E+02 0.0000E+00 0.9000E+01
      -11  1    4    4    0    0 -.36877962E+03 -.25715739E+03 0.11560297E+03 0.46421156E+03 0.51099893E-03 0.0000E+00 0.9000E+01
       11  1    4    4    0    0 -.75159505E+02 -.38649927E+02 0.63749880E+02 0.10586225E+03 0.51099893E-03 0.0000E+00 0.9000E+01
      -24  1    3    3    0    0 0.39771004E+03 0.14208275E+03 0.11896219E+03 0.44607174E+03 0.80419002E+02 0.0000E+00 0.9000E+01
#aMCatNLO 1  0  0  1  2 0.51671978D+02 0.00000000D+00  -5  7  0 0.00000000D+00 0.00000000D+00 0.00000000D+00 0.00000000D+00 0.00000000D+00
  <mgrwgt>
 0.3438741084D-02    9    2    0
 0.575845419427326D+03 0.000000000000000D+00 0.000000000000000D+00 0.575845419427326D+03
 0.575845419427326D+03 0.000000000000000D+00 0.000000000000000D+00 -.575845419427326D+03
 0.180199169264904D+03 0.462290851644852D+02 0.153724565394096D+03 0.153673136442856D+02
 0.450505444944879D+03 -.368779615661518D+03 -.257157385121373D+03 -.287546565805388D+02
 0.906346278475179D+02 -.751595049212356D+02 -.386499268093527D+02 0.327393912998469D+02
 0.430351596797351D+03 0.397710035418268D+03 0.142082746536629D+03 -.193520483635937D+02
 0.000000000000000D+00 0.000000000000000D+00 0.000000000000000D+00 0.000000000000000D+00
 0.605314823572424D+03 0.000000000000000D+00 0.000000000000000D+00 0.605314823572424D+03
 0.599529440890568D+03 0.000000000000000D+00 0.000000000000000D+00 -.599529440890568D+03
 0.173327331537102D+03 0.424572498062787D+02 0.146752770037391D+03 0.153673136442856D+02
 0.468979506776165D+03 -.378589759581061D+03 -.275290285773590D+03 -.287546565805388D+02
 0.938555659358087D+02 -.771278626951951D+02 -.422882053357383D+02 0.327393912998469D+02
 0.416687014217676D+03 0.388672834032956D+03 0.125378539520105D+03 -.193520483635937D+02
 0.519948459962401D+02 0.245875384370219D+02 0.454471815518320D+02 0.578538268185569D+01
0.330872468264D-03 0.000000000000D+00 0.000000000000D+00 0.203921434807D-06 0.000000000000D+00  7 -2 2 24 -11 11 -24 21 0 0.12179396D+00 0.64440570D-01 0.32693278D+06 0.32693278D+06 0.32693278D+06 0.10818003D+01  1  2  2  1  7  1       -2 0.154972398721D-02 0.100000000000D+01
-.183806821180D-04 0.000000000000D+00 -.127063739886D-05 0.203921434807D-06 0.000000000000D+00  7 -2 2 24 -11 11 -24 21 2 0.12179396D+00 0.64440570D-01 0.32693278D+06 0.32693278D+06 0.32693278D+06 0.10818003D+01  1  2  3  1  7  1       -2 -.100751033450D-03 0.100000000000D+01
0.211647655437D-04 0.000000000000D+00 0.000000000000D+00 0.203921434807D-06 0.000000000000D+00  7 -2 2 24 -11 11 -24 21 2 0.12179396D+00 0.64440570D-01 0.32693278D+06 0.32693278D+06 0.32693278D+06 0.10818003D+01  1  2 15  1  7  1       -2 0.116011581484D-03 0.100000000000D+01
0.659584389339D-03 0.000000000000D+00 0.000000000000D+00 0.203921434807D-06 0.000000000000D+00  7 -2 2 24 -11 11 -24 21 2 0.13041703D+00 0.64440570D-01 0.35796977D+06 0.35796977D+06 0.35796977D+06 0.10789206D+01  1  2 12  1  7  1       -2 0.299993074306D-02 0.100000000000D+01
-.549107961802D-03 0.000000000000D+00 0.000000000000D+00 0.203921434807D-06 0.000000000000D+00  7 -2 2 24 -11 11 -24 21 2 0.12179396D+00 0.64440570D-01 0.32693278D+06 0.32693278D+06 0.32693278D+06 0.10818003D+01  1  2  4  1  7  1       -2 -.300985536185D-02 0.100000000000D+01
-.262682549597D-02 0.000000000000D+00 -.481810477804D-03 0.203921434807D-06 0.000000000000D+00  7 -2 2 24 -11 11 -24 21 2 0.13197813D+00 0.64440570D-01 0.32693278D+06 0.32693278D+06 0.32693278D+06 0.10818003D+01  1  2  5  1  7  1       -2 -.116756666395D-01 0.100000000000D+01
0.265849007872D-02 0.000000000000D+00 0.480261050373D-03 0.203921434807D-06 0.000000000000D+00  7 -2 2 24 -11 11 -24 21 2 0.12179396D+00 0.64440570D-01 0.32693278D+06 0.32693278D+06 0.32693278D+06 0.10818003D+01  1  2  6  1  7  1       -2 0.145721263840D-01 0.100000000000D+01
0.785087747032D-05 0.000000000000D+00 0.000000000000D+00 0.203921434807D-06 0.000000000000D+00  7 21 2 24 -11 11 -24 2 2 0.13041703D+00 0.64440570D-01 0.35796977D+06 0.35796977D+06 0.35796977D+06 0.10789206D+01  1  2 12  3  7  1       -2 0.311241175193D-03 0.100000000000D+01
-.341535997760D-04 0.000000000000D+00 -.645731893038D-05 0.203921434807D-06 0.000000000000D+00  7 21 2 24 -11 11 -24 2 2 0.13197813D+00 0.64440570D-01 0.32693278D+06 0.32693278D+06 0.32693278D+06 0.10818003D+01  1  2  5  3  7  1       -2 -.132401975176D-02 0.100000000000D+01
  </mgrwgt>
  </event>
  <event>
  8     66 0.27011060E-05 0.34178190E+03 0.75467711E-02 0.95242765E-01
       -2 -1    0    0    0  501 0.00000000E+00 0.00000000E+00 0.16513118E+04 0.16513118E+04 0.32000000E+00 0.0000E+00 0.9000E+01
        2 -1    0    0  501    0 0.00000000E+00 0.00000000E+00 -.14816916E+03 0.14816951E+03 0.32000000E+00 0.0000E+00 0.9000E+01
       25  2    1    2    0    0 0.14758164E+02 -.37691638E+03 0.12405057E+04 0.13308943E+04 0.30023561E+03 0.0000E+00 0.0000E+00
       23  2    1    2    0    0 -.14758164E+02 0.37691638E+03 0.26263692E+03 0.46858704E+03 0.91169657E+02 0.0000E+00 0.0000E+00
       24  1    3    3    0    0 -.87719824E+02 -.30237684E+03 0.94773938E+03 0.10019000E+04 0.80419002E+02 0.0000E+00 0.9000E+01
      -11  1    4    4    0    0 -.29200204E+02 0.31751864E+03 0.18115934E+03 0.36672802E+03 0.51099893E-03 0.0000E+00 0.9000E+01
       11  1    4    4    0    0 0.14442040E+02 0.59397741E+02 0.81477576E+02 0.10185902E+03 0.51099893E-03 0.0000E+00 0.9000E+01
      -24  1    3    3    0    0 0.10247799E+03 -.74539539E+02 0.29276633E+03 0.32899425E+03 0.80419002E+02 0.0000E+00 0.9000E+01
#aMCatNLO 1  0  0  1  2 0.89293453D+02 0.00000000D+00  -5  7  0 0.00000000D+00 0.00000000D+00 0.00000000D+00 0.00000000D+00 0.00000000D+00
  <mgrwgt>
 0.1847969488D-02    9    2    0
 0.494645146612034D+03 0.000000000000000D+00 0.000000000000000D+00 0.494645146612034D+03
 0.494645146612034D+03 0.000000000000000D+00 0.000000000000000D+00 -.494645146612034D+03
 0.382408412783276D+03 -.877198236231663D+02 -.302376836969974D+03 0.201599750050956D+03
 0.391808049237210D+03 -.292002041448512D+02 0.317518635193304D+03 -.227690166300498D+03
 0.614794097764168D+02 0.144420400168875D+02 0.593977412483607D+02 -.656152735268186D+01
 0.153594421427166D+03 0.102477987751130D+03 -.745395394716905D+02 0.326519436022244D+02
 0.000000000000000D+00 -.000000000000000D+00 -.000000000000000D+00 0.000000000000000D+00
 0.545313024831342D+03 0.000000000000000D+00 0.000000000000000D+00 0.545313024831342D+03
 0.537622898471019D+03 0.000000000000000D+00 0.000000000000000D+00 -.537622898471019D+03
 0.372226280170928D+03 -.540810559619127D+02 -.297519693232149D+03 0.201599750050956D+03
 0.394887931425388D+03 0.586773476735734D+01 0.322582138755656D+03 -.227690166300498D+03
 0.637856665235916D+02 0.200258845406920D+02 0.602039995434001D+02 -.656152735268186D+01
 0.162412059322391D+03 0.116564364490279D+03 -.725055899151490D+02 0.326519436022244D+02
 0.896239858600637D+02 -.883769278364155D+02 -.127608551517585D+02 0.769012636032350D+01
0.517606297410D-03 0.000000000000D+00 0.000000000000D+00 0.517078998372D-05 0.000000000000D+00  7 -2 2 24 -11 11 -24 21 0 0.25404800D+00 0.22795285D-01 0.18276577D+06 0.18276577D+06 0.18276577D+06 0.11008438D+01  1  2  2  1  7  1       -2 0.874878619089D-03 0.100000000000D+01
-.280120600337D-04 0.000000000000D+00 -.198774447092D-05 0.517078998372D-05 0.000000000000D+00  7 -2 2 24 -11 11 -24 21 2 0.25404800D+00 0.22795285D-01 0.18276577D+06 0.18276577D+06 0.18276577D+06 0.11008438D+01  1  2  3  1  7  1       -2 -.573779038168D-04 0.100000000000D+01
0.296924261964D-04 0.000000000000D+00 0.000000000000D+00 0.517078998372D-05 0.000000000000D+00  7 -2 2 24 -11 11 -24 21 2 0.25404800D+00 0.22795285D-01 0.18276577D+06 0.18276577D+06 0.18276577D+06 0.11008438D+01  1  2 15  1  7  1       -2 0.608198458924D-04 0.100000000000D+01
0.489660020777D-03 0.000000000000D+00 0.000000000000D+00 0.517078998372D-05 0.000000000000D+00  7 -2 2 24 -11 11 -24 21 2 0.29008890D+00 0.22795285D-01 0.22438120D+06 0.22438120D+06 0.22438120D+06 0.10940091D+01  1  2 12  1  7  1       -2 0.577748961584D-03 0.100000000000D+01
-.415667893340D-03 0.000000000000D+00 0.000000000000D+00 0.517078998372D-05 0.000000000000D+00  7 -2 2 24 -11 11 -24 21 2 0.25404800D+00 0.22795285D-01 0.18276577D+06 0.18276577D+06 0.18276577D+06 0.11008438D+01  1  2  4  1  7  1       -2 -.851424435584D-03 0.100000000000D+01
-.148529303660D-02 0.000000000000D+00 -.373334449761D-03 0.517078998372D-05 0.000000000000D+00  7 -2 2 24 -11 11 -24 21 2 0.29310571D+00 0.22795285D-01 0.18276577D+06 0.18276577D+06 0.18276577D+06 0.11008438D+01  1  2  5  1  7  1       -2 -.171426839428D-02 0.100000000000D+01
0.152682917030D-02 0.000000000000D+00 0.369549016468D-03 0.517078998372D-05 0.000000000000D+00  7 -2 2 24 -11 11 -24 21 2 0.25404800D+00 0.22795285D-01 0.18276577D+06 0.18276577D+06 0.18276577D+06 0.11008438D+01  1  2  6  1  7  1       -2 0.312744786254D-02 0.100000000000D+01
0.101015596400D-04 0.000000000000D+00 0.000000000000D+00 0.517078998372D-05 0.000000000000D+00  7 21 2 24 -11 11 -24 2 2 0.29008890D+00 0.22795285D-01 0.22438120D+06 0.22438120D+06 0.22438120D+06 0.10940091D+01  1  2 12  3  7  1       -2 0.872972161132D-04 0.100000000000D+01
-.302140193411D-04 0.000000000000D+00 -.819205912189D-05 0.517078998372D-05 0.000000000000D+00  7 21 2 24 -11 11 -24 2 2 0.29310571D+00 0.22795285D-01 0.18276577D+06 0.18276577D+06 0.18276577D+06 0.11008438D+01  1  2  5  3  7  1       -2 -.257152283255D-03 0.100000000000D+01
  </mgrwgt>
  </event>
  <event>
  8     66 0.27011060E-05 0.26874498E+03 0.75467711E-02 0.89282926E-01
       -2 -1    0    0    0  501 0.00000000E+00 0.00000000E+00 0.64699048E+02 0.64699840E+02 0.32000000E+00 0.0000E+00 0.9000E+01
        2 -1    0    0  501    0 0.00000000E+00 0.00000000E+00 -.20861305E+04 0.20861305E+04 0.32000000E+00 0.0000E+00 0.9000E+01
       25  2    1    2    0    0 -.16385504E+03 0.57236675E+02 -.45485114E+03 0.57204079E+03 0.30036078E+03 0.0000E+00 0.0000E+00
       23  2    1    2    0    0 0.16385504E+03 -.57236675E+02 -.15665803E+04 0.15787896E+04 0.90984192E+02 0.0000E+00 0.0000E+00
       24  1    3    3    0    0 -.77793173E+01 -.85973871E+02 -.12516438E+03 0.17200396E+03 0.80419002E+02 0.0000E+00 0.9000E+01
      -11  1    4    4    0    0 0.14683900E+03 -.77855235E+02 -.14292827E+04 0.14389135E+04 0.51099893E-03 0.0000E+00 0.9000E+01
       11  1    4    4    0    0 0.17016038E+02 0.20618560E+02 -.13729761E+03 0.13987603E+03 0.51099893E-03 0.0000E+00 0.9000E+01
      -24  1    3    3    0    0 -.15607572E+03 0.14321055E+03 -.32968676E+03 0.40003683E+03 0.80419002E+02 0.0000E+00 0.9000E+01
#aMCatNLO 1  0  0  2  2 0.74125271D+03 0.00000000D+00  -5  7  0 0.00000000D+00 0.00000000D+00 0.00000000D+00 0.00000000D+00 0.00000000D+00
  <mgrwgt>
 0.9346671302D-03    5    2    0
 0.367384722943828D+03 0.000000000000000D+00 0.000000000000000D+00 0.367384722943828D+03
 0.367384722943828D+03 0.000000000000000D+00 0.000000000000000D+00 -.367384722943828D+03
 0.159152134235338D+03 -.777931733766133D+01 -.859738709430345D+02 0.106818358038882D+03
 0.279899938285525D+03 0.146839003544801D+03 -.778552350117659D+02 -.225212887889378D+03
 0.317268355382416D+02 0.170160378476729D+02 0.206185596126694D+02 -.170857118299472D+02
 0.263990537828551D+03 -.156075724054813D+03 0.143210546342131D+03 0.135480241680443D+03
 0.000000000000000D+00 -.000000000000000D+00 0.000000000000000D+00 -.000000000000000D+00
 0.839379865592944D+03 0.000000000000000D+00 0.000000000000000D+00 0.839379865592944D+03
 0.954469614459695D+03 0.000000000000000D+00 0.000000000000000D+00 -.954469614459695D+03
 0.248110835462969D+03 0.151897585234012D+03 -.143557419542547D+03 0.106818358038882D+03
 0.563583366200759D+03 0.477546215965960D+03 -.197116659375350D+03 -.225212887889378D+03
 0.541587636422161D+02 0.506894809864066D+02 0.847506034469087D+01 -.170857118299472D+02
 0.177862376209522D+03 0.171629692595646D+02 0.807362713836302D+02 0.135480241680443D+03
 0.750134138537172D+03 -.697296251445944D+03 0.251462747189576D+03 -.115089748866751D+03
0.185928076536D-04 0.000000000000D+00 0.000000000000D+00 0.226640550435D-05 0.000000000000D+00  7 -2 2 24 -11 11 -24 21 0 0.99537625D-02 0.32094321D+00 0.72223864D+05 0.72223864D+05 0.72223864D+05 0.11335068D+01  1  2  2  2  7  2        2 0.918846967873D-03 0.100000000000D+01
-.910172411842D-06 0.000000000000D+00 -.714012769884D-07 0.226640550435D-05 0.000000000000D+00  7 -2 2 24 -11 11 -24 21 2 0.99537625D-02 0.32094321D+00 0.72223864D+05 0.72223864D+05 0.72223864D+05 0.11335068D+01  1  2  3  2  7  2        2 -.577923173576D-04 0.100000000000D+01
0.115863782925D-05 0.000000000000D+00 0.000000000000D+00 0.226640550435D-05 0.000000000000D+00  7 -2 2 24 -11 11 -24 21 2 0.99537625D-02 0.32094321D+00 0.72223864D+05 0.72223864D+05 0.72223864D+05 0.11335068D+01  1  2 15  2  7  2        2 0.735688802026D-04 0.100000000000D+01
0.318571820601D-05 0.000000000000D+00 -.444644377113D-05 0.226640550435D-05 0.000000000000D+00  7 -2 2 24 -11 11 -24 21 2 0.99537625D-02 0.89336222D+00 0.72223864D+05 0.72223864D+05 0.72223864D+05 0.11335068D+01  1  2  5  2  7  2        2 0.435767143009D-07 0.100000000000D+01
0.615808962561D-06 0.000000000000D+00 -.510622469809D-06 0.226640550435D-05 0.000000000000D+00  7 -2 21 24 -11 11 -24 -2 2 0.99537625D-02 0.89336222D+00 0.72223864D+05 0.72223864D+05 0.72223864D+05 0.11335068D+01  1  2  5  4  7  2        2 0.227194217355D-10 0.100000000000D+01
  </mgrwgt>
  </event>
  <event>
  8     66 0.27011060E-05 0.19296717E+03 0.75467711E-02 0.94461671E-01
       -2 -1    0    0    0  501 0.00000000E+00 0.00000000E+00 0.33948748E+03 0.33948763E+03 0.32000000E+00 0.0000E+00 0.9000E+01
        2 -1    0    0  501    0 0.00000000E+00 0.00000000E+00 -.23950396E+03 0.23950418E+03 0.32000000E+00 0.0000E+00 0.9000E+01
       25  2    1    2    0    0 -.40881879E+02 -.13973229E+03 0.19780864E+03 0.38822346E+03 0.30065388E+03 0.0000E+00 0.0000E+00
       23  2    1    2    0    0 0.40881879E+02 0.13973229E+03 -.97825123E+02 0.19076835E+03 0.75009136E+02 0.0000E+00 0.0000E+00
       24  1    3    3    0    0 -.50259883E+02 -.21843338E+02 0.22272321E+03 0.24305561E+03 0.80419002E+02 0.0000E+00 0.9000E+01
      -11  1    4    4    0    0 0.18432458E+02 0.66655945E+02 -.90603062E+02 0.11398107E+03 0.51099893E-03 0.0000E+00 0.9000E+01
       11  1    4    4    0    0 0.22449420E+02 0.73076342E+02 -.72220610E+01 0.76787281E+02 0.51099893E-03 0.0000E+00 0.9000E+01
      -24  1    3    3    0    0 0.93780049E+01 -.11788895E+03 -.24914568E+02 0.14516784E+03 0.80419002E+02 0.0000E+00 0.9000E+01
#aMCatNLO 1  0  0  2  2 0.43519652D+03 0.00000000D+00  -5  7  0 0.00000000D+00 0.00000000D+00 0.00000000D+00 0.00000000D+00 0.00000000D+00
  <mgrwgt>
 0.3167712060D-02    5    2    0
 0.285146809910112D+03 0.000000000000000D+00 0.000000000000000D+00 0.285146809910112D+03
 0.285146809910112D+03 0.000000000000000D+00 0.000000000000000D+00 -.285146809910112D+03
 0.207715035070224D+03 -.502598834603864D+02 -.218433384871737D+02 0.183507854104768D+03
 0.131603999519316D+03 0.184324584176309D+02 0.666559445626463D+02 -.111968041068082D+03
 0.792246170296620D+02 0.224494201599963D+02 0.730763423974951D+02 -.207945103279834D+02
 0.151749968201023D+03 0.937800488275923D+01 -.117888948472968D+03 -.507453027087028D+02
 0.000000000000000D+00 -.000000000000000D+00 -.000000000000000D+00 -.000000000000000D+00
 0.540965294534169D+03 0.000000000000000D+00 0.000000000000000D+00 0.540965294534169D+03
 0.618453700212020D+03 0.000000000000000D+00 0.000000000000000D+00 -.618453700212020D+03
 0.226139601662974D+03 0.310918459224732D+02 0.100150227582937D+03 0.183507854104768D+03
 0.215669091404176D+03 0.835493527015808D+02 0.164304048731691D+03 -.111968041068082D+03
 0.155557519702398D+03 0.664732272931255D+02 0.139093638709388D+03 -.207945103279834D+02
 0.120011531044102D+03 0.603357821459888D+02 -.414735973242366D+02 -.507453027087028D+02
 0.442041250932539D+03 -.241450208063168D+03 -.362074317699780D+03 -.774884056778509D+02
0.430090534494D-04 0.000000000000D+00 0.000000000000D+00 0.261223192227D-08 0.000000000000D+00  7 -2 2 24 -11 11 -24 21 0 0.52228871D-01 0.36846792D-01 0.37236329D+05 0.37236329D+05 0.37236329D+05 0.11587276D+01  1  2  2  2  7  2        2 0.257476703952D-02 0.100000000000D+01
-.194642057654D-05 0.000000000000D+00 -.165166089790D-06 0.261223192227D-08 0.000000000000D+00  7 -2 2 24 -11 11 -24 21 2 0.52228871D-01 0.36846792D-01 0.37236329D+05 0.37236329D+05 0.37236329D+05 0.11587276D+01  1  2  3  2  7  2        2 -.156450684434D-03 0.100000000000D+01
0.271897944549D-05 0.000000000000D+00 0.000000000000D+00 0.261223192227D-08 0.000000000000D+00  7 -2 2 24 -11 11 -24 21 2 0.52228871D-01 0.36846792D-01 0.37236329D+05 0.37236329D+05 0.37236329D+05 0.11587276D+01  1  2 15  2  7  2        2 0.218547933749D-03 0.100000000000D+01
0.248493518217D-04 0.000000000000D+00 -.162106166499D-04 0.261223192227D-08 0.000000000000D+00  7 -2 2 24 -11 11 -24 21 2 0.52228871D-01 0.13681330D+00 0.37236329D+05 0.37236329D+05 0.37236329D+05 0.11587276D+01  1  2  5  2  7  2        2 0.458935737757D-03 0.100000000000D+01
0.422959338234D-05 0.000000000000D+00 -.251144069204D-05 0.261223192227D-08 0.000000000000D+00  7 -2 21 24 -11 11 -24 -2 2 0.52228871D-01 0.13681330D+00 0.37236329D+05 0.37236329D+05 0.37236329D+05 0.11587276D+01  1  2  5  4  7  2        2 0.719120335797D-04 0.100000000000D+01
  </mgrwgt>
  </event>
  <event>
  8     66 0.27011060E-05 0.89340841E+03 0.75467711E-02 0.81716514E-01
       -2 -1    0    0    0  501 0.00000000E+00 0.00000000E+00 0.17220046E+04 0.17220046E+04 0.32000000E+00 0.0000E+00 0.9000E+01
        2 -1    0    0  501    0 0.00000000E+00 0.00000000E+00 -.27674518E+04 0.27674518E+04 0.32000000E+00 0.0000E+00 0.9000E+01
       25  2    1    2    0    0 0.40189005E+03 0.14684781E+04 0.10676244E+04 0.18834381E+04 0.29928907E+03 0.0000E+00 0.0000E+00
       23  2    1    2    0    0 -.40189005E+03 -.14684781E+04 -.21130716E+04 0.26060183E+04 0.91193460E+02 0.0000E+00 0.0000E+00
       24  1    3    3    0    0 0.77602851E+02 0.15901074E+03 0.19164195E+03 0.27294774E+03 0.80419002E+02 0.0000E+00 0.9000E+01
      -11  1    4    4    0    0 -.21483349E+03 -.94525344E+03 -.13629901E+04 0.16725428E+04 0.51099893E-03 0.0000E+00 0.9000E+01
       11  1    4    4    0    0 -.18705656E+03 -.52322462E+03 -.75008150E+03 0.93347545E+03 0.51099893E-03 0.0000E+00 0.9000E+01
      -24  1    3    3    0    0 0.32428720E+03 0.13094673E+04 0.87598242E+03 0.16104904E+04 0.80419002E+02 0.0000E+00 0.9000E+01
#aMCatNLO 1  0  0  2  1 0.63917502D+03 0.00000000D+00  -5  7  0 0.00000000D+00 0.00000000D+00 0.00000000D+00 0.00000000D+00 0.00000000D+00
  <mgrwgt>
 0.1866780379D-03    9    2    0
 0.218301734171419D+04 0.000000000000000D+00 0.000000000000000D+00 0.218301734171419D+04
 0.218301734171419D+04 0.000000000000000D+00 0.000000000000000D+00 -.218301734171419D+04
 0.326552267450581D+03 0.776028513271555D+02 0.159010738270690D+03 0.262416748709473D+03
 0.139345523330038D+04 -.214833490368080D+03 -.945253438063446D+03 -.100102946832635D+04
 0.780256444685049D+03 -.187056556077563D+03 -.523224623453435D+03 -.547764509358689D+03
 0.186577073799237D+04 0.324287195118488D+03 0.130946732324619D+04 0.128637722897556D+04
 0.000000000000000D+00 0.000000000000000D+00 -.000000000000000D+00 -.000000000000000D+00
 0.249915458111454D+04 0.000000000000000D+00 0.000000000000000D+00 0.249915458111454D+04
 0.255503153197477D+04 0.000000000000000D+00 0.000000000000000D+00 -.255503153197477D+04
 0.349473661148771D+03 0.645722288894931D+02 0.206476393651546D+03 0.262416748709473D+03
 0.128318936324454D+04 -.266426696577863D+03 -.757318797361332D+03 -.100102946832635D+04
 0.721957287868485D+03 -.216012220559447D+03 -.417750030954434D+03 -.547764509358689D+03
 0.205795303693599D+04 0.248656126992590D+03 0.158496285179240D+04 0.128637722897556D+04
 0.641612763891519D+03 0.169210561255227D+03 -.616370417128181D+03 -.558769508602367D+02
0.989364926289D-02 0.000000000000D+00 0.000000000000D+00 0.281779944875D-04 0.000000000000D+00  7 -2 2 24 -11 11 -24 21 0 0.26492378D+00 0.42576182D+00 0.23574379D+07 0.23574379D+07 0.23574379D+07 0.10239364D+01  1  2  2  2  7  2        2 0.118580995368D-03 0.100000000000D+01
-.466880749966D-03 0.000000000000D+00 -.379942182272D-04 0.281779944875D-04 0.000000000000D+00  7 -2 2 24 -11 11 -24 21 2 0.26492378D+00 0.42576182D+00 0.23574379D+07 0.23574379D+07 0.23574379D+07 0.10239364D+01  1  2  3  2  7  2        2 -.586692445326D-05 0.100000000000D+01
0.585331643642D-03 0.000000000000D+00 0.000000000000D+00 0.281779944875D-04 0.000000000000D+00  7 -2 2 24 -11 11 -24 21 2 0.26492378D+00 0.42576182D+00 0.23574379D+07 0.23574379D+07 0.23574379D+07 0.10239364D+01  1  2 15  2  7  2        2 0.735540399471D-05 0.100000000000D+01
0.457534686900D-02 0.000000000000D+00 0.000000000000D+00 0.281779944875D-04 0.000000000000D+00  7 -2 2 24 -11 11 -24 21 2 0.26492378D+00 0.52448520D+00 0.35145956D+07 0.35145956D+07 0.35145956D+07 0.10133509D+01  1  2 12  2  7  2        2 0.201678476356D-04 0.100000000000D+01
-.501584761889D-02 0.000000000000D+00 0.000000000000D+00 0.281779944875D-04 0.000000000000D+00  7 -2 2 24 -11 11 -24 21 2 0.26492378D+00 0.42576182D+00 0.23574379D+07 0.23574379D+07 0.23574379D+07 0.10239364D+01  1  2  4  2  7  2        2 -.630302257081D-04 0.100000000000D+01
-.131062653216D-01 0.000000000000D+00 -.456784617510D-02 0.281779944875D-04 0.000000000000D+00  7 -2 2 24 -11 11 -24 21 2 0.26492378D+00 0.52063969D+00 0.23574379D+07 0.23574379D+07 0.23574379D+07 0.10239364D+01  1  2  5  2  7  2        2 -.643466407178D-04 0.100000000000D+01
0.138351998926D-01 0.000000000000D+00 0.447694332306D-02 0.281779944875D-04 0.000000000000D+00  7 -2 2 24 -11 11 -24 21 2 0.26492378D+00 0.42576182D+00 0.23574379D+07 0.23574379D+07 0.23574379D+07 0.10239364D+01  1  2  6  2  7  2        2 0.173856113305D-03 0.100000000000D+01
0.135180513290D-03 0.000000000000D+00 0.000000000000D+00 0.281779944875D-04 0.000000000000D+00  7 -2 21 24 -11 11 -24 -2 2 0.26492378D+00 0.52448520D+00 0.35145956D+07 0.35145956D+07 0.35145956D+07 0.10133509D+01  1  2 12  4  7  2        2 0.215116854397D-07 0.100000000000D+01
-.323612144596D-03 0.000000000000D+00 -.131307079161D-03 0.281779944875D-04 0.000000000000D+00  7 -2 21 24 -11 11 -24 -2 2 0.26492378D+00 0.52063969D+00 0.23574379D+07 0.23574379D+07 0.23574379D+07 0.10239364D+01  1  2  5  4  7  2        2 -.600431883469D-07 0.100000000000D+01
  </mgrwgt>
  </event>
  <event>
  9     66 0.27011060E-05 0.30138481E+03 0.75467711E-02 0.99033187E-01
       -2 -1    0    0    0  502 0.00000000E+00 0.00000000E+00 0.12860483E+03 0.12860522E+03 0.32000000E+00 0.0000E+00 0.9000E+01
        2 -1    0    0  501    0 0.00000000E+00 0.00000000E+00 -.20053710E+04 0.20053710E+04 0.32000000E+00 0.0000E+00 0.9000E+01
       25  2    1    2    0    0 -.19777657E+03 -.14314684E+03 -.15967417E+04 0.16448171E+04 0.31021359E+03 0.0000E+00 0.0000E+00
       23  2    1    2    0    0 0.11278537E+03 0.15747922E+03 -.19505347E+02 0.21475130E+03 0.90649976E+02 0.0000E+00 0.0000E+00
       24  1    3    3    0    0 -.23743041E+02 0.69088284E+02 -.45737292E+03 0.47010012E+03 0.80419002E+02 0.0000E+00 0.9000E+01
      -13  1    4    4    0    0 0.90593001E+02 0.16283604E+03 -.26254640E+01 0.18635872E+03 0.10565837E+00 0.0000E+00 0.9000E+01
       13  1    4    4    0    0 0.22192371E+02 -.53568257E+01 -.16879883E+02 0.28392579E+02 0.10565837E+00 0.0000E+00 0.9000E+01
      -24  1    3    3    0    0 -.17403352E+03 -.21223512E+03 -.11393688E+04 0.11747169E+04 0.80419002E+02 0.0000E+00 0.9000E+01
       21  1    1    2  501  502 0.84991195E+02 -.14332374E+02 -.26051908E+03 0.27440786E+03 0.75000000E+00 0.0000E+00 0.9000E+01
#aMCatNLO 2  0  0  1  1 0.86191184D+02 0.00000000D+00  -5  7  0 0.00000000D+00 0.00000000D+00 0.00000000D+00 0.00000000D+00 0.00000000D+00
  <mgrwgt>
 0.3526129507D-03    1    2    0
 0.457796623702724D+03 0.000000000000000D+00 0.000000000000000D+00 0.457796623702724D+03
 0.457796623702724D+03 0.000000000000000D+00 0.000000000000000D+00 -.457796623702724D+03
 0.144111514140275D+03 -.102730927801648D+02 0.668167974245807D+02 -.986452821988200D+02
 0.379720574032023D+03 0.125415817751782D+03 0.156963986810327D+03 0.322212497965966D+03
 0.300115538648162D+02 0.248670307417263D+02 -.580810751465286D+01 0.157667382349375D+02
 0.361749605368334D+03 -.140009755713343D+03 -.217972676720255D+03 -.239333954002084D+03
 0.000000000000000D+00 0.000000000000000D+00 -.000000000000000D+00 -.000000000000000D+00
 0.486065739465238D+03 0.000000000000000D+00 0.000000000000000D+00 0.486065739465238D+03
 0.530585301122103D+03 0.000000000000000D+00 0.000000000000000D+00 -.530585301122103D+03
 0.146748187812142D+03 -.237430414009317D+02 0.690882837876725D+02 -.986452821988200D+02
 0.372214525573744D+03 0.905930936347849D+02 0.162836269265475D+03 0.322212497965966D+03
 0.277450041325721D+02 0.221922777129810D+02 -.535705419585502D+01 0.157667382349375D+02
 0.372933470558904D+03 -.174033524626185D+03 -.212235124983246D+03 -.239333954002084D+03
 0.970098525099801D+02 0.849911946793505D+02 -.143323738740464D+02 -.445195616568650D+02
0.156952549650D-04 0.000000000000D+00 0.000000000000D+00 0.220004672712D-07 0.198048963530D-10  7 -2 2 24 -13 13 -24 21 2 0.19785333D-01 0.30851775D+00 0.11902941D+06 0.11902941D+06 0.11902941D+06 0.11155661D+01  1  2  1  1  7  1       -2 0.352612950702D-03 0.100000000000D+01
  </mgrwgt>
  </event>
  <event>
  8     66 0.27011060E-05 0.30827671E+03 0.75467711E-02 0.88706815E-01
       -2 -1    0    0    0  501 0.00000000E+00 0.00000000E+00 0.93758077E+02 0.93758623E+02 0.32000000E+00 0.0000E+00 0.9000E+01
        2 -1    0    0  501    0 0.00000000E+00 0.00000000E+00 -.23697121E+04 0.23697121E+04 0.32000000E+00 0.0000E+00 0.9000E+01
       25  2    1    2    0    0 -.14962300E+03 0.20549725E+03 -.21113679E+04 0.21477114E+04 0.30028984E+03 0.0000E+00 0.0000E+00
       23  2    1    2    0    0 0.14962300E+03 -.20549725E+03 -.16458614E+03 0.31575929E+03 0.89438070E+02 0.0000E+00 0.0000E+00
       24  1    3    3    0    0 -.16650576E+02 0.18569776E+03 -.16014962E+04 0.16143166E+04 0.80419002E+02 0.0000E+00 0.9000E+01
      -11  1    4    4    0    0 0.68280288E+02 -.12487434E+03 -.42886407E+02 0.14864401E+03 0.51099893E-03 0.0000E+00 0.9000E+01
       11  1    4    4    0    0 0.81342715E+02 -.80622909E+02 -.12169973E+03 0.16711527E+03 0.51099893E-03 0.0000E+00 0.9000E+01
      -24  1    3    3    0    0 -.13297243E+03 0.19799493E+02 -.50987170E+03 0.53339484E+03 0.80419002E+02 0.0000E+00 0.9000E+01
#aMCatNLO 1  0  0  1  2 0.81004698D+03 0.00000000D+00  -5  7  0 0.00000000D+00 0.00000000D+00 0.00000000D+00 0.00000000D+00 0.00000000D+00
  <mgrwgt>
 0.8380072869D-03    3    2    0
 0.471360103873874D+03 0.000000000000000D+00 0.000000000000000D+00 0.471360103873874D+03
 0.471360103873874D+03 0.000000000000000D+00 0.000000000000000D+00 -.471360103873874D+03
 0.352055755500045D+03 -.166505759416785D+02 0.185697756031370D+03 -.287602400462967D+03
 0.284891193221963D+03 0.682802880487324D+02 -.124874340172756D+03 0.246793827730425D+03
 0.142885024332792D+03 0.813427146257893D+02 -.806229092658964D+02 0.854367570627130D+02
 0.162888234692947D+03 -.132972426732843D+03 0.197994934072820D+02 -.446281843301711D+02
 0.000000000000000D+00 0.000000000000000D+00 -.000000000000000D+00 -.000000000000000D+00
 0.875714794908209D+03 0.000000000000000D+00 0.000000000000000D+00 0.875714794908209D+03
 0.126668912771315D+04 0.000000000000000D+00 0.000000000000000D+00 -.126668912771315D+04
 0.621625719900272D+03 -.114630329164905D+03 0.533006629011915D+03 -.287602400462967D+03
 0.256418305282685D+03 0.138093214946359D+02 0.682089181710661D+02 0.246793827730425D+03
 0.102736683421740D+03 0.566262596863934D+02 0.698951908466925D+01 0.854367570627130D+02
 0.262158349855086D+03 -.175744072814812D+03 0.171412165490741D+03 -.446281843301711D+02
 0.899464864161578D+03 0.219938820798688D+03 -.779617231758392D+03 -.390974332804944D+03
0.427327321778D-04 0.000000000000D+00 0.000000000000D+00 0.162961459673D-05 0.000000000000D+00  7 -2 2 24 -11 11 -24 21 0 0.14424363D-01 0.36457113D+00 0.95034531D+05 0.95034531D+05 0.95034531D+05 0.11235417D+01  1  2  2  1  7  1       -2 0.819968946600D-03 0.100000000000D+01
-.185358964718D-05 0.000000000000D+00 -.164104943349D-06 0.162961459673D-05 0.000000000000D+00  7 -2 2 24 -11 11 -24 21 2 0.14424363D-01 0.36457113D+00 0.95034531D+05 0.95034531D+05 0.95034531D+05 0.11235417D+01  1  2  3  1  7  1       -2 -.448981761272D-04 0.100000000000D+01
0.259828984882D-05 0.000000000000D+00 0.000000000000D+00 0.162961459673D-05 0.000000000000D+00  7 -2 2 24 -11 11 -24 21 2 0.14424363D-01 0.36457113D+00 0.95034531D+05 0.95034531D+05 0.95034531D+05 0.11235417D+01  1  2 15  1  7  1       -2 0.629365164178D-04 0.100000000000D+01
  </mgrwgt>
  </event>
  <event>
  8     66 0.27011060E-05 0.48657543E+03 0.75467711E-02 0.93083828E-01
       -2 -1    0    0    0  501 0.00000000E+00 0.00000000E+00 0.48288610E+03 0.48288621E+03 0.32000000E+00 0.0000E+00 0.9000E+01
        2 -1    0    0  501    0 0.00000000E+00 0.00000000E+00 -.15674815E+04 0.15674815E+04 0.32000000E+00 0.0000E+00 0.9000E+01
       25  2    1    2    0    0 0.40899231E+03 -.16223507E+03 -.14035103E+04 0.15012414E+04 0.30048231E+03 0.0000E+00 0.0000E+00
       23  2    1    2    0    0 -.40899231E+03 0.16223507E+03 0.31891492E+03 0.54912633E+03 0.78981496E+02 0.0000E+00 0.0000E+00
       24  1    3    3    0    0 0.34205604E+03 -.21779003E+03 -.11266422E+04 0.12000937E+04 0.80419002E+02 0.0000E+00 0.9000E+01
      -13  1    4    4    0    0 -.19696794E+03 0.60047492E+02 0.10530959E+03 0.23128379E+03 0.10565837E+00 0.0000E+00 0.9000E+01
       13  1    4    4    0    0 -.21202437E+03 0.10218758E+03 0.21360533E+03 0.31784255E+03 0.10565837E+00 0.0000E+00 0.9000E+01
      -24  1    3    3    0    0 0.66936269E+02 0.55554963E+02 -.27686806E+03 0.30114773E+03 0.80419002E+02 0.0000E+00 0.9000E+01
#aMCatNLO 1  0  0  2  2 0.16674692D+03 0.00000000D+00  -5  7  0 0.00000000D+00 0.00000000D+00 0.00000000D+00 0.00000000D+00 0.00000000D+00
  <mgrwgt>
 0.5586562512D-02    3    2    0
 0.870008716740000D+03 0.000000000000000D+00 0.000000000000000D+00 0.870008716740000D+03
 0.870008716740000D+03 0.000000000000000D+00 0.000000000000000D+00 -.870008716740000D+03
 0.711879267411723D+03 0.342056036408641D+03 -.217790032354232D+03 -.579542962324480D+03
 0.338177405844691D+03 -.196967909254818D+03 0.600474163145992D+02 0.268257168294850D+03
 0.507678810551631D+03 -.212024396335814D+03 0.102187653023173D+03 0.449823424924901D+03
 0.182281949671955D+03 0.669362691819911D+02 0.555549630164606D+02 -.138537630895271D+03
 0.000000000000000D+00 -.000000000000000D+00 0.000000000000000D+00 0.000000000000000D+00
 0.432764126541598D+04 0.000000000000000D+00 0.000000000000000D+00 0.432764126541598D+04
 0.876007145364302D+03 0.000000000000000D+00 0.000000000000000D+00 -.876007145364302D+03
 0.738851552334985D+03 0.348240791086063D+03 -.286867054011724D+03 -.579542962324480D+03
 0.332311956746302D+03 -.194109479444820D+03 0.281218463946726D+02 0.268257168294850D+03
 0.498438984850949D+03 -.207735115611606D+03 0.542810256895462D+02 0.449823424924901D+03
 0.178386408953471D+03 0.684738702914761D+02 0.383816213593981D+02 -.138537630895271D+03
 0.345565950789457D+04 -.148700663211127D+02 0.166082560568108D+03 0.345163412005167D+04
0.215723186548D-02 0.000000000000D+00 0.000000000000D+00 0.945913851513D-07 0.000000000000D+00  7 -2 2 24 -13 13 -24 21 0 0.74290180D-01 0.24115101D+00 0.23675565D+06 0.23675565D+06 0.23675565D+06 0.10922420D+01  1  2  2  2  7  2        2 0.542797174271D-02 0.100000000000D+01
-.706394916330D-04 0.000000000000D+00 -.828433837565D-05 0.945913851513D-07 0.000000000000D+00  7 -2 2 24 -13 13 -24 21 2 0.74290180D-01 0.24115101D+00 0.23675565D+06 0.23675565D+06 0.23675565D+06 0.10922420D+01  1  2  3  2  7  2        2 -.212044027279D-03 0.100000000000D+01
0.123471780703D-03 0.000000000000D+00 0.000000000000D+00 0.945913851513D-07 0.000000000000D+00  7 -2 2 24 -13 13 -24 21 2 0.74290180D-01 0.24115101D+00 0.23675565D+06 0.23675565D+06 0.23675565D+06 0.10922420D+01  1  2 15  2  7  2        2 0.370634796916D-03 0.100000000000D+01
  </mgrwgt>
  </event>
  <event>
  8     66 0.27011060E-05 0.76795478E+03 0.75467711E-02 0.84410720E-01
       -2 -1    0    0    0  501 0.00000000E+00 0.00000000E+00 0.12494527E+04 0.12494527E+04 0.32000000E+00 0.0000E+00 0.9000E+01
        2 -1    0    0  501    0 0.00000000E+00 0.00000000E+00 -.17524477E+04 0.17524478E+04 0.32000000E+00 0.0000E+00 0.9000E+01
       25  2    1    2    0    0 0.12447089E+04 0.10376215E+03 -.10270028E+04 0.16443934E+04 0.29871056E+03 0.0000E+00 0.0000E+00
       23  2    1    2    0    0 -.12447089E+04 -.10376215E+03 0.52400775E+03 0.13575071E+04 0.90413617E+02 0.0000E+00 0.0000E+00
       24  1    3    3    0    0 0.10512116E+04 0.83881126E+02 -.94565510E+03 0.14187363E+04 0.80419002E+02 0.0000E+00 0.9000E+01
      -11  1    4    4    0    0 -.31511760E+03 0.55647578E+00 0.10124320E+03 0.33098278E+03 0.51099893E-03 0.0000E+00 0.9000E+01
       11  1    4    4    0    0 -.92959130E+03 -.10431863E+03 0.42276455E+03 0.10265243E+04 0.51099893E-03 0.0000E+00 0.9000E+01
      -24  1    3    3    0    0 0.19349727E+03 0.19881025E+02 -.81347708E+02 0.22565708E+03 0.80419002E+02 0.0000E+00 0.9000E+01
#aMCatNLO 1  0  0  2  1 0.22323346D+03 0.00000000D+00  -5  7  0 0.00000000D+00 0.00000000D+00 0.00000000D+00 0.00000000D+00 0.00000000D+00
  <mgrwgt>
 0.9366368803D-03    9    2    0
 0.147972992926580D+04 0.000000000000000D+00 0.000000000000000D+00 0.147972992926580D+04
 0.147972992926580D+04 0.000000000000000D+00 0.000000000000000D+00 -.147972992926580D+04
 0.127835672793983D+04 0.105121163338417D+04 0.838811257535082D+02 -.718085486898856D+03
 0.352936768089554D+03 -.315117604305901D+03 0.556475782730278D+00 0.158949514188350D+03
 0.111309921343098D+04 -.929591302541225D+03 -.104318626470700D+03 0.603297184935945D+03
 0.215067149071242D+03 0.193497273462952D+03 0.198810249344614D+02 -.441612122254381D+02
 0.000000000000000D+00 -.000000000000000D+00 -.000000000000000D+00 -.000000000000000D+00
 0.151710785701992D+04 0.000000000000000D+00 0.000000000000000D+00 0.151710785701992D+04
 0.185947474070959D+04 0.000000000000000D+00 0.000000000000000D+00 -.185947474070959D+04
 0.134130890809824D+04 0.111932615233161D+04 0.155256462670843D+03 -.718085486898856D+03
 0.337559608007104D+03 -.297163851794224D+03 0.193697208038140D+02 0.158949514188350D+03
 0.106215906211775D+04 -.873031919928749D+03 -.450516001129691D+02 0.603297184935945D+03
 0.226839641133448D+03 0.204987391904145D+03 0.319212050257726D+02 -.441612122254381D+02
 0.408715378372977D+03 -.154117772512783D+03 -.161495788387460D+03 -.342366883689671D+03
0.450642871133D-02 0.000000000000D+00 0.000000000000D+00 0.483744394111D-05 0.000000000000D+00  7 -2 2 24 -11 11 -24 21 0 0.19222350D+00 0.26960735D+00 0.15858914D+07 0.15858914D+07 0.15858914D+07 0.10347870D+01  1  2  2  2  7  2        2 0.672741233589D-03 0.100000000000D+01
-.242438771559D-03 0.000000000000D+00 -.173058728214D-04 0.483744394111D-05 0.000000000000D+00  7 -2 2 24 -11 11 -24 21 2 0.19222350D+00 0.26960735D+00 0.15858914D+07 0.15858914D+07 0.15858914D+07 0.10347870D+01  1  2  3  2  7  2        2 -.387542695226D-04 0.100000000000D+01
0.270554182793D-03 0.000000000000D+00 0.000000000000D+00 0.483744394111D-05 0.000000000000D+00  7 -2 2 24 -11 11 -24 21 2 0.19222350D+00 0.26960735D+00 0.15858914D+07 0.15858914D+07 0.15858914D+07 0.10347870D+01  1  2 15  2  7  2        2 0.432485680942D-04 0.100000000000D+01
0.121584541880D-01 0.000000000000D+00 0.000000000000D+00 0.483744394111D-05 0.000000000000D+00  7 -2 2 24 -11 11 -24 21 2 0.19222350D+00 0.34159326D+00 0.18914791D+07 0.18914791D+07 0.18914791D+07 0.10299206D+01  1  2 12  2  7  2        2 0.103296269328D-02 0.100000000000D+01
-.122874297189D-01 0.000000000000D+00 0.000000000000D+00 0.483744394111D-05 0.000000000000D+00  7 -2 2 24 -11 11 -24 21 2 0.19222350D+00 0.26960735D+00 0.15858914D+07 0.15858914D+07 0.15858914D+07 0.10347870D+01  1  2  4  2  7  2        2 -.196416752983D-02 0.100000000000D+01
-.160376815456D-01 0.000000000000D+00 -.230654317256D-02 0.483744394111D-05 0.000000000000D+00  7 -2 2 24 -11 11 -24 21 2 0.19222350D+00 0.34157072D+00 0.15858914D+07 0.15858914D+07 0.15858914D+07 0.10347870D+01  1  2  5  2  7  2        2 -.139628621851D-02 0.100000000000D+01
0.161912030642D-01 0.000000000000D+00 0.224346205640D-02 0.483744394111D-05 0.000000000000D+00  7 -2 2 24 -11 11 -24 21 2 0.19222350D+00 0.26960735D+00 0.15858914D+07 0.15858914D+07 0.15858914D+07 0.10347870D+01  1  2  6  2  7  2        2 0.258819265339D-02 0.100000000000D+01
0.395091798216D-03 0.000000000000D+00 0.000000000000D+00 0.483744394111D-05 0.000000000000D+00  7 -2 21 24 -11 11 -24 -2 2 0.19222350D+00 0.34159326D+00 0.18914791D+07 0.18914791D+07 0.18914791D+07 0.10299206D+01  1  2 12  4  7  2        2 0.480454058367D-05 0.100000000000D+01
-.485746239765D-03 0.000000000000D+00 -.749361033092D-04 0.483744394111D-05 0.000000000000D+00  7 -2 21 24 -11 11 -24 -2 2 0.19222350D+00 0.34157072D+00 0.15858914D+07 0.15858914D+07 0.15858914D+07 0.10347870D+01  1  2  5  4  7  2        2 -.610479080318D-05 0.100000000000D+01
  </mgrwgt>
  </event>
  <event>
  8     66 0.27011060E-05 0.34537361E+03 0.75467711E-02 0.94165729E-01
       -2 -1    0    0    0  501 0.00000000E+00 0.00000000E+00 0.89289803E+02 0.89290376E+02 0.32000000E+00 0.0000E+00 0.9000E+01
        2 -1    0    0  501    0 0.00000000E+00 0.00000000E+00 -.16111880E+04 0.16111880E+04 0.32000000E+00 0.0000E+00 0.9000E+01
       25  2    1    2    0    0 0.13566034E+03 -.23542273E+03 -.12136081E+04 0.12795413E+04 0.30092154E+03 0.0000E+00 0.0000E+00
       23  2    1    2    0    0 -.13566034E+03 0.23542273E+03 -.30829015E+03 0.42093715E+03 0.91201275E+02 0.0000E+00 0.0000E+00
       24  1    3    3    0    0 0.12849092E+03 0.38795515E+01 -.50489295E+03 0.52717082E+03 0.80419002E+02 0.0000E+00 0.9000E+01
      -11  1    4    4    0    0 -.89796121E+02 0.22089660E+03 -.25356335E+03 0.34807043E+03 0.51099893E-03 0.0000E+00 0.9000E+01
       11  1    4    4    0    0 -.45864218E+02 0.14526124E+02 -.54726809E+02 0.72866717E+02 0.51099893E-03 0.0000E+00 0.9000E+01
      -24  1    3    3    0    0 0.71694159E+01 -.23930228E+03 -.70871511E+03 0.75237046E+03 0.80419002E+02 0.0000E+00 0.9000E+01
#aMCatNLO 1  0  0  2  2 0.29047632D+03 0.00000000D+00  -5  7  0 0.00000000D+00 0.00000000D+00 0.00000000D+00 0.00000000D+00 0.00000000D+00
  <mgrwgt>
 0.1097151222D-02    6    2    0
 0.379292992866644D+03 0.000000000000000D+00 0.000000000000000D+00 0.379292992866644D+03
 0.379292992866644D+03 0.000000000000000D+00 0.000000000000000D+00 -.379292992866644D+03
 0.168796855699926D+03 0.128490923333647D+03 0.387955153168656D+01 -.741632944291928D+02
 0.271542917871835D+03 -.897961208402636D+02 0.220896604921740D+03 0.129911134482150D+03
 0.535465297826748D+02 -.458642184390539D+02 0.145261235894694D+02 0.235094885568590D+02
 0.264699682378853D+03 0.716941594567092D+01 -.239302280042896D+03 -.792573286098158D+02
 0.000000000000000D+00 0.000000000000000D+00 -.000000000000000D+00 -.000000000000000D+00
 0.508329904762274D+03 0.000000000000000D+00 0.000000000000000D+00 0.508329904762274D+03
 0.612589057466067D+03 0.000000000000000D+00 0.000000000000000D+00 -.612589057466067D+03
 0.165868998146440D+03 0.108012492601563D+03 0.622769282570950D+02 -.741632944291928D+02
 0.381968085855221D+03 -.129784902691378D+03 0.334930731320450D+03 0.129911134482150D+03
 0.683985406104697D+02 -.533261200596224D+02 0.358048771094627D+02 0.235094885568590D+02
 0.196063082107639D+03 -.210249703295175D+02 -.158901676188311D+03 -.792573286098158D+02
 0.308620255508573D+03 0.961235004789554D+02 -.274110860498697D+03 -.104259152703793D+03
0.133673132661D-04 0.000000000000D+00 0.000000000000D+00 0.690024667688D-06 0.000000000000D+00  7 -2 2 24 -11 11 -24 21 0 0.13736939D-01 0.24787513D+00 0.11928293D+06 0.11928293D+06 0.11928293D+06 0.11154916D+01  1  2  2  2  7  2        2 0.709080085291D-03 0.100000000000D+01
-.734704094110D-06 0.000000000000D+00 -.513340026363D-07 0.690024667688D-06 0.000000000000D+00  7 -2 2 24 -11 11 -24 21 2 0.13736939D-01 0.24787513D+00 0.11928293D+06 0.11928293D+06 0.11928293D+06 0.11154916D+01  1  2  3  2  7  2        2 -.484949146767D-04 0.100000000000D+01
0.870160274711D-06 0.000000000000D+00 0.000000000000D+00 0.690024667688D-06 0.000000000000D+00  7 -2 2 24 -11 11 -24 21 2 0.13736939D-01 0.24787513D+00 0.11928293D+06 0.11928293D+06 0.11928293D+06 0.11154916D+01  1  2 15  2  7  2        2 0.574358420151D-04 0.100000000000D+01
-.505676295601D-05 0.000000000000D+00 -.381524507812D-05 0.690024667688D-06 0.000000000000D+00  7 -2 2 24 -11 11 -24 21 2 0.13736939D-01 0.44792957D+00 0.11928293D+06 0.11928293D+06 0.11928293D+06 0.11154916D+01  1  2  5  2  7  2        2 -.623958817731D-04 0.100000000000D+01
0.669099008590D-05 0.000000000000D+00 0.323263227473D-05 0.690024667688D-06 0.000000000000D+00  7 -2 2 24 -11 11 -24 21 2 0.13736939D-01 0.24787513D+00 0.11928293D+06 0.11928293D+06 0.11928293D+06 0.11154916D+01  1  2  6  2  7  2        2 0.441645821657D-03 0.100000000000D+01
-.123851953751D-06 0.000000000000D+00 -.247380084876D-06 0.690024667688D-06 0.000000000000D+00  7 -2 21 24 -11 11 -24 -2 2 0.13736939D-01 0.44792957D+00 0.11928293D+06 0.11928293D+06 0.11928293D+06 0.11154916D+01  1  2  5  4  7  2        2 -.119730581841D-06 0.100000000000D+01
  </mgrwgt>
  </event>
  <event>
  8     66 0.27011060E-05 0.42639732E+03 0.75467711E-02 0.85464830E-01
       -2 -1    0    0    0  501 0.00000000E+00 0.00000000E+00 0.32820090E+03 0.32820105E+03 0.32000000E+00 0.0000E+00 0.9000E+01
        2 -1    0    0  501    0 0.00000000E+00 0.00000000E+00 -.82686321E+03 0.82686327E+03 0.32000000E+00 0.0000E+00 0.9000E+01
       25  2    1    2    0    0 0.17948869E+03 0.34866785E+03 0.25186491E+02 0.49438925E+03 0.30000151E+03 0.0000E+00 0.0000E+00
       23  2    1    2    0    0 -.17948869E+03 -.34866785E+03 -.52384880E+03 0.66067508E+03 0.91041350E+02 0.0000E+00 0.0000E+00
       24  1    3    3    0    0 0.16572044E+03 0.13852867E+03 0.10761995E+03 0.25436731E+03 0.80419002E+02 0.0000E+00 0.9000E+01
      -13  1    4    4    0    0 -.39108628E+02 -.32098780E+02 -.34698281E+02 0.61349803E+02 0.10565837E+00 0.0000E+00 0.9000E+01
       13  1    4    4    0    0 -.14038006E+03 -.31656907E+03 -.48915052E+03 0.59932527E+03 0.10565837E+00 0.0000E+00 0.9000E+01
      -24  1    3    3    0    0 0.13768249E+02 0.21013918E+03 -.82433461E+02 0.24002194E+03 0.80419002E+02 0.0000E+00 0.9000E+01
#aMCatNLO 1  0  0  2  2 0.10686689D+04 0.00000000D+00  -5  7  0 0.00000000D+00 0.00000000D+00 0.00000000D+00 0.00000000D+00 0.00000000D+00
  <mgrwgt>
 0.9643068581D-03    5    2    0
 0.520938934593343D+03 0.000000000000000D+00 0.000000000000000D+00 0.520938934593343D+03
 0.520938934593343D+03 0.000000000000000D+00 0.000000000000000D+00 -.520938934593343D+03
 0.333509933824706D+03 0.165720443170509D+03 0.138528672158179D+03 0.241056428478585D+03
 0.514069005173016D+02 -.391084915963353D+02 -.320983967224341D+02 -.910429754041171D+01
 0.430318042236638D+03 -.140380201000903D+03 -.316569455084045D+03 -.255442355041425D+03
 0.226642992608042D+03 0.137682494267295D+02 0.210139179648300D+03 0.234902241032522D+02
 0.000000000000000D+00 -.000000000000000D+00 0.000000000000000D+00 -.000000000000000D+00
 0.106656999235670D+04 0.000000000000000D+00 0.000000000000000D+00 0.106656999235670D+04
 0.163759171868983D+04 0.000000000000000D+00 0.000000000000000D+00 -.163759171868983D+04
 0.587626745220719D+03 0.529829197656751D+03 0.328562686221571D+01 0.241056428478585D+03
 0.475008828808150D+02 -.120245449920020D-01 -.466202262560241D+02 -.910429754041171D+01
 0.594517597105109D+03 0.264718886553109D+03 -.467037779650217D+03 -.255442355041425D+03
 0.262856907501003D+03 0.207258751981188D+03 0.138269870056350D+03 0.234902241032522D+02
 0.121165957833888D+04 -.100179481164606D+04 0.372102508987676D+03 -.571021726333129D+03
0.608357321727D-04 0.000000000000D+00 0.000000000000D+00 0.887205722148D-05 0.000000000000D+00  7 -2 2 24 -13 13 -24 21 0 0.50492463D-01 0.12720974D+00 0.18181468D+06 0.18181468D+06 0.18181468D+06 0.11010193D+01  1  2  2  2  7  2        2 0.941614406015D-03 0.100000000000D+01
-.321496126843D-05 0.000000000000D+00 -.233625229959D-06 0.887205722148D-05 0.000000000000D+00  7 -2 2 24 -13 13 -24 21 2 0.50492463D-01 0.12720974D+00 0.18181468D+06 0.18181468D+06 0.18181468D+06 0.11010193D+01  1  2  3  2  7  2        2 -.603225897241D-04 0.100000000000D+01
0.369904872481D-05 0.000000000000D+00 0.000000000000D+00 0.887205722148D-05 0.000000000000D+00  7 -2 2 24 -13 13 -24 21 2 0.50492463D-01 0.12720974D+00 0.18181468D+06 0.18181468D+06 0.18181468D+06 0.11010193D+01  1  2 15  2  7  2        2 0.694055635404D-04 0.100000000000D+01
0.242536500011D-04 0.000000000000D+00 -.220356321382D-04 0.887205722148D-05 0.000000000000D+00  7 -2 2 24 -13 13 -24 21 2 0.50492463D-01 0.52713256D+00 0.18181468D+06 0.18181468D+06 0.18181468D+06 0.11010193D+01  1  2  5  2  7  2        2 0.135146611746D-04 0.100000000000D+01
0.425981003921D-05 0.000000000000D+00 -.375491826145D-05 0.887205722148D-05 0.000000000000D+00  7 -2 21 24 -13 13 -24 -2 2 0.50492463D-01 0.52713256D+00 0.18181468D+06 0.18181468D+06 0.18181468D+06 0.11010193D+01  1  2  5  4  7  2        2 0.948170657784D-07 0.100000000000D+01
  </mgrwgt>
  </event>
  <event>
  8     66 0.27011060E-05 0.21044157E+03 0.75467711E-02 0.90329501E-01
       -2 -1    0    0    0  501 0.00000000E+00 0.00000000E+00 0.99575782E+03 0.99575787E+03 0.32000000E+00 0.0000E+00 0.9000E+01
        2 -1    0    0  501    0 0.00000000E+00 0.00000000E+00 -.51643024E+03 0.51643034E+03 0.32000000E+00 0.0000E+00 0.9000E+01
       25  2    1    2    0    0 0.53661088E+03 -.15678002E+03 0.66210725E+03 0.91706595E+03 0.30015453E+03 0.0000E+00 0.0000E+00
       23  2    1    2    0    0 -.53661088E+03 0.15678002E+03 -.18277967E+03 0.59512225E+03 0.90724147E+02 0.0000E+00 0.0000E+00
       24  1    3    3    0    0 0.31793631E+03 -.62843988E+02 0.19498673E+03 0.38667803E+03 0.80419002E+02 0.0000E+00 0.9000E+01
      -13  1    4    4    0    0 -.15773324E+03 0.77723976E+02 -.26969208E+02 0.17789925E+03 0.10565837E+00 0.0000E+00 0.9000E+01
       13  1    4    4    0    0 -.37887764E+03 0.79056042E+02 -.15581046E+03 0.41722300E+03 0.10565837E+00 0.0000E+00 0.9000E+01
      -24  1    3    3    0    0 0.21867458E+03 -.93936030E+02 0.46712052E+03 0.53038792E+03 0.80419002E+02 0.0000E+00 0.9000E+01
#aMCatNLO 1  0  0  2  1 0.30318316D+03 0.00000000D+00  -5  7  0 0.00000000D+00 0.00000000D+00 0.00000000D+00 0.00000000D+00 0.00000000D+00
  <mgrwgt>
 0.3570236227D-03    7    2    0
 0.717104984622716D+03 0.000000000000000D+00 0.000000000000000D+00 0.717104984622716D+03
 0.717104984622716D+03 0.000000000000000D+00 0.000000000000000D+00 -.717104984622716D+03
 0.342535232518687D+03 0.317936306920468D+03 -.628439879306823D+02 0.763564501859737D+02
 0.196584640613871D+03 -.157732943008581D+03 0.777239739468285D+02 -.878909750147844D+02
 0.491981332602533D+03 -.378877941708142D+03 0.790560441247199D+02 -.303722371259868D+03
 0.403108763510339D+03 0.218674577796255D+03 -.939360301408661D+02 0.315256896088678D+03
 0.000000000000000D+00 -.000000000000000D+00 -.000000000000000D+00 -.000000000000000D+00
 0.765449466061677D+03 0.000000000000000D+00 0.000000000000000D+00 0.765449466061677D+03
 0.144009876415856D+04 0.000000000000000D+00 0.000000000000000D+00 -.144009876415856D+04
 0.384651083254383D+03 0.368272215228628D+03 -.587434251603942D+01 0.763564501859737D+02
 0.191163949561076D+03 -.130892947455426D+03 0.108101195317958D+03 -.878909750147844D+02
 0.462346129421561D+03 -.312819300913538D+03 0.153820510866879D+03 -.303722371259868D+03
 0.427744109678591D+03 0.276186295405997D+03 -.288448801142178D+02 0.315256896088678D+03
 0.739642958304628D+03 -.200746262265662D+03 -.227202483554579D+03 -.674649298096884D+03
0.264334124261D-03 0.000000000000D+00 0.000000000000D+00 0.102371596339D-04 0.000000000000D+00  7 -2 2 24 -13 13 -24 21 0 0.15319352D+00 0.79450817D-01 0.32948380D+06 0.32948380D+06 0.32948380D+06 0.10815525D+01  1  2  2  2  7  2        2 0.529039082279D-03 0.100000000000D+01
-.138006463238D-04 0.000000000000D+00 -.101511263794D-05 0.102371596339D-04 0.000000000000D+00  7 -2 2 24 -13 13 -24 21 2 0.15319352D+00 0.79450817D-01 0.32948380D+06 0.32948380D+06 0.32948380D+06 0.10815525D+01  1  2  3  2  7  2        2 -.323094226614D-04 0.100000000000D+01
0.166264914745D-04 0.000000000000D+00 0.000000000000D+00 0.102371596339D-04 0.000000000000D+00  7 -2 2 24 -13 13 -24 21 2 0.15319352D+00 0.79450817D-01 0.32948380D+06 0.32948380D+06 0.32948380D+06 0.10815525D+01  1  2 15  2  7  2        2 0.389251581284D-04 0.100000000000D+01
0.297434414675D-03 0.000000000000D+00 0.000000000000D+00 0.102371596339D-04 0.000000000000D+00  7 -2 2 24 -13 13 -24 21 2 0.15319352D+00 0.15963943D+00 0.55326201D+06 0.55326201D+06 0.55326201D+06 0.10654173D+01  1  2 12  2  7  2        2 0.271695045973D-03 0.100000000000D+01
-.477642993218D-03 0.000000000000D+00 -.863727766294D-04 0.102371596339D-04 0.000000000000D+00  7 -2 2 24 -13 13 -24 21 2 0.15319352D+00 0.16399367D+00 0.32948380D+06 0.32948380D+06 0.32948380D+06 0.10815525D+01  1  2  5  2  7  2        2 -.444713052155D-03 0.100000000000D+01
0.224525677920D-04 0.000000000000D+00 0.000000000000D+00 0.102371596339D-04 0.000000000000D+00  7 -2 21 24 -13 13 -24 -2 2 0.15319352D+00 0.15963943D+00 0.55326201D+06 0.55326201D+06 0.55326201D+06 0.10654173D+01  1  2 12  4  7  2        2 0.131136982255D-04 0.100000000000D+01
-.321303858120D-04 0.000000000000D+00 -.676829724488D-05 0.102371596339D-04 0.000000000000D+00  7 -2 21 24 -13 13 -24 -2 2 0.15319352D+00 0.16399367D+00 0.32948380D+06 0.32948380D+06 0.32948380D+06 0.10815525D+01  1  2  5  4  7  2        2 -.187268870587D-04 0.100000000000D+01
  </mgrwgt>
  </event>
  <event>
  7     66 0.27011060E-05 0.83167690E+03 0.75467711E-02 0.88257154E-01
       -2 -1    0    0    0  501 0.00000000E+00 0.00000000E+00 0.12198079E+04 0.12198079E+04 0.32000000E+00 0.0000E+00 0.9000E+01
        2 -1    0    0  501    0 0.00000000E+00 0.00000000E+00 -.10191635E+04 0.10191635E+04 0.32000000E+00 0.0000E+00 0.9000E+01
       23  2    1    2    0    0 0.52118105E+03 -.61052111E+03 -.64205688E+03 0.10317199E+04 0.88561947E+02 0.0000E+00 0.0000E+00
       24  1    1    2    0    0 -.44001932E+03 0.59382000E+03 0.67849159E+03 0.10065074E+04 0.80419002E+02 0.0000E+00 0.9000E+01
      -11  1    3    3    0    0 0.23832035E+03 -.31962991E+03 -.36377788E+03 0.53971680E+03 0.51099893E-03 0.0000E+00 0.9000E+01
       11  1    3    3    0    0 0.28286070E+03 -.29089120E+03 -.27827900E+03 0.49200312E+03 0.51099893E-03 0.0000E+00 0.9000E+01
      -24  1    1    2    0    0 -.81161735E+02 0.16701107E+02 0.16420969E+03 0.20074410E+03 0.80419002E+02 0.0000E+00 0.9000E+01
#aMCatNLO 1  0  0  1  1 0.15699382D+03 0.00000000D+00  -5  7  0 0.00000000D+00 0.00000000D+00 0.00000000D+00 0.00000000D+00 0.00000000D+00
  <mgrwgt>
 0.1210177363D-02    4    2    0
 0.111498150202091D+04 0.000000000000000D+00 0.000000000000000D+00 0.111498150202091D+04
 0.111498150202091D+04 0.000000000000000D+00 0.000000000000000D+00 -.111498150202091D+04
 0.949525130485355D+03 -.440019315575806D+03 0.593820002853640D+03 0.590670435691479D+03
 0.574628586644525D+03 0.238320354689353D+03 -.319629914380254D+03 -.413809302654129D+03
 0.519029261409060D+03 0.282860695982867D+03 -.290891195821201D+03 -.323671921952823D+03
 0.186780025502883D+03 -.811617350964144D+02 0.167011073478153D+02 0.146810788915472D+03
 0.000000000000000D+00 -.000000000000000D+00 0.000000000000000D+00 -.000000000000000D+00
 0.116399799903744D+04 0.000000000000000D+00 0.000000000000000D+00 0.116399799903744D+04
 0.125094917775592D+04 0.000000000000000D+00 0.000000000000000D+00 -.125094917775592D+04
 0.919921799692455D+03 -.374312474785921D+03 0.592273171108326D+03 0.590670435691479D+03
 0.593354056268267D+03 0.279372308785701D+03 -.320596335304469D+03 -.413809302654129D+03
 0.540704356541424D+03 0.320107941138811D+03 -.291768048528471D+03 -.323671921952823D+03
 0.181502298745511D+03 -.682174425067252D+02 0.163963804357059D+02 0.146810788915472D+03
 0.179464665545700D+03 -.156950332631866D+03 0.369483228890766D+01 -.869511787184823D+02
0.458469618563D-02 0.000000000000D+00 0.000000000000D+00 0.398908425147D-08 0.000000000000D+00  7 -2 2 24 -11 11 -24 21 0 0.18766276D+00 0.15679439D+00 0.69168646D+06 0.69168646D+06 0.69168646D+06 0.10586899D+01  1  2  2  1  7  1       -2 0.206769755452D-02 0.100000000000D+01
-.228092173936D-03 0.000000000000D+00 -.176064405311D-04 0.398908425147D-08 0.000000000000D+00  7 -2 2 24 -11 11 -24 21 2 0.18766276D+00 0.15679439D+00 0.69168646D+06 0.69168646D+06 0.69168646D+06 0.10586899D+01  1  2  3  1  7  1       -2 -.115298683810D-03 0.100000000000D+01
0.298079129367D-03 0.000000000000D+00 0.000000000000D+00 0.398908425147D-08 0.000000000000D+00  7 -2 2 24 -11 11 -24 21 2 0.18766276D+00 0.15679439D+00 0.69168646D+06 0.69168646D+06 0.69168646D+06 0.10586899D+01  1  2 15  1  7  1       -2 0.150676503688D-03 0.100000000000D+01
-.176639526004D-02 0.000000000000D+00 0.000000000000D+00 0.398908425147D-08 0.000000000000D+00  7 -2 2 24 -11 11 -24 21 2 0.18766276D+00 0.15679439D+00 0.69168646D+06 0.69168646D+06 0.69168646D+06 0.10586899D+01  1  2  4  1  7  1       -2 -.892898011608D-03 0.100000000000D+01
  </mgrwgt>
  </event>
  <event>
  8     66 0.27011060E-05 0.20090445E+03 0.75467711E-02 0.87009618E-01
       -2 -1    0    0    0  501 0.00000000E+00 0.00000000E+00 0.65100173E+03 0.65100181E+03 0.32000000E+00 0.0000E+00 0.9000E+01
        2 -1    0    0  501    0 0.00000000E+00 0.00000000E+00 -.13045306E+03 0.13045345E+03 0.32000000E+00 0.0000E+00 0.9000E+01
       25  2    1    2    0    0 0.37492245E+02 -.18644768E+02 0.59990276E+02 0.31050952E+03 0.30176817E+03 0.0000E+00 0.0000E+00
       23  2    1    2    0    0 -.37492245E+02 0.18644768E+02 0.46055839E+03 0.47094574E+03 0.89008811E+02 0.0000E+00 0.0000E+00
       24  1    3    3    0    0 0.13799847E+03 -.56333047E+02 0.19939459E+02 0.17053383E+03 0.80419002E+02 0.0000E+00 0.9000E+01
      -13  1    4    4    0    0 -.17510739E+02 -.36056981E+02 0.18082352E+03 0.18521309E+03 0.10565837E+00 0.0000E+00 0.9000E+01
       13  1    4    4    0    0 -.19981506E+02 0.54701749E+02 0.27973487E+03 0.28573266E+03 0.10565837E+00 0.0000E+00 0.9000E+01
      -24  1    3    3    0    0 -.10050623E+03 0.37688278E+02 0.40050817E+02 0.13997568E+03 0.80419002E+02 0.0000E+00 0.9000E+01
#aMCatNLO 1  0  0  1  1 0.10027900D+04 0.00000000D+00  -5  7  0 0.00000000D+00 0.00000000D+00 0.00000000D+00 0.00000000D+00 0.00000000D+00
  <mgrwgt>
 0.5776073409D-03    5    2    0
 0.291419547346055D+03 0.000000000000000D+00 0.000000000000000D+00 0.291419547346055D+03
 0.291419547346055D+03 0.000000000000000D+00 0.000000000000000D+00 -.291419547346055D+03
 0.210838811576417D+03 0.137998471249088D+03 -.563330466633870D+02 -.125573875862461D+03
 0.868305888846694D+02 -.175107355013938D+02 -.360571070445166D+02 0.770247384925062D+02
 0.133264416880988D+03 -.199815096669213D+02 0.547018752659080D+02 0.119865962309796D+03
 0.151905277350036D+03 -.100506226080773D+03 0.376882784419957D+02 -.713168249398420D+02
 0.000000000000000D+00 -.000000000000000D+00 -.000000000000000D+00 0.000000000000000D+00
 0.114272178325849D+04 0.000000000000000D+00 0.000000000000000D+00 0.114272178325849D+04
 0.102663159572311D+04 0.000000000000000D+00 0.000000000000000D+00 -.102663159572311D+04
 0.589717917758292D+03 0.551219762133828D+03 0.147268401582995D+03 -.125573875862461D+03
 0.118350804383403D+03 0.883972121617557D+02 0.161256144189663D+02 0.770247384925062D+02
 0.275958739653681D+03 0.191246145796935D+03 0.158777481994809D+03 0.119865962309796D+03
 0.175838563333464D+03 0.686644622217365D+02 0.121041672613632D+03 -.713168249398420D+02
 0.100948735385276D+04 -.899527582314255D+03 -.443213170610402D+03 0.116090187535383D+03
0.192832793053D-04 0.000000000000D+00 0.000000000000D+00 0.275432002675D-07 0.000000000000D+00  7 -2 2 24 -13 13 -24 21 0 0.10015415D+00 0.20069738D-01 0.40362598D+05 0.40362598D+05 0.40362598D+05 0.11555658D+01  1  2  2  1  7  1       -2 0.566795326613D-03 0.100000000000D+01
-.891106511205D-06 0.000000000000D+00 -.740528699366D-07 0.275432002675D-07 0.000000000000D+00  7 -2 2 24 -13 13 -24 21 2 0.10015415D+00 0.20069738D-01 0.40362598D+05 0.40362598D+05 0.40362598D+05 0.11555658D+01  1  2  3  1  7  1       -2 -.349755314353D-04 0.100000000000D+01
0.116096465330D-05 0.000000000000D+00 0.000000000000D+00 0.275432002675D-07 0.000000000000D+00  7 -2 2 24 -13 13 -24 21 2 0.10015415D+00 0.20069738D-01 0.40362598D+05 0.40362598D+05 0.40362598D+05 0.11555658D+01  1  2 15  1  7  1       -2 0.455673426422D-04 0.100000000000D+01
0.223083458540D-04 0.000000000000D+00 -.861994415295D-05 0.275432002675D-07 0.000000000000D+00  7 -2 2 24 -13 13 -24 21 2 0.64310412D+00 0.20069738D-01 0.40362598D+05 0.40362598D+05 0.40362598D+05 0.11555658D+01  1  2  5  1  7  1       -2 0.860481633151D-07 0.100000000000D+01
0.441631952106D-05 0.000000000000D+00 -.196379211298D-05 0.275432002675D-07 0.000000000000D+00  7 21 2 24 -13 13 -24 2 2 0.64310412D+00 0.20069738D-01 0.40362598D+05 0.40362598D+05 0.40362598D+05 0.11555658D+01  1  2  5  3  7  1       -2 0.134154918034D-06 0.100000000000D+01
  </mgrwgt>
  </event>
  <event>
  8     66 0.27011060E-05 0.17105435E+03 0.75467711E-02 0.98030055E-01
       -2 -1    0    0    0  501 0.00000000E+00 0.00000000E+00 0.29504339E+03 0.29504356E+03 0.32000000E+00 0.0000E+00 0.9000E+01
        2 -1    0    0  501    0 0.00000000E+00 0.00000000E+00 -.94601625E+03 0.94601631E+03 0.32000000E+00 0.0000E+00 0.9000E+01
       25  2    1    2    0    0 0.81663211E+01 -.32270211E+03 0.69088213E+02 0.44663370E+03 0.30084073E+03 0.0000E+00 0.0000E+00
       23  2    1    2    0    0 -.81663211E+01 0.32270211E+03 -.72006108E+03 0.79442616E+03 0.91769458E+02 0.0000E+00 0.0000E+00
       24  1    3    3    0    0 -.88190246E+02 -.20192458E+03 -.44424423E+02 0.23872956E+03 0.80419002E+02 0.0000E+00 0.9000E+01
      -11  1    4    4    0    0 0.24262757E+02 0.55349341E+02 -.82052439E+02 0.10190600E+03 0.51099893E-03 0.0000E+00 0.9000E+01
       11  1    4    4    0    0 -.32429078E+02 0.26735277E+03 -.63800864E+03 0.69252016E+03 0.51099893E-03 0.0000E+00 0.9000E+01
      -24  1    3    3    0    0 0.96356567E+02 -.12077753E+03 0.11351264E+03 0.20790414E+03 0.80419002E+02 0.0000E+00 0.9000E+01
#aMCatNLO 1  0  0  2  1 0.10432761D+02 0.00000000D+00  -5  7  0 0.00000000D+00 0.00000000D+00 0.00000000D+00 0.00000000D+00 0.00000000D+00
  <mgrwgt>
 0.1164717038D-02    9    2    0
 0.528314280062373D+03 0.000000000000000D+00 0.000000000000000D+00 0.528314280062373D+03
 0.528314280062373D+03 0.000000000000000D+00 0.000000000000000D+00 -.528314280062373D+03
 0.253029860386938D+03 -.881902460361596D+02 -.201924580799767D+03 0.948990962337507D+02
 0.691421212948051D+02 0.242627569606952D+02 0.553493409963268D+02 -.335916955970388D+02
 0.420329980506282D+03 -.324290780144429D+02 0.267352765358570D+03 -.322719919228222D+03
 0.314126597936722D+03 0.963565670899073D+02 -.120777525555130D+03 0.261412518591510D+03
 0.000000000000000D+00 0.000000000000000D+00 -.000000000000000D+00 -.000000000000000D+00
 0.530355259806852D+03 0.000000000000000D+00 0.000000000000000D+00 0.530355259806852D+03
 0.541842535525735D+03 0.000000000000000D+00 0.000000000000000D+00 -.541842535525735D+03
 0.253336289778124D+03 -.905952873345194D+02 -.201242925865652D+03 0.948990962337507D+02
 0.690640315345146D+02 0.236063317530987D+02 0.555353899768332D+02 -.335916955970388D+02
 0.421378349196889D+03 -.364268635959824D+02 0.268485847883618D+03 -.322719919228222D+03
 0.312901392976817D+03 0.933784292090813D+02 -.119933439267578D+03 0.261412518591510D+03
 0.155177318462426D+02 0.100373899683217D+02 -.284487272722128D+01 -.114872757188829D+02
0.254881848853D-04 0.000000000000D+00 0.000000000000D+00 0.239259751114D-05 0.000000000000D+00  7 -2 2 24 -11 11 -24 21 0 0.45391308D-01 0.14554098D+00 0.13634068D+06 0.13634068D+06 0.13634068D+06 0.11108391D+01  1  2  2  2  7  2        2 0.409117068570D-03 0.100000000000D+01
-.119506499380D-05 0.000000000000D+00 -.978813411528D-07 0.239259751114D-05 0.000000000000D+00  7 -2 2 24 -11 11 -24 21 2 0.45391308D-01 0.14554098D+00 0.13634068D+06 0.13634068D+06 0.13634068D+06 0.11108391D+01  1  2  3  2  7  2        2 -.236702319304D-04 0.100000000000D+01
0.146872498036D-05 0.000000000000D+00 0.000000000000D+00 0.239259751114D-05 0.000000000000D+00  7 -2 2 24 -11 11 -24 21 2 0.45391308D-01 0.14554098D+00 0.13634068D+06 0.13634068D+06 0.13634068D+06 0.11108391D+01  1  2 15  2  7  2        2 0.290905190156D-04 0.100000000000D+01
0.655145519075D-04 0.000000000000D+00 0.000000000000D+00 0.239259751114D-05 0.000000000000D+00  7 -2 2 24 -11 11 -24 21 2 0.45391308D-01 0.14954464D+00 0.14009099D+06 0.14009099D+06 0.14009099D+06 0.11099018D+01  1  2 12  2  7  2        2 0.124692911572D-02 0.100000000000D+01
-.666584326572D-04 0.000000000000D+00 0.000000000000D+00 0.239259751114D-05 0.000000000000D+00  7 -2 2 24 -11 11 -24 21 2 0.45391308D-01 0.14554098D+00 0.13634068D+06 0.13634068D+06 0.13634068D+06 0.11108391D+01  1  2  4  2  7  2        2 -.132028012644D-02 0.100000000000D+01
-.111165518440D-02 0.000000000000D+00 -.116154792606D-03 0.239259751114D-05 0.000000000000D+00  7 -2 2 24 -11 11 -24 21 2 0.45391308D-01 0.14956962D+00 0.13634068D+06 0.13634068D+06 0.13634068D+06 0.11108391D+01  1  2  5  2  7  2        2 -.212047841706D-01 0.100000000000D+01
0.111445454236D-02 0.000000000000D+00 0.116111507894D-03 0.239259751114D-05 0.000000000000D+00  7 -2 2 24 -11 11 -24 21 2 0.45391308D-01 0.14554098D+00 0.13634068D+06 0.13634068D+06 0.13634068D+06 0.11108391D+01  1  2  6  2  7  2        2 0.220736090760D-01 0.100000000000D+01
0.229261892384D-05 0.000000000000D+00 0.000000000000D+00 0.239259751114D-05 0.000000000000D+00  7 -2 21 24 -11 11 -24 -2 2 0.45391308D-01 0.14954464D+00 0.14009099D+06 0.14009099D+06 0.14009099D+06 0.11099018D+01  1  2 12  4  7  2        2 0.328759444046D-04 0.100000000000D+01
-.543374238950D-05 0.000000000000D+00 -.571040139913D-06 0.239259751114D-05 0.000000000000D+00  7 -2 21 24 -11 11 -24 -2 2 0.45391308D-01 0.14956962D+00 0.13634068D+06 0.13634068D+06 0.13634068D+06 0.11108391D+01  1  2  5  4  7  2        2 -.781701563525D-04 0.100000000000D+01
  </mgrwgt>
  </event>
  <event>
  9     66 0.27011060E-05 0.39249303E+03 0.75467711E-02 0.96683251E-01
       21 -1    0    0  502  501 0.00000000E+00 0.00000000E+00 0.20141624E+03 0.20141763E+03 0.75000000E+00 0.0000E+00 0.9000E+01
        2 -1    0    0  501    0 0.00000000E+00 0.00000000E+00 -.12763149E+04 0.12763150E+04 0.32000000E+00 0.0000E+00 0.9000E+01
       25  2    1    2    0    0 0.33203208E+03 0.38095183E+02 -.17885002E+03 0.48936982E+03 0.30951405E+03 0.0000E+00 0.0000E+00
       23  2    1    2    0    0 -.33065032E+03 0.13058659E+02 -.63029269E+03 0.71772469E+03 0.91431386E+02 0.0000E+00 0.0000E+00
       24  1    3    3    0    0 0.32314722E+03 -.48436123E+02 -.12167676E+03 0.35783046E+03 0.80419002E+02 0.0000E+00 0.9000E+01
      -11  1    4    4    0    0 -.23029451E+03 0.15610638E+02 -.34332357E+03 0.41370319E+03 0.51099893E-03 0.0000E+00 0.9000E+01
       11  1    4    4    0    0 -.10035581E+03 -.25519788E+01 -.28696912E+03 0.30402150E+03 0.51099893E-03 0.0000E+00 0.9000E+01
      -24  1    3    3    0    0 0.88848611E+01 0.86531306E+02 -.57173262E+02 0.13153937E+03 0.80419002E+02 0.0000E+00 0.9000E+01
        2  1    1    2  502    0 -.13817610E+01 -.51153842E+02 -.26575599E+03 0.27063809E+03 0.32000000E+00 0.0000E+00 0.9000E+01
#aMCatNLO 2  0  0  1  1 0.51172501D+02 0.00000000D+00  -5  7  0 0.00000000D+00 0.00000000D+00 0.00000000D+00 0.00000000D+00 0.00000000D+00
  <mgrwgt>
 0.1102784122D-03    1    2    0
 0.447142770869366D+03 0.000000000000000D+00 0.000000000000000D+00 0.447142770869366D+03
 0.447142770869366D+03 0.000000000000000D+00 0.000000000000000D+00 -.447142770869366D+03
 0.375173797378939D+03 0.322570239379139D+03 -.697965131035440D+02 0.159264087950908D+03
 0.247237312956129D+03 -.230676306208852D+03 0.147623999838837D+01 -.889525232192649D+02
 0.151017689313545D+03 -.100588538472209D+03 -.111676141059064D+02 -.112087344552401D+03
 0.120856742090120D+03 0.869460530192264D+01 0.794878872110620D+02 0.417757798207581D+02
 0.000000000000000D+00 -.000000000000000D+00 -.000000000000000D+00 -.000000000000000D+00
 0.453368559955045D+03 0.000000000000000D+00 0.000000000000000D+00 0.453368559955045D+03
 0.567025159740019D+03 0.000000000000000D+00 0.000000000000000D+00 -.567025159740019D+03
 0.372293502109976D+03 0.323147223503891D+03 -.484361227786871D+02 0.159264087950908D+03
 0.247369772990079D+03 -.230294509658319D+03 0.156106381459394D+02 -.889525232192649D+02
 0.150470511448429D+03 -.100355814036293D+03 -.255197881187023D+01 -.112087344552401D+03
 0.125614646334696D+03 0.888486122137762D+01 0.865313057850428D+02 0.417757798207581D+02
 0.124645286811884D+03 -.138176103065704D+01 -.511538423404249D+02 -.113656599784975D+03
0.379769390449D-06 0.000000000000D+00 0.000000000000D+00 0.159415497345D-07 0.119213164136D-12  7 21 2 24 -11 11 -24 2 2 0.30987210D-01 0.19635617D+00 0.17529120D+06 0.17529120D+06 0.17529120D+06 0.11022511D+01  1  2  1  3  7  1       -2 0.110278412152D-03 0.100000000000D+01
  </mgrwgt>
  </event>
  <event>
  8     66 0.27011060E-05 0.44352160E+03 0.75467711E-02 0.86242412E-01
       -2 -1    0    0    0  501 0.00000000E+00 0.00000000E+00 0.11519241E+04 0.11519241E+04 0.32000000E+00 0.0000E+00 0.9000E+01
        2 -1    0    0  501    0 0.00000000E+00 0.00000000E+00 -.91398157E+03 0.91398163E+03 0.32000000E+00 0.0000E+00 0.9000E+01
       25  2    1    2    0    0 -.56754150E+03 0.65756844E+03 -.38078034E+03 0.99470388E+03 0.29990420E+03 0.0000E+00 0.0000E+00
       23  2    1    2    0    0 0.56754150E+03 -.65756844E+03 0.61872283E+03 0.10712018E+04 0.10077628E+03 0.0000E+00 0.0000E+00
       24  1    3    3    0    0 -.48592770E+03 0.58173384E+03 -.39147140E+03 0.85688801E+03 0.80419002E+02 0.0000E+00 0.9000E+01
      -13  1    4    4    0    0 0.50541896E+03 -.58658610E+03 0.50951550E+03 0.92689678E+03 0.10565837E+00 0.0000E+00 0.9000E+01
       13  1    4    4    0    0 0.62122538E+02 -.70982340E+02 0.10920733E+03 0.14430507E+03 0.10565837E+00 0.0000E+00 0.9000E+01
      -24  1    3    3    0    0 -.81613797E+02 0.75834605E+02 0.10691058E+02 0.13781587E+03 0.80419002E+02 0.0000E+00 0.9000E+01
#aMCatNLO 1  0  0  1  2 0.44168376D+03 0.00000000D+00  -5  7  0 0.00000000D+00 0.00000000D+00 0.00000000D+00 0.00000000D+00 0.00000000D+00
  <mgrwgt>
 0.1383550373D-02    9    2    0
 0.102607868276347D+04 0.000000000000000D+00 0.000000000000000D+00 0.102607868276347D+04
 0.102607868276347D+04 0.000000000000000D+00 0.000000000000000D+00 -.102607868276347D+04
 0.908018827662945D+03 -.485927701040298D+03 0.581733835207183D+03 -.493448061879719D+03
 0.874030265506351D+03 0.505419447037057D+03 -.586586666947186D+03 0.405457975304037D+03
 0.132608711297166D+03 0.621220510840898D+02 -.709817730639582D+02 0.932068075501869D+02
 0.137499561060475D+03 -.816137970808489D+02 0.758346048039604D+02 -.521672097450511D+01
 0.000000000000000D+00 0.000000000000000D+00 -.000000000000000D+00 0.000000000000000D+00
 0.148324108234668D+04 0.000000000000000D+00 0.000000000000000D+00 0.148324108234668D+04
 0.116203796904777D+04 0.000000000000000D+00 0.000000000000000D+00 -.116203796904777D+04
 0.108198214792667D+04 -.669302971020360D+03 0.687575956304538D+03 -.493448061879719D+03
 0.736719573528570D+03 0.356991536585478D+03 -.500915764464253D+03 0.405457975304037D+03
 0.116428355388751D+03 0.391737008577579D+02 -.577362462058163D+02 0.932068075501869D+02
 0.164020798521232D+03 -.109398395189600D+03 0.918715589580705D+02 -.521672097450511D+01
 0.546128176029231D+03 0.382536128766724D+03 -.220795504592539D+03 0.321203113298905D+03
0.188123157204D-02 0.000000000000D+00 0.000000000000D+00 0.624951886364D-06 0.000000000000D+00  7 -2 2 24 -13 13 -24 21 0 0.17721909D+00 0.14061256D+00 0.78168650D+06 0.78168650D+06 0.78168650D+06 0.10550595D+01  1  2  2  1  7  1       -2 0.116972027449D-02 0.100000000000D+01
-.101695698117D-03 0.000000000000D+00 -.722442457627D-05 0.624951886364D-06 0.000000000000D+00  7 -2 2 24 -13 13 -24 21 2 0.17721909D+00 0.14061256D+00 0.78168650D+06 0.78168650D+06 0.78168650D+06 0.10550595D+01  1  2  3  1  7  1       -2 -.703876159464D-04 0.100000000000D+01
0.116314848118D-03 0.000000000000D+00 0.000000000000D+00 0.624951886364D-06 0.000000000000D+00  7 -2 2 24 -13 13 -24 21 2 0.17721909D+00 0.14061256D+00 0.78168650D+06 0.78168650D+06 0.78168650D+06 0.10550595D+01  1  2 15  1  7  1       -2 0.805061080235D-04 0.100000000000D+01
0.807455640182D-03 0.000000000000D+00 0.000000000000D+00 0.624951886364D-06 0.000000000000D+00  7 -2 2 24 -13 13 -24 21 2 0.26377245D+00 0.14061256D+00 0.12694661D+07 0.12694661D+07 0.12694661D+07 0.10410351D+01  1  2 12  1  7  1       -2 0.137013882190D-03 0.100000000000D+01
-.127691659888D-02 0.000000000000D+00 0.000000000000D+00 0.624951886364D-06 0.000000000000D+00  7 -2 2 24 -13 13 -24 21 2 0.17721909D+00 0.14061256D+00 0.78168650D+06 0.78168650D+06 0.78168650D+06 0.10550595D+01  1  2  4  1  7  1       -2 -.883804495385D-03 0.100000000000D+01
-.162707409848D-02 0.000000000000D+00 -.620616848103D-03 0.624951886364D-06 0.000000000000D+00  7 -2 2 24 -13 13 -24 21 2 0.27161159D+00 0.14061256D+00 0.78168650D+06 0.78168650D+06 0.78168650D+06 0.10550595D+01  1  2  5  1  7  1       -2 -.260904794367D-03 0.100000000000D+01
0.177990835737D-02 0.000000000000D+00 0.568043265119D-03 0.624951886364D-06 0.000000000000D+00  7 -2 2 24 -13 13 -24 21 2 0.17721909D+00 0.14061256D+00 0.78168650D+06 0.78168650D+06 0.78168650D+06 0.10550595D+01  1  2  6  1  7  1       -2 0.123194499077D-02 0.100000000000D+01
0.382724744146D-04 0.000000000000D+00 0.000000000000D+00 0.624951886364D-06 0.000000000000D+00  7 21 2 24 -13 13 -24 2 2 0.26377245D+00 0.14061256D+00 0.12694661D+07 0.12694661D+07 0.12694661D+07 0.10410351D+01  1  2 12  3  7  1       -2 0.454343785883D-04 0.100000000000D+01
-.581785095671D-04 0.000000000000D+00 -.310024794888D-04 0.624951886364D-06 0.000000000000D+00  7 21 2 24 -13 13 -24 2 2 0.27161159D+00 0.14061256D+00 0.78168650D+06 0.78168650D+06 0.78168650D+06 0.10550595D+01  1  2  5  3  7  1       -2 -.659723552456D-04 0.100000000000D+01
  </mgrwgt>
  </event>
  <event>
  8     66 0.27011060E-05 0.25243623E+03 0.75467711E-02 0.93741947E-01
       -2 -1    0    0    0  501 0.00000000E+00 0.00000000E+00 0.36802202E+02 0.36803593E+02 0.32000000E+00 0.0000E+00 0.9000E+01
        2 -1    0    0  501    0 0.00000000E+00 0.00000000E+00 -.27758786E+04 0.27758786E+04 0.32000000E+00 0.0000E+00 0.9000E+01
       25  2    1    2    0    0 -.70295966E+02 -.18850476E+03 -.10824115E+04 0.11414629E+04 0.30140904E+03 0.0000E+00 0.0000E+00
       23  2    1    2    0    0 0.70295966E+02 0.18850476E+03 -.16566649E+04 0.16712192E+04 0.89217276E+02 0.0000E+00 0.0000E+00
       24  1    3    3    0    0 -.60711443E+02 -.19514466E+03 -.10067670E+04 0.10304437E+04 0.80419002E+02 0.0000E+00 0.9000E+01
      -11  1    4    4    0    0 -.32779389E+01 0.17871545E+02 -.40278129E+02 0.44186702E+02 0.51099893E-03 0.0000E+00 0.9000E+01
       11  1    4    4    0    0 0.73573905E+02 0.17063321E+03 -.16163867E+04 0.16270325E+04 0.51099893E-03 0.0000E+00 0.9000E+01
      -24  1    3    3    0    0 -.95845226E+01 0.66399072E+01 -.75644488E+02 0.11101917E+03 0.80419002E+02 0.0000E+00 0.9000E+01
#aMCatNLO 1  0  0  2  1 0.41128762D+03 0.00000000D+00  -5  7  0 0.00000000D+00 0.00000000D+00 0.00000000D+00 0.00000000D+00 0.00000000D+00
  <mgrwgt>
 0.1413869362D-02    3    2    0
 0.319625445383898D+03 0.000000000000000D+00 0.000000000000000D+00 0.319625445383898D+03
 0.319625445383898D+03 0.000000000000000D+00 0.000000000000000D+00 -.319625445383898D+03
 0.220099940831716D+03 -.607114434807719D+02 -.195144662623507D+03 -.144723626195886D+02
 0.218353698332332D+02 -.327793887899546D+01 0.178715450904697D+02 0.121097633560259D+02
 0.232958187535013D+03 0.735739049184720D+02 0.170633210365269D+03 -.140501619830833D+03
 0.164357392567833D+03 -.958452255870462D+01 0.663990716776837D+01 0.142864219094395D+03
 0.000000000000000D+00 0.000000000000000D+00 -.000000000000000D+00 0.000000000000000D+00
 0.710378028936734D+03 0.000000000000000D+00 0.000000000000000D+00 0.710378028936734D+03
 0.508093907364022D+03 0.000000000000000D+00 0.000000000000000D+00 -.508093907364022D+03
 0.143484128896973D+03 -.768111066684826D+02 -.895046585576567D+02 -.144723626195886D+02
 0.376492314798374D+02 -.591194329703920D+01 0.351549027723876D+02 0.121097633560259D+02
 0.378408519103293D+03 0.465023171330074D+02 0.348266904336488D+03 -.140501619830833D+03
 0.200589166575545D+03 -.257445173794533D+02 0.112675784978623D+03 0.142864219094395D+03
 0.458340890245108D+03 0.619652502119677D+02 -.406592933529842D+03 0.202284121572712D+03
0.291593166196D-04 0.000000000000D+00 0.000000000000D+00 0.101419636014D-06 0.000000000000D+00  7 -2 2 24 -11 11 -24 21 0 0.56619856D-02 0.42705835D+00 0.63724052D+05 0.63724052D+05 0.63724052D+05 0.11381440D+01  1  2  2  2  7  2        2 0.138848922562D-02 0.100000000000D+01
-.151026932459D-05 0.000000000000D+00 -.111979453644D-06 0.101419636014D-06 0.000000000000D+00  7 -2 2 24 -11 11 -24 21 2 0.56619856D-02 0.42705835D+00 0.63724052D+05 0.63724052D+05 0.63724052D+05 0.11381440D+01  1  2  3  2  7  2        2 -.931566756659D-04 0.100000000000D+01
0.192173571156D-05 0.000000000000D+00 0.000000000000D+00 0.101419636014D-06 0.000000000000D+00  7 -2 2 24 -11 11 -24 21 2 0.56619856D-02 0.42705835D+00 0.63724052D+05 0.63724052D+05 0.63724052D+05 0.11381440D+01  1  2 15  2  7  2        2 0.118536811603D-03 0.100000000000D+01
  </mgrwgt>
  </event>
  <event>
  8     66 0.27011060E-05 0.19543705E+03 0.75467711E-02 0.95564873E-01
       -2 -1    0    0    0  501 0.00000000E+00 0.00000000E+00 0.47797077E+03 0.47797088E+03 0.32000000E+00 0.0000E+00 0.9000E+01
        2 -1    0    0  501    0 0.00000000E+00 0.00000000E+00 -.55206777E+03 0.55206787E+03 0.32000000E+00 0.0000E+00 0.9000E+01
       25  2    1    2    0    0 0.27351589E+03 -.15971573E+03 -.38086236E+03 0.58021728E+03 0.30211900E+03 0.0000E+00 0.0000E+00
       23  2    1    2    0    0 -.27351589E+03 0.15971573E+03 0.30676536E+03 0.44982147E+03 0.88962394E+02 0.0000E+00 0.0000E+00
       24  1    3    3    0    0 0.91358997E+02 0.64522564E+02 -.12489747E+03 0.18594682E+03 0.80419002E+02 0.0000E+00 0.9000E+01
      -11  1    4    4    0    0 -.27358716E+03 0.13954331E+03 0.29763640E+03 0.42767943E+03 0.51099893E-03 0.0000E+00 0.9000E+01
       11  1    4    4    0    0 0.71265812E-01 0.20172427E+02 0.91289559E+01 0.22142035E+02 0.51099893E-03 0.0000E+00 0.9000E+01
      -24  1    3    3    0    0 0.18215690E+03 -.22423830E+03 -.25596489E+03 0.39427045E+03 0.80419002E+02 0.0000E+00 0.9000E+01
#aMCatNLO 1  0  0  1  2 0.14030331D+03 0.00000000D+00  -5  7  0 0.00000000D+00 0.00000000D+00 0.00000000D+00 0.00000000D+00 0.00000000D+00
  <mgrwgt>
 0.1375741047D-02    9    2    0
 0.513685079534351D+03 0.000000000000000D+00 0.000000000000000D+00 0.513685079534351D+03
 0.513685079534351D+03 0.000000000000000D+00 0.000000000000000D+00 -.513685079534351D+03
 0.177421840015754D+03 0.913589968348669D+02 0.645225640728123D+02 -.111810848234873D+03
 0.450256748383835D+03 -.273587160802174D+03 0.139543305151104D+03 0.329255024102739D+03
 0.228579566969733D+02 0.712658204254240D-01 0.201724272115856D+02 0.107496179437608D+02
 0.376833613972139D+03 0.182156898146881D+03 -.224238296435502D+03 -.228193793811627D+03
 0.000000000000000D+00 0.000000000000000D+00 0.000000000000000D+00 0.000000000000000D+00
 0.590577712330284D+03 0.000000000000000D+00 0.000000000000000D+00 0.590577712330284D+03
 0.586685769885174D+03 0.000000000000000D+00 0.000000000000000D+00 -.586685769885174D+03
 0.164115477253210D+03 0.700647040527374D+02 0.552806058458017D+02 -.111810848234873D+03
 0.481122681052190D+03 -.331657143960250D+03 0.114340291175428D+03 0.329255024102739D+03
 0.219644026067506D+02 -.272333492725117D+01 0.189595396254398D+02 0.107496179437608D+02
 0.369703637219670D+03 0.135611522295242D+03 -.244439503570325D+03 -.228193793811627D+03
 0.140357284083637D+03 0.128704252539522D+03 0.558590669236555D+02 0.389194244510974D+01
0.784470712812D-04 0.000000000000D+00 0.000000000000D+00 0.146648757651D-06 0.000000000000D+00  7 -2 2 24 -11 11 -24 21 0 0.73533980D-01 0.84933519D-01 0.14628084D+06 0.14628084D+06 0.14628084D+06 0.11084134D+01  1  2  2  1  7  1       -2 0.910803650615D-03 0.100000000000D+01
-.389713210624D-05 0.000000000000D+00 -.301257409308D-06 0.146648757651D-06 0.000000000000D+00  7 -2 2 24 -11 11 -24 21 2 0.73533980D-01 0.84933519D-01 0.14628084D+06 0.14628084D+06 0.14628084D+06 0.11084134D+01  1  2  3  1  7  1       -2 -.555900012310D-04 0.100000000000D+01
0.496675414515D-05 0.000000000000D+00 0.000000000000D+00 0.146648757651D-06 0.000000000000D+00  7 -2 2 24 -11 11 -24 21 2 0.73533980D-01 0.84933519D-01 0.14628084D+06 0.14628084D+06 0.14628084D+06 0.11084134D+01  1  2 15  1  7  1       -2 0.708474492308D-04 0.100000000000D+01
0.449002455108D-04 0.000000000000D+00 0.000000000000D+00 0.146648757651D-06 0.000000000000D+00  7 -2 2 24 -11 11 -24 21 2 0.89045409D-01 0.84933519D-01 0.21218939D+06 0.21218939D+06 0.21218939D+06 0.10958575D+01  1  2 12  1  7  1       -2 0.402939778373D-03 0.100000000000D+01
-.432266159402D-04 0.000000000000D+00 0.000000000000D+00 0.146648757651D-06 0.000000000000D+00  7 -2 2 24 -11 11 -24 21 2 0.73533980D-01 0.84933519D-01 0.14628084D+06 0.14628084D+06 0.14628084D+06 0.11084134D+01  1  2  4  1  7  1       -2 -.616598967604D-03 0.100000000000D+01
-.106033410885D-03 0.000000000000D+00 -.430000958862D-04 0.146648757651D-06 0.000000000000D+00  7 -2 2 24 -11 11 -24 21 2 0.94568212D-01 0.84933519D-01 0.14628084D+06 0.14628084D+06 0.14628084D+06 0.11084134D+01  1  2  5  1  7  1       -2 -.855401583721D-03 0.100000000000D+01
0.114533322995D-03 0.000000000000D+00 0.416743540499D-04 0.146648757651D-06 0.000000000000D+00  7 -2 2 24 -11 11 -24 21 2 0.73533980D-01 0.84933519D-01 0.14628084D+06 0.14628084D+06 0.14628084D+06 0.11084134D+01  1  2  6  1  7  1       -2 0.163374178567D-02 0.100000000000D+01
0.124213015599D-05 0.000000000000D+00 0.000000000000D+00 0.146648757651D-06 0.000000000000D+00  7 21 2 24 -11 11 -24 2 2 0.89045409D-01 0.84933519D-01 0.21218939D+06 0.21218939D+06 0.21218939D+06 0.10958575D+01  1  2 12  3  7  1       -2 0.105937283754D-03 0.100000000000D+01
-.287708363186D-05 0.000000000000D+00 -.146201178987D-05 0.146648757651D-06 0.000000000000D+00  7 21 2 24 -11 11 -24 2 2 0.94568212D-01 0.84933519D-01 0.14628084D+06 0.14628084D+06 0.14628084D+06 0.11084134D+01  1  2  5  3  7  1       -2 -.220938348455D-03 0.100000000000D+01
  </mgrwgt>
  </event>
  <event>
  8     66 0.27011060E-05 0.63455605E+03 0.75467711E-02 0.91898205E-01
       -2 -1    0    0    0  501 0.00000000E+00 0.00000000E+00 0.22870543E+03 0.22870565E+03 0.32000000E+00 0.0000E+00 0.9000E+01
        2 -1    0    0  501    0 0.00000000E+00 0.00000000E+00 -.23729194E+04 0.23729194E+04 0.32000000E+00 0.0000E+00 0.9000E+01
       25  2    1    2    0    0 -.24882711E+03 -.55812630E+03 -.17268735E+04 0.18562463E+04 0.30023054E+03 0.0000E+00 0.0000E+00
       23  2    1    2    0    0 0.24882711E+03 0.55812630E+03 -.41734045E+03 0.74537874E+03 0.89423233E+02 0.0000E+00 0.0000E+00
       24  1    3    3    0    0 -.30859530E+01 -.20556990E+03 -.37195987E+03 0.43253886E+03 0.80419002E+02 0.0000E+00 0.9000E+01
      -13  1    4    4    0    0 0.21962411E+03 0.48558655E+03 -.39705951E+03 0.66459410E+03 0.10565837E+00 0.0000E+00 0.9000E+01
       13  1    4    4    0    0 0.29203000E+02 0.72539751E+02 -.20280938E+02 0.80784641E+02 0.10565837E+00 0.0000E+00 0.9000E+01
      -24  1    3    3    0    0 -.24574116E+03 -.35255640E+03 -.13549136E+04 0.14237075E+04 0.80419002E+02 0.0000E+00 0.9000E+01
#aMCatNLO 1  0  0  2  2 0.12039723D+02 0.00000000D+00  -5  7  0 0.00000000D+00 0.00000000D+00 0.00000000D+00 0.00000000D+00 0.00000000D+00
  <mgrwgt>
 0.6474068489D-03    4    2    0
 0.736681652796353D+03 0.000000000000000D+00 0.000000000000000D+00 0.736681652796353D+03
 0.736681652796353D+03 0.000000000000000D+00 0.000000000000000D+00 -.736681652796353D+03
 0.222445063488161D+03 -.308595303594917D+01 -.205569897533329D+03 -.273145462689345D+02
 0.595674602131806D+03 0.219624374549428D+03 0.485587127382052D+03 0.266079889224091D+03
 0.113131420513299D+03 0.292027338578543D+02 0.725391742281453D+02 0.817556532900513D+02
 0.542112219459440D+03 -.245741155371333D+03 -.352556404076868D+03 -.320520996245208D+03
 0.000000000000000D+00 0.000000000000000D+00 0.000000000000000D+00 0.000000000000000D+00
 0.745110025309930D+03 0.000000000000000D+00 0.000000000000000D+00 0.745110025309930D+03
 0.741018443940051D+03 0.000000000000000D+00 0.000000000000000D+00 -.741018443940051D+03
 0.224132486532628D+03 -.310316213597386D+01 -.207394410512453D+03 -.273145462689345D+02
 0.591709719878911D+03 0.219578618072049D+03 0.480736014497815D+03 0.266079889224091D+03
 0.112540212783149D+03 0.291940374831487D+02 0.716171824622128D+02 0.817556532900513D+02
 0.545030077422926D+03 -.245783048969717D+03 -.356997973588646D+03 -.320520996245208D+03
 0.127159726323677D+02 0.113555550493290D+00 0.120391871410711D+02 0.409158136987951D+01
0.208215536335D-03 0.000000000000D+00 0.000000000000D+00 0.467050269290D-05 0.000000000000D+00  7 -2 2 24 -13 13 -24 21 0 0.35185469D-01 0.36506454D+00 0.40266138D+06 0.40266138D+06 0.40266138D+06 0.10752201D+01  1  2  2  2  7  2        2 0.817376080622D-03 0.100000000000D+01
-.112543197120D-04 0.000000000000D+00 -.799602483936D-06 0.467050269290D-05 0.000000000000D+00  7 -2 2 24 -13 13 -24 21 2 0.35185469D-01 0.36506454D+00 0.40266138D+06 0.40266138D+06 0.40266138D+06 0.10752201D+01  1  2  3  2  7  2        2 -.510766922672D-04 0.100000000000D+01
0.135081221696D-04 0.000000000000D+00 0.000000000000D+00 0.467050269290D-05 0.000000000000D+00  7 -2 2 24 -13 13 -24 21 2 0.35185469D-01 0.36506454D+00 0.40266138D+06 0.40266138D+06 0.40266138D+06 0.10752201D+01  1  2 15  2  7  2        2 0.613053669006D-04 0.100000000000D+01
-.397050936421D-04 0.000000000000D+00 0.000000000000D+00 0.467050269290D-05 0.000000000000D+00  7 -2 2 24 -13 13 -24 21 2 0.35185469D-01 0.36506454D+00 0.40266138D+06 0.40266138D+06 0.40266138D+06 0.10752201D+01  1  2  4  2  7  2        2 -.180197906341D-03 0.100000000000D+01
  </mgrwgt>
  </event>
  <event>
  8     66 0.27011060E-05 0.43097209E+03 0.75467711E-02 0.92038342E-01
       -2 -1    0    0    0  501 0.00000000E+00 0.00000000E+00 0.22629317E+03 0.22629340E+03 0.32000000E+00 0.0000E+00 0.9000E+01
        2 -1    0    0  501    0 0.00000000E+00 0.00000000E+00 -.87892478E+03 0.87892483E+03 0.32000000E+00 0.0000E+00 0.9000E+01
       25  2    1    2    0    0 -.18706439E+03 0.32911696E+03 -.47352796E+03 0.67699028E+03 0.30129065E+03 0.0000E+00 0.0000E+00
       23  2    1    2    0    0 0.18706439E+03 -.32911696E+03 -.17910364E+03 0.42822795E+03 0.89386832E+02 0.0000E+00 0.0000E+00
       24  1    3    3    0    0 -.16629268E+03 0.34353893E+03 -.43511590E+03 0.58435034E+03 0.80419002E+02 0.0000E+00 0.9000E+01
      -11  1    4    4    0    0 0.19572449E+03 -.31917952E+03 -.17910882E+03 0.41504652E+03 0.51099893E-03 0.0000E+00 0.9000E+01
       11  1    4    4    0    0 -.86601046E+01 -.99374425E+01 0.51819545E-02 0.13181434E+02 0.51099893E-03 0.0000E+00 0.9000E+01
      -24  1    3    3    0    0 -.20771702E+02 -.14421974E+02 -.38412064E+02 0.92639946E+02 0.80419002E+02 0.0000E+00 0.9000E+01
#aMCatNLO 1  0  0  2  2 0.34241016D+03 0.00000000D+00  -5  7  0 0.00000000D+00 0.00000000D+00 0.00000000D+00 0.00000000D+00 0.00000000D+00
  <mgrwgt>
 0.1738902720D-02    3    2    0
 0.445976270945047D+03 0.000000000000000D+00 0.000000000000000D+00 0.445976270945047D+03
 0.445976270945047D+03 0.000000000000000D+00 0.000000000000000D+00 -.445976270945047D+03
 0.405699009036463D+03 -.166292684606882D+03 0.343538934383348D+03 -.111589486905296D+03
 0.383232162162973D+03 0.195724491268241D+03 -.319179518302025D+03 0.817511390158141D+02
 0.163369040533624D+02 -.866010460579593D+01 -.993744248559876D+01 0.965112734921973D+01
 0.866844666372963D+02 -.207717020555622D+02 -.144219735957245D+02 0.201872205402620D+02
 0.000000000000000D+00 -.000000000000000D+00 0.000000000000000D+00 0.000000000000000D+00
 0.890393210219500D+03 0.000000000000000D+00 0.000000000000000D+00 0.890393210219500D+03
 0.548734841987370D+03 0.000000000000000D+00 0.000000000000000D+00 -.548734841987370D+03
 0.289219074424792D+03 -.959887827260292D+02 0.235614933864029D+03 -.111589486905296D+03
 0.554179037887993D+03 0.290561086543100D+03 -.464763824206415D+03 0.817511390158141D+02
 0.188812090937147D+02 -.509713678261228D+01 -.154069787547416D+02 0.965112734921973D+01
 0.931389413509151D+02 -.257921644903574D+01 -.423493826515395D+02 0.201872205402620D+02
 0.483709789449456D+03 -.186895950585423D+03 0.286905251748667D+03 0.341658368232130D+03
0.595813500092D-04 0.000000000000D+00 0.000000000000D+00 0.223325852424D-06 0.000000000000D+00  7 -2 2 24 -11 11 -24 21 0 0.34814356D-01 0.13521922D+00 0.18573694D+06 0.18573694D+06 0.18573694D+06 0.11003017D+01  1  2  2  2  7  2        2 0.172077161787D-02 0.100000000000D+01
-.330536153150D-05 0.000000000000D+00 -.228808072165D-06 0.223325852424D-06 0.000000000000D+00  7 -2 2 24 -11 11 -24 21 2 0.34814356D-01 0.13521922D+00 0.18573694D+06 0.18573694D+06 0.18573694D+06 0.11003017D+01  1  2  3  2  7  2        2 -.115572754258D-03 0.100000000000D+01
0.382390804370D-05 0.000000000000D+00 0.000000000000D+00 0.223325852424D-06 0.000000000000D+00  7 -2 2 24 -11 11 -24 21 2 0.34814356D-01 0.13521922D+00 0.18573694D+06 0.18573694D+06 0.18573694D+06 0.11003017D+01  1  2 15  2  7  2        2 0.133703856727D-03 0.100000000000D+01
  </mgrwgt>
  </event>
  <event>
  8     66 0.27011060E-05 0.34520078E+03 0.75467711E-02 0.91059664E-01
       -2 -1    0    0    0  501 0.00000000E+00 0.00000000E+00 0.78432772E+02 0.78433425E+02 0.32000000E+00 0.0000E+00 0.9000E+01
        2 -1    0    0  501    0 0.00000000E+00 0.00000000E+00 -.17736178E+04 0.17736178E+04 0.32000000E+00 0.0000E+00 0.9000E+01
       25  2    1    2    0    0 -.96305485E+02 -.29094574E+03 -.94400646E+03 0.10356247E+04 0.29571301E+03 0.0000E+00 0.0000E+00
       23  2    1    2    0    0 0.96305485E+02 0.29094574E+03 -.75117852E+03 0.81642649E+03 0.91426890E+02 0.0000E+00 0.0000E+00
       24  1    3    3    0    0 -.84380983E+02 -.27739181E+03 -.88363699E+03 0.93346018E+03 0.80419002E+02 0.0000E+00 0.9000E+01
      -11  1    4    4    0    0 0.19349301E+02 0.86641698E+02 -.12528179E+03 0.15354708E+03 0.51099893E-03 0.0000E+00 0.9000E+01
       11  1    4    4    0    0 0.76956185E+02 0.20430404E+03 -.62589673E+03 0.66287941E+03 0.51099893E-03 0.0000E+00 0.9000E+01
      -24  1    3    3    0    0 -.11924503E+02 -.13553933E+02 -.60369469E+02 0.10216453E+03 0.80419002E+02 0.0000E+00 0.9000E+01
#aMCatNLO 1  0  0  1  2 0.52003669D+03 0.00000000D+00  -5  7  0 0.00000000D+00 0.00000000D+00 0.00000000D+00 0.00000000D+00 0.00000000D+00
  <mgrwgt>
 0.2812490765D-02    3    2    0
 0.372975049341734D+03 0.000000000000000D+00 0.000000000000000D+00 0.372975049341734D+03
 0.372975049341734D+03 0.000000000000000D+00 0.000000000000000D+00 -.372975049341734D+03
 0.309521911536139D+03 -.843809827263452D+02 -.277391805764139D+03 -.725963746729913D+02
 0.965228735088559D+02 0.193493008599649D+02 0.866416975268951D+02 0.378878069607516D+02
 0.223441051511355D+03 0.769561845957493D+02 0.204304041366116D+03 -.475763369169731D+02
 0.116464262127117D+03 -.119245027293690D+02 -.135539331288723D+02 0.822849046292128D+02
 0.000000000000000D+00 0.000000000000000D+00 -.000000000000000D+00 -.000000000000000D+00
 0.593617395672440D+03 0.000000000000000D+00 0.000000000000000D+00 0.593617395672440D+03
 0.941229546387118D+03 0.000000000000000D+00 0.000000000000000D+00 -.941229546387118D+03
 0.397199889346042D+03 -.302126713153869D+03 -.233986648604822D+03 -.725963746729913D+02
 0.116242571701585D+03 -.462051609088017D+02 0.997092406193870D+02 0.378878069607516D+02
 0.247608850532863D+03 -.681774519503395D+02 0.233234796017506D+03 -.475763369169731D+02
 0.148277951637552D+03 -.934933557621027D+02 0.270589836467573D+01 0.822849046292128D+02
 0.625517678841515D+03 0.510002681775113D+03 -.101663286396747D+03 -.347612150714677D+03
0.521802168937D-04 0.000000000000D+00 0.000000000000D+00 0.477352422958D-07 0.000000000000D+00  7 -2 2 24 -11 11 -24 21 0 0.12066633D-01 0.27286432D+00 0.11916358D+06 0.11916358D+06 0.11916358D+06 0.11155266D+01  1  2  2  1  7  1       -2 0.278022425696D-02 0.100000000000D+01
-.287779367764D-05 0.000000000000D+00 -.200385772239D-06 0.477352422958D-07 0.000000000000D+00  7 -2 2 24 -11 11 -24 21 2 0.12066633D-01 0.27286432D+00 0.11916358D+06 0.11916358D+06 0.11916358D+06 0.11155266D+01  1  2  3  1  7  1       -2 -.190806641981D-03 0.100000000000D+01
0.336444525166D-05 0.000000000000D+00 0.000000000000D+00 0.477352422958D-07 0.000000000000D+00  7 -2 2 24 -11 11 -24 21 2 0.12066633D-01 0.27286432D+00 0.11916358D+06 0.11916358D+06 0.11916358D+06 0.11155266D+01  1  2 15  1  7  1       -2 0.223073149957D-03 0.100000000000D+01
  </mgrwgt>
  </event>
  <event>
  8     66 0.27011060E-05 0.10739949E+04 0.75467711E-02 0.85225526E-01
       -2 -1    0    0    0  501 0.00000000E+00 0.00000000E+00 0.89622205E+03 0.89622210E+03 0.32000000E+00 0.0000E+00 0.9000E+01
        2 -1    0    0  501    0 0.00000000E+00 0.00000000E+00 -.23181667E+04 0.23181667E+04 0.32000000E+00 0.0000E+00 0.9000E+01
       25  2    1    2    0    0 0.57502953E+03 0.10968343E+04 -.15032371E+04 0.19706381E+04 0.29998031E+03 0.0000E+00 0.0000E+00
       23  2    1    2    0    0 -.57502953E+03 -.10968343E+04 0.81292449E+02 0.12437507E+04 0.81258275E+02 0.0000E+00 0.0000E+00
       24  1    3    3    0    0 0.14255217E+02 0.14678262E+03 -.18867440E+03 0.25261353E+03 0.80419002E+02 0.0000E+00 0.9000E+01
      -11  1    4    4    0    0 -.47838899E+03 -.85171439E+03 0.81557037E+02 0.98026781E+03 0.51099893E-03 0.0000E+00 0.9000E+01
       11  1    4    4    0    0 -.96640535E+02 -.24511994E+03 -.26458824E+00 0.26348292E+03 0.51099893E-03 0.0000E+00 0.9000E+01
      -24  1    3    3    0    0 0.56077431E+03 0.95005171E+03 -.13145627E+04 0.17180245E+04 0.80419002E+02 0.0000E+00 0.9000E+01
#aMCatNLO 1  0  0  1  2 0.52003669D+03 0.00000000D+00  -5  7  0 0.00000000D+00 0.00000000D+00 0.00000000D+00 0.00000000D+00 0.00000000D+00
  <mgrwgt>
 0.1379604692D-04    1    2    0
 0.144138551167005D+04 0.000000000000000D+00 0.000000000000000D+00 0.144138551167005D+04
 0.144138551167005D+04 0.000000000000000D+00 0.000000000000000D+00 -.144138551167005D+04
 0.188607955854523D+03 0.142552165108091D+02 0.146782623565007D+03 -.857752602960467D+02
 0.113326081607296D+04 -.478388992014305D+03 -.851714389752301D+03 0.574462050839534D+03
 0.293662000522244D+03 -.966405354107056D+02 -.245119939841027D+03 0.129669551393495D+03
 0.126724025089037D+04 0.560774310914202D+03 0.950051706028320D+03 -.618356341936982D+03
 0.000000000000000D+00 -.000000000000000D+00 0.000000000000000D+00 -.000000000000000D+00
 0.161367512166605D+04 0.000000000000000D+00 0.000000000000000D+00 0.161367512166605D+04
 0.175191079023667D+04 0.000000000000000D+00 0.000000000000000D+00 -.175191079023667D+04
 0.169239204201512D+03 0.174242782451338D+02 0.120472783371067D+03 -.857752602960467D+02
 0.126317014037868D+04 -.457166418550671D+03 -.102790613454687D+04 0.574462050839534D+03
 0.331421970169059D+03 -.911048489127399D+02 -.291077715149644D+03 0.129669551393495D+03
 0.115073225855900D+04 0.582187654401810D+03 0.772276171056928D+03 -.618356341936982D+03
 0.451022338594470D+03 -.513406651835328D+02 0.426234895268523D+03 -.138235668570627D+03
0.687676661078D-04 0.000000000000D+00 0.000000000000D+00 0.670083581875D-06 0.000000000000D+00  7 -2 2 24 -11 11 -24 21 2 0.13788032D+00 0.35664103D+00 0.15806289D+07 0.15806289D+07 0.15806289D+07 0.10348795D+01  1  2 14  1  7  1       -2 0.137960469216D-04 0.100000000000D+01
  </mgrwgt>
  </event>
  <event>
  8     66 0.27011060E-05 0.23639979E+03 0.75467711E-02 0.97512635E-01
       -2 -1    0    0    0  501 0.00000000E+00 0.00000000E+00 0.18746811E+03 0.18746838E+03 0.32000000E+00 0.0000E+00 0.9000E+01
        2 -1    0    0  501    0 0.00000000E+00 0.00000000E+00 -.91381428E+03 0.91381434E+03 0.32000000E+00 0.0000E+00 0.9000E+01
       25  2    1    2    0    0 -.14361283E+03 -.52794809E+02 -.82962233E+03 0.89489964E+03 0.29859710E+03 0.0000E+00 0.0000E+00
       23  2    1    2    0    0 0.14361283E+03 0.52794809E+02 0.10327615E+03 0.20638308E+03 0.92282573E+02 0.0000E+00 0.0000E+00
       24  1    3    3    0    0 0.12978862E+02 -.82729209E+02 -.13675196E+03 0.17939032E+03 0.80419002E+02 0.0000E+00 0.9000E+01
      -13  1    4    4    0    0 0.67419938E+02 -.22441318E+02 0.49174208E+02 0.86412816E+02 0.10565837E+00 0.0000E+00 0.9000E+01
       13  1    4    4    0    0 0.76192897E+02 0.75236127E+02 0.54101942E+02 0.11997026E+03 0.10565837E+00 0.0000E+00 0.9000E+01
      -24  1    3    3    0    0 -.15659170E+03 0.29934400E+02 -.69287036E+03 0.71550932E+03 0.80419002E+02 0.0000E+00 0.9000E+01
#aMCatNLO 1  0  0  2  2 0.27018803D+03 0.00000000D+00  -5  7  0 0.00000000D+00 0.00000000D+00 0.00000000D+00 0.00000000D+00 0.00000000D+00
  <mgrwgt>
 0.6240039916D-03    7    2    0
 0.413897589900664D+03 0.000000000000000D+00 0.000000000000000D+00 0.413897589900664D+03
 0.413897589900664D+03 0.000000000000000D+00 0.000000000000000D+00 -.413897589900664D+03
 0.118664858632110D+03 0.129788623503071D+02 -.827292089637866D+02 -.245267167824404D+02
 0.158109625324385D+03 0.674199262327149D+02 -.224414460903964D+02 0.141243012798384D+03
 0.207077755146972D+03 0.761929087738611D+02 0.752362552725808D+02 0.177243739584354D+03
 0.343942940697862D+03 -.156591697356883D+03 0.299343997816021D+02 -.293960035600297D+03
 0.000000000000000D+00 0.000000000000000D+00 0.000000000000000D+00 -.000000000000000D+00
 0.543351400101536D+03 0.000000000000000D+00 0.000000000000000D+00 0.543351400101536D+03
 0.604427161826785D+03 0.000000000000000D+00 0.000000000000000D+00 -.604427161826785D+03
 0.127195833703866D+03 -.249860493695500D+02 -.921178682885539D+02 -.245267167824404D+02
 0.146714955496288D+03 0.203500258312106D+02 -.340817539246778D+02 0.141243012798384D+03
 0.187792066044470D+03 0.152185506528691D+02 0.601573982435276D+02 0.177243739584354D+03
 0.409070612982548D+03 -.272869304882149D+03 0.117914144702987D+01 -.293960035600297D+03
 0.277005093701150D+03 0.262286777767619D+03 0.648630825226743D+02 -.610757617252493D+02
0.179590422009D-04 0.000000000000D+00 0.000000000000D+00 0.230393590502D-06 0.000000000000D+00  7 -2 2 24 -13 13 -24 21 0 0.28841273D-01 0.14058684D+00 0.55884863D+05 0.55884863D+05 0.55884863D+05 0.11430689D+01  1  2  2  2  7  2        2 0.702746058254D-03 0.100000000000D+01
-.617172348595D-06 0.000000000000D+00 -.689674507758D-07 0.230393590502D-06 0.000000000000D+00  7 -2 2 24 -13 13 -24 21 2 0.28841273D-01 0.14058684D+00 0.55884863D+05 0.55884863D+05 0.55884863D+05 0.11430689D+01  1  2  3  2  7  2        2 -.315548805504D-04 0.100000000000D+01
0.106730702669D-05 0.000000000000D+00 0.000000000000D+00 0.230393590502D-06 0.000000000000D+00  7 -2 2 24 -13 13 -24 21 2 0.28841273D-01 0.14058684D+00 0.55884863D+05 0.55884863D+05 0.55884863D+05 0.11430689D+01  1  2 15  2  7  2        2 0.545694339914D-04 0.100000000000D+01
-.675296252044D-05 0.000000000000D+00 0.000000000000D+00 0.230393590502D-06 0.000000000000D+00  7 -2 2 24 -13 13 -24 21 2 0.28841273D-01 0.14058684D+00 0.55884863D+05 0.55884863D+05 0.55884863D+05 0.11430689D+01  1  2  4  2  7  2        2 -.345266482173D-03 0.100000000000D+01
-.260050881020D-05 0.000000000000D+00 -.605517990572D-05 0.230393590502D-06 0.000000000000D+00  7 -2 2 24 -13 13 -24 21 2 0.28841273D-01 0.24350846D+00 0.55884863D+05 0.55884863D+05 0.55884863D+05 0.11430689D+01  1  2  5  2  7  2        2 -.559045883473D-04 0.100000000000D+01
0.583528235986D-05 0.000000000000D+00 0.524388673833D-05 0.230393590502D-06 0.000000000000D+00  7 -2 2 24 -13 13 -24 21 2 0.28841273D-01 0.14058684D+00 0.55884863D+05 0.55884863D+05 0.55884863D+05 0.11430689D+01  1  2  6  2  7  2        2 0.298347193069D-03 0.100000000000D+01
0.143652949494D-06 0.000000000000D+00 -.368514598512D-06 0.230393590502D-06 0.000000000000D+00  7 -2 21 24 -13 13 -24 -2 2 0.28841273D-01 0.24350846D+00 0.55884863D+05 0.55884863D+05 0.55884863D+05 0.11430689D+01  1  2  5  4  7  2        2 0.106725734278D-05 0.100000000000D+01
  </mgrwgt>
  </event>
  <event>
  8     66 0.27011060E-05 0.50534443E+03 0.75467711E-02 0.90326330E-01
       -2 -1    0    0    0  501 0.00000000E+00 0.00000000E+00 0.41526843E+03 0.41526855E+03 0.32000000E+00 0.0000E+00 0.9000E+01
        2 -1    0    0  501    0 0.00000000E+00 0.00000000E+00 -.81907878E+03 0.81907884E+03 0.32000000E+00 0.0000E+00 0.9000E+01
       25  2    1    2    0    0 -.29454630E+03 0.36490017E+03 0.70599322E+02 0.56140955E+03 0.30047756E+03 0.0000E+00 0.0000E+00
       23  2    1    2    0    0 0.29454630E+03 -.36490017E+03 -.47440967E+03 0.67293785E+03 0.88719525E+02 0.0000E+00 0.0000E+00
       24  1    3    3    0    0 0.38822029E+01 0.12011676E+03 -.43429721E+02 0.15098498E+03 0.80419002E+02 0.0000E+00 0.9000E+01
      -11  1    4    4    0    0 0.26847034E+03 -.30403322E+03 -.43959037E+03 0.59812391E+03 0.51099893E-03 0.0000E+00 0.9000E+01
       11  1    4    4    0    0 0.26075966E+02 -.60866949E+02 -.34819304E+02 0.74813938E+02 0.51099893E-03 0.0000E+00 0.9000E+01
      -24  1    3    3    0    0 -.29842850E+03 0.24478341E+03 0.11402904E+03 0.41042457E+03 0.80419002E+02 0.0000E+00 0.9000E+01
#aMCatNLO 1  0  0  2  1 0.41258466D+03 0.00000000D+00  -5  7  0 0.00000000D+00 0.00000000D+00 0.00000000D+00 0.00000000D+00 0.00000000D+00
  <mgrwgt>
 0.1231846174D-02    3    2    0
 0.583213231265722D+03 0.000000000000000D+00 0.000000000000000D+00 0.583213231265722D+03
 0.583213231265722D+03 0.000000000000000D+00 0.000000000000000D+00 -.583213231265722D+03
 0.144741697575071D+03 0.388220290053118D+01 0.120116760547435D+03 0.631152903597632D+01
 0.480768882775819D+03 0.268470335807381D+03 -.304033216752607D+03 -.258120515550477D+03
 0.671160998192088D+02 0.260759661112644D+02 -.608669489713802D+02 -.109466601857181D+02
 0.473799782361345D+03 -.298428504819177D+03 0.244783405176553D+03 0.262755646700218D+03
 0.000000000000000D+00 -.000000000000000D+00 0.000000000000000D+00 0.000000000000000D+00
 0.104795871150358D+04 0.000000000000000D+00 0.000000000000000D+00 0.104795871150358D+04
 0.717744575139707D+03 0.000000000000000D+00 0.000000000000000D+00 -.717744575139707D+03
 0.145651260311411D+03 0.525399677189038D+02 0.109301372677823D+03 0.631152903597632D+01
 0.625993017209855D+03 0.453917533395726D+03 -.345253428546906D+03 -.258120515550477D+03
 0.848662897990694D+02 0.515418845150824D+02 -.665273771891841D+02 -.109466601857181D+02
 0.380735080392125D+03 -.155244053365595D+03 0.212957130682675D+03 0.262755646700218D+03
 0.528457638930825D+03 -.402755332264117D+03 0.895223023755926D+02 0.330214136363870D+03
0.126924235006D-03 0.000000000000D+00 0.000000000000D+00 0.905230663869D-06 0.000000000000D+00  7 -2 2 24 -11 11 -24 21 0 0.63887465D-01 0.12601213D+00 0.25537299D+06 0.25537299D+06 0.25537299D+06 0.10897650D+01  1  2  2  2  7  2        2 0.121852663937D-02 0.100000000000D+01
-.687526134565D-05 0.000000000000D+00 -.487422482343D-06 0.905230663869D-06 0.000000000000D+00  7 -2 2 24 -11 11 -24 21 2 0.63887465D-01 0.12601213D+00 0.25537299D+06 0.25537299D+06 0.25537299D+06 0.10897650D+01  1  2  3  2  7  2        2 -.783872505241D-04 0.100000000000D+01
0.804350339690D-05 0.000000000000D+00 0.000000000000D+00 0.905230663869D-06 0.000000000000D+00  7 -2 2 24 -11 11 -24 21 2 0.63887465D-01 0.12601213D+00 0.25537299D+06 0.25537299D+06 0.25537299D+06 0.10897650D+01  1  2 15  2  7  2        2 0.917067852647D-04 0.100000000000D+01
  </mgrwgt>
  </event>
  <event>
  8     66 0.27011060E-05 0.38313775E+03 0.75467711E-02 0.95095549E-01
       -2 -1    0    0    0  501 0.00000000E+00 0.00000000E+00 0.11095457E+03 0.11095503E+03 0.32000000E+00 0.0000E+00 0.9000E+01
        2 -1    0    0  501    0 0.00000000E+00 0.00000000E+00 -.15631834E+04 0.15631834E+04 0.32000000E+00 0.0000E+00 0.9000E+01
       25  2    1    2    0    0 -.25832353E+03 0.19221909E+03 -.10994948E+04 0.11843643E+04 0.30025126E+03 0.0000E+00 0.0000E+00
       23  2    1    2    0    0 0.25832353E+03 -.19221909E+03 -.35273398E+03 0.48977410E+03 0.10852735E+03 0.0000E+00 0.0000E+00
       24  1    3    3    0    0 -.26887831E+03 0.21341759E+03 -.82047256E+03 0.89302019E+03 0.80419002E+02 0.0000E+00 0.9000E+01
      -11  1    4    4    0    0 0.19996949E+03 -.10760910E+03 -.29368132E+03 0.37123609E+03 0.51099893E-03 0.0000E+00 0.9000E+01
       11  1    4    4    0    0 0.58354033E+02 -.84609984E+02 -.59052662E+02 0.11853801E+03 0.51099893E-03 0.0000E+00 0.9000E+01
      -24  1    3    3    0    0 0.10554784E+02 -.21198509E+02 -.27902225E+03 0.29134415E+03 0.80419002E+02 0.0000E+00 0.9000E+01
#aMCatNLO 1  0  0  2  1 0.17070703D+03 0.00000000D+00  -5  7  0 0.00000000D+00 0.00000000D+00 0.00000000D+00 0.00000000D+00 0.00000000D+00
  <mgrwgt>
 0.9850452887D-03    3    2    0
 0.416464592595416D+03 0.000000000000000D+00 0.000000000000000D+00 0.416464592595416D+03
 0.416464592595416D+03 0.000000000000000D+00 0.000000000000000D+00 -.416464592595416D+03
 0.364407377563273D+03 -.268878310769771D+03 0.213417594055720D+03 -.921026895005411D+02
 0.234123310611385D+03 0.199969494022356D+03 -.107609101615474D+03 0.569754972035210D+02
 0.135294886395647D+03 0.583540332427988D+02 -.846099834917524D+02 0.879810421774760D+02
 0.991036106205267D+02 0.105547835046161D+02 -.211985089484936D+02 -.528538498804559D+02
 0.000000000000000D+00 0.000000000000000D+00 0.000000000000000D+00 0.000000000000000D+00
 0.111386408891928D+04 0.000000000000000D+00 0.000000000000000D+00 0.111386408891928D+04
 0.435698698487793D+03 0.000000000000000D+00 0.000000000000000D+00 -.435698698487793D+03
 0.338904540239744D+03 -.281750045273400D+03 0.143258779891308D+03 -.921026895005411D+02
 0.253286349024397D+03 0.191049116627169D+03 -.156230606337230D+03 0.569754972035210D+02
 0.153004912552170D+03 0.530776851878734D+02 -.113369302800888D+03 0.879810421774760D+02
 0.105046467904679D+03 0.681851010563839D+01 -.415634808170802D+02 -.528538498804559D+02
 0.699320517686082D+03 0.308047333527188D+02 0.167904610063890D+03 0.678165390431487D+03
0.246560615752D-04 0.000000000000D+00 0.000000000000D+00 0.138965863148D-07 0.000000000000D+00  7 -2 2 24 -11 11 -24 21 0 0.17069972D-01 0.24048979D+00 0.14679453D+06 0.14679453D+06 0.14679453D+06 0.11082930D+01  1  2  2  2  7  2        2 0.974500387585D-03 0.100000000000D+01
-.135819512238D-05 0.000000000000D+00 -.946857685388D-07 0.138965863148D-07 0.000000000000D+00  7 -2 2 24 -11 11 -24 21 2 0.17069972D-01 0.24048979D+00 0.14679453D+06 0.14679453D+06 0.14679453D+06 0.11082930D+01  1  2  3  2  7  2        2 -.659370698078D-04 0.100000000000D+01
0.157540273153D-05 0.000000000000D+00 0.000000000000D+00 0.138965863148D-07 0.000000000000D+00  7 -2 2 24 -11 11 -24 21 2 0.17069972D-01 0.24048979D+00 0.14679453D+06 0.14679453D+06 0.14679453D+06 0.11082930D+01  1  2 15  2  7  2        2 0.764819709428D-04 0.100000000000D+01
  </mgrwgt>
  </event>
  <event>
  8     66 0.27011060E-05 0.23042442E+03 0.75467711E-02 0.86356025E-01
       -2 -1    0    0    0  501 0.00000000E+00 0.00000000E+00 0.95931404E+03 0.95931410E+03 0.32000000E+00 0.0000E+00 0.9000E+01
        2 -1    0    0  501    0 0.00000000E+00 0.00000000E+00 -.35345246E+03 0.35345261E+03 0.32000000E+00 0.0000E+00 0.9000E+01
       25  2    1    2    0    0 0.92503868E+02 -.10889433E+03 -.26596973E+03 0.42467088E+03 0.29864781E+03 0.0000E+00 0.0000E+00
       23  2    1    2    0    0 -.92503868E+02 0.10889433E+03 0.87183132E+03 0.88809583E+03 0.90605825E+02 0.0000E+00 0.0000E+00
       24  1    3    3    0    0 0.15807491E+03 -.96298563E+02 -.92176321E+02 0.22186658E+03 0.80419002E+02 0.0000E+00 0.9000E+01
      -13  1    4    4    0    0 -.88739933E+02 0.11624953E+03 0.65592738E+03 0.67203383E+03 0.10565837E+00 0.0000E+00 0.9000E+01
       13  1    4    4    0    0 -.37639356E+01 -.73552049E+01 0.21590393E+03 0.21606200E+03 0.10565837E+00 0.0000E+00 0.9000E+01
      -24  1    3    3    0    0 -.65571045E+02 -.12595763E+02 -.17379341E+03 0.20280429E+03 0.80419002E+02 0.0000E+00 0.9000E+01
#aMCatNLO 1  0  0  1  1 0.10571031D+04 0.00000000D+00  -5  7  0 0.00000000D+00 0.00000000D+00 0.00000000D+00 0.00000000D+00 0.00000000D+00
  <mgrwgt>
 0.1417773660D-02    3    2    0
 0.582298928801916D+03 0.000000000000000D+00 0.000000000000000D+00 0.582298928801916D+03
 0.582298928801916D+03 0.000000000000000D+00 0.000000000000000D+00 -.582298928801916D+03
 0.298047222956859D+03 0.158074913062269D+03 -.962985627046729D+02 -.219325875899984D+03
 0.416300688950039D+03 -.887400484116425D+02 0.116249699097825D+03 0.389765923199863D+03
 0.131230401458161D+03 -.376382006222391D+01 -.735537298572860D+01 0.130970036319954D+03
 0.319019544238774D+03 -.655710445884027D+02 -.125957634074230D+02 -.301410083619833D+03
 0.000000000000000D+00 -.000000000000000D+00 -.000000000000000D+00 -.000000000000000D+00
 0.126496526679357D+04 0.000000000000000D+00 0.000000000000000D+00 0.126496526679357D+04
 0.137017836252344D+04 0.000000000000000D+00 0.000000000000000D+00 -.137017836252344D+04
 0.352124904573348D+03 0.218369565830153D+03 0.147430069342297D+03 -.219325875899984D+03
 0.645312442491456D+03 0.971018103335425D+01 0.514214338511429D+03 0.389765923199863D+03
 0.169928310700263D+03 0.241645687578144D+02 0.105539348020270D+03 0.130970036319954D+03
 0.405451897477798D+03 0.161386255992686D+01 0.258985293315856D+03 -.301410083619833D+03
 0.106232607407414D+04 -.253858178181248D+03 -.102616904918985D+04 -.105213095729868D+03
0.363395859577D-03 0.000000000000D+00 0.000000000000D+00 0.131952558312D-05 0.000000000000D+00  7 -2 2 24 -13 13 -24 21 0 0.14758679D+00 0.54377317D-01 0.53095414D+05 0.53095414D+05 0.53095414D+05 0.11450078D+01  1  2  2  1  7  1       -2 0.131163430816D-02 0.100000000000D+01
0.907608144265D-06 0.000000000000D+00 -.139553578510D-05 0.131952558312D-05 0.000000000000D+00  7 -2 2 24 -13 13 -24 21 2 0.14758679D+00 0.54377317D-01 0.53095414D+05 0.53095414D+05 0.53095414D+05 0.11450078D+01  1  2  3  1  7  1       -2 0.429485091601D-05 0.100000000000D+01
0.215222600649D-04 0.000000000000D+00 0.000000000000D+00 0.131952558312D-05 0.000000000000D+00  7 -2 2 24 -13 13 -24 21 2 0.14758679D+00 0.54377317D-01 0.53095414D+05 0.53095414D+05 0.53095414D+05 0.11450078D+01  1  2 15  1  7  1       -2 0.101844500777D-03 0.100000000000D+01
  </mgrwgt>
  </event>
  <event>
  8     66 0.27011060E-05 0.14991789E+03 0.75467711E-02 0.98213224E-01
       -2 -1    0    0    0  501 0.00000000E+00 0.00000000E+00 0.16031156E+03 0.16031188E+03 0.32000000E+00 0.0000E+00 0.9000E+01
        2 -1    0    0  501    0 0.00000000E+00 0.00000000E+00 -.70898859E+03 0.70898866E+03 0.32000000E+00 0.0000E+00 0.9000E+01
       25  2    1    2    0    0 0.24490147E+03 0.88428685E+02 -.34278183E+03 0.52470207E+03 0.30002754E+03 0.0000E+00 0.0000E+00
       23  2    1    2    0    0 -.24490147E+03 -.88428685E+02 -.20589520E+03 0.34459846E+03 0.92514347E+02 0.0000E+00 0.0000E+00
       24  1    3    3    0    0 0.14716447E+03 0.16467573E+03 -.27609505E+03 0.36258954E+03 0.80419002E+02 0.0000E+00 0.9000E+01
      -13  1    4    4    0    0 -.19993263E+03 -.64366469E+02 -.11270913E+03 0.23836832E+03 0.10565837E+00 0.0000E+00 0.9000E+01
       13  1    4    4    0    0 -.44968837E+02 -.24062216E+02 -.93186075E+02 0.10623014E+03 0.10565837E+00 0.0000E+00 0.9000E+01
      -24  1    3    3    0    0 0.97736997E+02 -.76247049E+02 -.66686775E+02 0.16211254E+03 0.80419002E+02 0.0000E+00 0.9000E+01
#aMCatNLO 1  0  0  2  1 0.88049313D+02 0.00000000D+00  -5  7  0 0.00000000D+00 0.00000000D+00 0.00000000D+00 0.00000000D+00 0.00000000D+00
  <mgrwgt>
 0.9463593959D-03    9    2    0
 0.337133854205125D+03 0.000000000000000D+00 0.000000000000000D+00 0.337133854205125D+03
 0.337133854205125D+03 0.000000000000000D+00 0.000000000000000D+00 -.337133854205125D+03
 0.242800100163717D+03 0.147164471264432D+03 0.164675734550879D+03 -.609031487915783D+02
 0.215601217144534D+03 -.199932832889195D+03 -.643665217522271D+02 0.486589975711158D+02
 0.611281266827307D+02 -.449686354778513D+02 -.240621636851496D+02 -.336969134163528D+02
 0.154738264419269D+03 0.977369971026135D+02 -.762470491135018D+02 0.459410646368153D+02
 0.000000000000000D+00 -.000000000000000D+00 0.000000000000000D+00 -.000000000000000D+00
 0.347279788552221D+03 0.000000000000000D+00 0.000000000000000D+00 0.347279788552221D+03
 0.606096671486130D+03 0.000000000000000D+00 0.000000000000000D+00 -.606096671486130D+03
 0.252132534252888D+03 0.175789147789989D+03 0.149975267497522D+03 -.609031487915783D+02
 0.198046962855762D+03 -.176009283451299D+03 -.766526815625268D+02 0.486589975711158D+02
 0.578589225025725D+02 -.380869599591729D+02 -.275963117180155D+02 -.336969134163528D+02
 0.171953950987211D+03 0.116631404824284D+03 -.859504467381741D+02 0.459410646368153D+02
 0.273384089439916D+03 -.783243092038014D+02 0.402241725211939D+02 -.258816882933909D+03
0.131273173117D-04 0.000000000000D+00 0.000000000000D+00 0.124621175005D-05 0.000000000000D+00  7 -2 2 24 -13 13 -24 21 0 0.24663347D-01 0.10907520D+00 0.10363214D+06 0.10363214D+06 0.10363214D+06 0.11204528D+01  1  2  2  2  7  2        2 0.918753016000D-03 0.100000000000D+01
-.727404512017D-06 0.000000000000D+00 -.504123549788D-07 0.124621175005D-05 0.000000000000D+00  7 -2 2 24 -13 13 -24 21 2 0.24663347D-01 0.10907520D+00 0.10363214D+06 0.10363214D+06 0.10363214D+06 0.11204528D+01  1  2  3  2  7  2        2 -.639125116064D-04 0.100000000000D+01
0.828804379286D-06 0.000000000000D+00 0.000000000000D+00 0.124621175005D-05 0.000000000000D+00  7 -2 2 24 -13 13 -24 21 2 0.24663347D-01 0.10907520D+00 0.10363214D+06 0.10363214D+06 0.10363214D+06 0.11204528D+01  1  2 15  2  7  2        2 0.728218874580D-04 0.100000000000D+01
0.462350967922D-04 0.000000000000D+00 0.000000000000D+00 0.124621175005D-05 0.000000000000D+00  7 -2 2 24 -13 13 -24 21 2 0.24663347D-01 0.19653937D+00 0.13595038D+06 0.13595038D+06 0.13595038D+06 0.11109382D+01  1  2 12  2  7  2        2 0.175571048146D-02 0.100000000000D+01
-.425002000934D-04 0.000000000000D+00 0.000000000000D+00 0.124621175005D-05 0.000000000000D+00  7 -2 2 24 -13 13 -24 21 2 0.24663347D-01 0.10907520D+00 0.10363214D+06 0.10363214D+06 0.10363214D+06 0.11204528D+01  1  2  4  2  7  2        2 -.373422832395D-02 0.100000000000D+01
-.487787873930D-04 0.000000000000D+00 -.442268773626D-05 0.124621175005D-05 0.000000000000D+00  7 -2 2 24 -13 13 -24 21 2 0.24663347D-01 0.19809585D+00 0.10363214D+06 0.10363214D+06 0.10363214D+06 0.11204528D+01  1  2  5  2  7  2        2 -.187149196429D-02 0.100000000000D+01
0.440291778531D-04 0.000000000000D+00 0.373733761818D-05 0.124621175005D-05 0.000000000000D+00  7 -2 2 24 -13 13 -24 21 2 0.24663347D-01 0.10907520D+00 0.10363214D+06 0.10363214D+06 0.10363214D+06 0.11204528D+01  1  2  6  2  7  2        2 0.386857009280D-02 0.100000000000D+01
0.298514098709D-05 0.000000000000D+00 0.000000000000D+00 0.124621175005D-05 0.000000000000D+00  7 -2 21 24 -13 13 -24 -2 2 0.24663347D-01 0.19653937D+00 0.13595038D+06 0.13595038D+06 0.13595038D+06 0.11109382D+01  1  2 12  4  7  2        2 0.547226249943D-04 0.100000000000D+01
-.294793017177D-05 0.000000000000D+00 -.288886157684D-06 0.124621175005D-05 0.000000000000D+00  7 -2 21 24 -13 13 -24 -2 2 0.24663347D-01 0.19809585D+00 0.10363214D+06 0.10363214D+06 0.10363214D+06 0.11204528D+01  1  2  5  4  7  2        2 -.545859069918D-04 0.100000000000D+01
  </mgrwgt>
  </event>
  <event>
  8     66 0.27011060E-05 0.23874617E+03 0.75467711E-02 0.10079445E+00
       -2 -1    0    0    0  501 0.00000000E+00 0.00000000E+00 0.88469141E+03 0.88469147E+03 0.32000000E+00 0.0000E+00 0.9000E+01
        2 -1    0    0  501    0 0.00000000E+00 0.00000000E+00 -.81835658E+02 0.81836283E+02 0.32000000E+00 0.0000E+00 0.9000E+01
       25  2    1    2    0    0 0.17207369E+03 -.10371922E+02 0.50354543E+03 0.61060982E+03 0.29928151E+03 0.0000E+00 0.0000E+00
       23  2    1    2    0    0 -.17207369E+03 0.10371922E+02 0.29931033E+03 0.35591794E+03 0.85871845E+02 0.0000E+00 0.0000E+00
       24  1    3    3    0    0 0.19046144E+03 -.28428742E+02 0.17800064E+03 0.27429035E+03 0.80419002E+02 0.0000E+00 0.9000E+01
      -11  1    4    4    0    0 -.40867693E+02 -.25706340E+02 0.13016722E+03 0.13883259E+03 0.51099893E-03 0.0000E+00 0.9000E+01
       11  1    4    4    0    0 -.13120600E+03 0.36078262E+02 0.16914311E+03 0.21708534E+03 0.51099893E-03 0.0000E+00 0.9000E+01
      -24  1    3    3    0    0 -.18387751E+02 0.18056820E+02 0.32554479E+03 0.33631946E+03 0.80419002E+02 0.0000E+00 0.9000E+01
#aMCatNLO 1  0  0  1  2 0.11117250D+03 0.00000000D+00  -5  7  0 0.00000000D+00 0.00000000D+00 0.00000000D+00 0.00000000D+00 0.00000000D+00
  <mgrwgt>
 0.7798733220D-03    4    2    0
 0.269071800660616D+03 0.000000000000000D+00 0.000000000000000D+00 0.269071800660616D+03
 0.269071800660616D+03 0.000000000000000D+00 0.000000000000000D+00 -.269071800660616D+03
 0.227077679032122D+03 0.190461440794017D+03 -.284287420722995D+02 -.895170517560688D+02
 0.551526659098153D+02 -.408676925654843D+02 -.257063399240330D+02 0.266614393655486D+02
 0.137549699226789D+03 -.131205997694672D+03 0.360782619436956D+02 -.200814576524668D+02
 0.118363557152506D+03 -.183877505338602D+02 0.180568200526370D+02 0.829370700429870D+02
 0.000000000000000D+00 0.000000000000000D+00 -.000000000000000D+00 -.000000000000000D+00
 0.308075151283169D+03 0.000000000000000D+00 0.000000000000000D+00 0.308075151283169D+03
 0.367480787499871D+03 0.000000000000000D+00 0.000000000000000D+00 -.367480787499871D+03
 0.195273674236412D+03 0.153679223535921D+03 -.582971643525121D+01 -.895170517560688D+02
 0.607306602771779D+02 -.509598720918766D+02 -.195056962203032D+02 0.266614393655486D+02
 0.167450375200106D+03 -.157768192688215D+03 0.523980971897131D+02 -.200814576524668D+02
 0.126052214754443D+03 -.396737105621939D+02 0.311349320384939D+02 0.829370700429870D+02
 0.126049014314901D+03 0.947225518063646D+02 -.581976165726526D+02 -.594056362167019D+02
0.421588086550D-04 0.000000000000D+00 0.000000000000D+00 0.142483807064D-07 0.000000000000D+00  7 -2 2 24 -11 11 -24 21 0 0.13610642D+00 0.12590154D-01 0.56999733D+05 0.56999733D+05 0.56999733D+05 0.11423236D+01  1  2  2  1  7  1       -2 0.100821533109D-02 0.100000000000D+01
-.230143723143D-05 0.000000000000D+00 -.161900925904D-06 0.142483807064D-07 0.000000000000D+00  7 -2 2 24 -11 11 -24 21 2 0.13610642D+00 0.12590154D-01 0.56999733D+05 0.56999733D+05 0.56999733D+05 0.11423236D+01  1  2  3  1  7  1       -2 -.718195072390D-04 0.100000000000D+01
0.270326607661D-05 0.000000000000D+00 0.000000000000D+00 0.142483807064D-07 0.000000000000D+00  7 -2 2 24 -11 11 -24 21 2 0.13610642D+00 0.12590154D-01 0.56999733D+05 0.56999733D+05 0.56999733D+05 0.11423236D+01  1  2 15  1  7  1       -2 0.843591278120D-04 0.100000000000D+01
-.771898850433D-05 0.000000000000D+00 0.000000000000D+00 0.142483807064D-07 0.000000000000D+00  7 -2 2 24 -11 11 -24 21 2 0.13610642D+00 0.12590154D-01 0.56999733D+05 0.56999733D+05 0.56999733D+05 0.11423236D+01  1  2  4  1  7  1       -2 -.240881629615D-03 0.100000000000D+01
  </mgrwgt>
  </event>
  <event>
  8     66 0.27011060E-05 0.28721811E+03 0.75467711E-02 0.91943630E-01
       -2 -1    0    0    0  501 0.00000000E+00 0.00000000E+00 0.30258816E+03 0.30258833E+03 0.32000000E+00 0.0000E+00 0.9000E+01
        2 -1    0    0  501    0 0.00000000E+00 0.00000000E+00 -.70229991E+03 0.70229999E+03 0.32000000E+00 0.0000E+00 0.9000E+01
       25  2    1    2    0    0 0.87975635E+02 -.23139245E+03 -.56992177E+03 0.69109388E+03 0.30251900E+03 0.0000E+00 0.0000E+00
       23  2    1    2    0    0 -.87975635E+02 0.23139245E+03 0.17021002E+03 0.31379445E+03 0.90627407E+02 0.0000E+00 0.0000E+00
       24  1    3    3    0    0 0.97491133E+02 -.15370403E+03 -.53919797E+03 0.57474439E+03 0.80419002E+02 0.0000E+00 0.9000E+01
      -11  1    4    4    0    0 -.18997314E+02 0.16947249E+03 0.11837429E+03 0.20759166E+03 0.51099893E-03 0.0000E+00 0.9000E+01
       11  1    4    4    0    0 -.68978321E+02 0.61919954E+02 0.51835728E+02 0.10620279E+03 0.51099893E-03 0.0000E+00 0.9000E+01
      -24  1    3    3    0    0 -.95154976E+01 -.77688414E+02 -.30723798E+02 0.11634948E+03 0.80419002E+02 0.0000E+00 0.9000E+01
#aMCatNLO 1  0  0  1  2 0.53318517D+03 0.00000000D+00  -5  7  0 0.00000000D+00 0.00000000D+00 0.00000000D+00 0.00000000D+00 0.00000000D+00
  <mgrwgt>
 0.9918142526D-03    3    2    0
 0.460985643759229D+03 0.000000000000000D+00 0.000000000000000D+00 0.460985643759229D+03
 0.460985643759229D+03 0.000000000000000D+00 0.000000000000000D+00 -.460985643759229D+03
 0.392669673453878D+03 0.974911328780378D+02 -.153704032416891D+03 -.338515591849103D+03
 0.277581341299500D+03 -.189973141419302D+02 0.169472492179305D+03 0.219019582429421D+03
 0.138226962798132D+03 -.689783210930116D+02 0.619199541688482D+02 0.102540741850804D+03
 0.113493309966948D+03 -.951549764309603D+01 -.776884139312620D+02 0.169552675688786D+02
 0.000000000000000D+00 0.000000000000000D+00 0.000000000000000D+00 -.000000000000000D+00
 0.667456026565578D+03 0.000000000000000D+00 0.000000000000000D+00 0.667456026565578D+03
 0.105923430047866D+04 0.000000000000000D+00 0.000000000000000D+00 -.105923430047866D+04
 0.513745427601674D+03 0.335812293861073D+01 -.377972307864793D+03 -.338515591849103D+03
 0.234538715973166D+03 -.721820000383685D+02 0.427620237271891D+02 0.219019582429421D+03
 0.142097506347443D+03 -.980905744189055D+02 -.743886960616884D+01 0.102540741850804D+03
 0.174661764927413D+03 -.394409749410131D+02 -.148984712539771D+03 0.169552675688786D+02
 0.661646912194546D+03 0.206355426459676D+03 0.491633866283544D+03 -.391778273913086D+03
0.427398385431D-04 0.000000000000D+00 0.000000000000D+00 0.159517304833D-06 0.000000000000D+00  7 -2 2 24 -11 11 -24 21 0 0.46552044D-01 0.10804616D+00 0.82494244D+05 0.82494244D+05 0.82494244D+05 0.11286457D+01  1  2  2  1  7  1       -2 0.966803319425D-03 0.100000000000D+01
-.172819572618D-05 0.000000000000D+00 -.164132233664D-06 0.159517304833D-06 0.000000000000D+00  7 -2 2 24 -11 11 -24 21 2 0.46552044D-01 0.10804616D+00 0.82494244D+05 0.82494244D+05 0.82494244D+05 0.11286457D+01  1  2  3  1  7  1       -2 -.497981734323D-04 0.100000000000D+01
0.259617510755D-05 0.000000000000D+00 0.000000000000D+00 0.159517304833D-06 0.000000000000D+00  7 -2 2 24 -11 11 -24 21 2 0.46552044D-01 0.10804616D+00 0.82494244D+05 0.82494244D+05 0.82494244D+05 0.11286457D+01  1  2 15  1  7  1       -2 0.748091065774D-04 0.100000000000D+01
  </mgrwgt>
  </event>
  <event>
  8     66 0.27011060E-05 0.30267532E+03 0.75467711E-02 0.98646243E-01
       -2 -1    0    0    0  501 0.00000000E+00 0.00000000E+00 0.19202222E+03 0.19202248E+03 0.32000000E+00 0.0000E+00 0.9000E+01
        2 -1    0    0  501    0 0.00000000E+00 0.00000000E+00 -.10046146E+04 0.10046147E+04 0.32000000E+00 0.0000E+00 0.9000E+01
       25  2    1    2    0    0 0.11556173E+02 -.21873600E+03 -.87400089E+03 0.94966551E+03 0.30001339E+03 0.0000E+00 0.0000E+00
       23  2    1    2    0    0 -.11556173E+02 0.21873600E+03 0.61408475E+02 0.24697166E+03 0.96151020E+02 0.0000E+00 0.0000E+00
       24  1    3    3    0    0 -.37580613E+02 0.38010358E+02 -.26594538E+03 0.28293330E+03 0.80419002E+02 0.0000E+00 0.9000E+01
      -13  1    4    4    0    0 -.48532539E+02 0.10449361E+03 0.78209920E+01 0.11547944E+03 0.10565837E+00 0.0000E+00 0.9000E+01
       13  1    4    4    0    0 0.36976366E+02 0.11424239E+03 0.53587483E+02 0.13149222E+03 0.10565837E+00 0.0000E+00 0.9000E+01
      -24  1    3    3    0    0 0.49136786E+02 -.25674636E+03 -.60805551E+03 0.66673221E+03 0.80419002E+02 0.0000E+00 0.9000E+01
#aMCatNLO 1  0  0  2  2 0.11165585D+03 0.00000000D+00  -5  7  0 0.00000000D+00 0.00000000D+00 0.00000000D+00 0.00000000D+00 0.00000000D+00
  <mgrwgt>
 0.3930345517D-03    4    2    0
 0.439213525051112D+03 0.000000000000000D+00 0.000000000000000D+00 0.439213525051112D+03
 0.439213525051112D+03 0.000000000000000D+00 0.000000000000000D+00 -.439213525051112D+03
 0.139412033591122D+03 -.375806134160568D+02 0.380103580239200D+02 -.100555503746975D+03
 0.164546620760042D+03 -.485326398598594D+02 0.104493599828582D+03 0.117478767726965D+03
 0.228696658963546D+03 0.369764669197589D+02 0.114242401417321D+03 0.194637037671724D+03
 0.345771736787515D+03 0.491367863561573D+02 -.256746359269823D+03 -.211560301651714D+03
 0.000000000000000D+00 0.000000000000000D+00 0.000000000000000D+00 0.000000000000000D+00
 0.519229374403789D+03 0.000000000000000D+00 0.000000000000000D+00 0.519229374403789D+03
 0.483498959435116D+03 0.000000000000000D+00 0.000000000000000D+00 -.483498959435116D+03
 0.137894481301615D+03 -.442887274856413D+02 0.217892474162289D+02 -.100555503746975D+03
 0.155954100066597D+03 -.562856325925427D+02 0.857458338614370D+02 0.117478767726965D+03
 0.215321565378508D+03 0.262355548318733D+02 0.882694496759271D+02 0.194637037671724D+03
 0.376324693357252D+03 0.316690928022412D+02 -.298985561862405D+03 -.211560301651714D+03
 0.117233493734932D+03 0.426697124440695D+02 0.103181030908812D+03 0.357304149686733D+02
0.234310644159D-04 0.000000000000D+00 0.000000000000D+00 0.206745586461D-06 0.000000000000D+00  7 -2 2 24 -13 13 -24 21 0 0.29541904D-01 0.15455612D+00 0.91612347D+05 0.91612347D+05 0.91612347D+05 0.11248576D+01  1  2  2  2  7  2        2 0.766397840926D-03 0.100000000000D+01
-.108232133823D-05 0.000000000000D+00 -.899814568979D-07 0.206745586461D-06 0.000000000000D+00  7 -2 2 24 -13 13 -24 21 2 0.29541904D-01 0.15455612D+00 0.91612347D+05 0.91612347D+05 0.91612347D+05 0.11248576D+01  1  2  3  2  7  2        2 -.447933519668D-04 0.100000000000D+01
0.140925399792D-05 0.000000000000D+00 0.000000000000D+00 0.206745586461D-06 0.000000000000D+00  7 -2 2 24 -13 13 -24 21 2 0.29541904D-01 0.15455612D+00 0.91612347D+05 0.91612347D+05 0.91612347D+05 0.11248576D+01  1  2 15  2  7  2        2 0.583239081686D-04 0.100000000000D+01
-.934833956604D-05 0.000000000000D+00 0.000000000000D+00 0.206745586461D-06 0.000000000000D+00  7 -2 2 24 -13 13 -24 21 2 0.29541904D-01 0.15455612D+00 0.91612347D+05 0.91612347D+05 0.91612347D+05 0.11248576D+01  1  2  4  2  7  2        2 -.386893845384D-03 0.100000000000D+01
  </mgrwgt>
  </event>
  <event>
  8     66 0.27011060E-05 0.31674811E+03 0.75467711E-02 0.87458561E-01
       -2 -1    0    0    0  501 0.00000000E+00 0.00000000E+00 0.64454193E+03 0.64454201E+03 0.32000000E+00 0.0000E+00 0.9000E+01
        2 -1    0    0  501    0 0.00000000E+00 0.00000000E+00 -.16670789E+04 0.16670789E+04 0.32000000E+00 0.0000E+00 0.9000E+01
       25  2    1    2    0    0 0.21206258E+03 0.99199382E+02 0.57725629E+03 0.69125252E+03 0.29965675E+03 0.0000E+00 0.0000E+00
       23  2    1    2    0    0 -.21206258E+03 -.99199382E+02 -.15997932E+04 0.16203684E+04 0.10697790E+03 0.0000E+00 0.0000E+00
       24  1    3    3    0    0 -.37933739E+02 0.68157305E+02 0.12947942E+03 0.17122068E+03 0.80419002E+02 0.0000E+00 0.9000E+01
      -11  1    4    4    0    0 -.79113304E+02 0.16455879E+02 -.54470088E+03 0.55066211E+03 0.51099893E-03 0.0000E+00 0.9000E+01
       11  1    4    4    0    0 -.13294927E+03 -.11565526E+03 -.10550923E+04 0.10697063E+04 0.51099893E-03 0.0000E+00 0.9000E+01
      -24  1    3    3    0    0 0.24999631E+03 0.31042077E+02 0.44777687E+03 0.52003184E+03 0.80419002E+02 0.0000E+00 0.9000E+01
#aMCatNLO 1  0  0  1  2 0.94329497D+03 0.00000000D+00  -5  7  0 0.00000000D+00 0.00000000D+00 0.00000000D+00 0.00000000D+00 0.00000000D+00
  <mgrwgt>
 0.1549128367D-02    3    2    0
 0.103658205567480D+04 0.000000000000000D+00 0.000000000000000D+00 0.103658205567480D+04
 0.103658205567480D+04 0.000000000000000D+00 0.000000000000000D+00 -.103658205567480D+04
 0.254777131138834D+03 -.379337391844158D+02 0.681573049018835D+02 0.228822603378609D+03
 0.345339415588624D+03 -.791133036192820D+02 0.164558791212485D+02 -.335752291417173D+03
 0.672346428283328D+03 -.132949271844610D+03 -.115655261047548D+03 -.648843641668284D+03
 0.800701136338816D+03 0.249996314648308D+03 0.310420770244162D+02 0.755773329706847D+03
 0.000000000000000D+00 0.000000000000000D+00 0.000000000000000D+00 -.000000000000000D+00
 0.146369591341702D+04 0.000000000000000D+00 0.000000000000000D+00 0.146369591341702D+04
 0.182360541114177D+04 0.000000000000000D+00 0.000000000000000D+00 -.182360541114177D+04
 0.283639535574211D+03 -.145333166145846D+03 0.224200175611760D+02 0.228822603378609D+03
 0.409591409997865D+03 -.229701394731848D+03 -.476738000415422D+02 -.335752291417173D+03
 0.814946139406171D+03 -.429623538020285D+03 -.241997426388369D+03 -.648843641668284D+03
 0.769500424017882D+03 -.632160322609502D+02 -.102343021151115D+03 0.755773329706847D+03
 0.100962381556266D+04 0.867874131158929D+03 0.369594230019850D+03 -.359909497724747D+03
0.114370481149D-02 0.000000000000D+00 0.000000000000D+00 0.174650475612D-06 0.000000000000D+00  7 -2 2 24 -11 11 -24 21 0 0.99160305D-01 0.25647368D+00 0.10032937D+06 0.10032937D+06 0.10032937D+06 0.11216049D+01  1  2  2  1  7  1       -2 0.138026513371D-02 0.100000000000D+01
0.450490456396D-04 0.000000000000D+00 -.439212762052D-05 0.174650475612D-06 0.000000000000D+00  7 -2 2 24 -11 11 -24 21 2 0.99160305D-01 0.25647368D+00 0.10032937D+06 0.10032937D+06 0.10032937D+06 0.11216049D+01  1  2  3  1  7  1       -2 0.683933598570D-04 0.100000000000D+01
0.661770661967D-04 0.000000000000D+00 0.000000000000D+00 0.174650475612D-06 0.000000000000D+00  7 -2 2 24 -11 11 -24 21 2 0.99160305D-01 0.25647368D+00 0.10032937D+06 0.10032937D+06 0.10032937D+06 0.11216049D+01  1  2 15  1  7  1       -2 0.100469873188D-03 0.100000000000D+01
  </mgrwgt>
  </event>
  <event>
  8     66 0.27011060E-05 0.15356670E+03 0.75467711E-02 0.96974921E-01
       -2 -1    0    0    0  501 0.00000000E+00 0.00000000E+00 0.23701807E+03 0.23701829E+03 0.32000000E+00 0.0000E+00 0.9000E+01
        2 -1    0    0  501    0 0.00000000E+00 0.00000000E+00 -.98933827E+03 0.98933833E+03 0.32000000E+00 0.0000E+00 0.9000E+01
       25  2    1    2    0    0 -.86912887E+02 -.65932705E+02 -.93912869E+03 0.99183717E+03 0.29979543E+03 0.0000E+00 0.0000E+00
       23  2    1    2    0    0 0.86912887E+02 0.65932705E+02 0.18680849E+03 0.23451945E+03 0.90559318E+02 0.0000E+00 0.0000E+00
       24  1    3    3    0    0 -.34426462E+02 -.19603685E+02 -.63785149E+02 0.11002385E+03 0.80419002E+02 0.0000E+00 0.9000E+01
      -11  1    4    4    0    0 0.64537593E+02 0.58990180E+02 0.19159948E+03 0.21060698E+03 0.51099893E-03 0.0000E+00 0.9000E+01
       11  1    4    4    0    0 0.22375294E+02 0.69425246E+01 -.47909904E+01 0.23912465E+02 0.51099893E-03 0.0000E+00 0.9000E+01
      -24  1    3    3    0    0 -.52486424E+02 -.46329020E+02 -.87534354E+03 0.88181332E+03 0.80419002E+02 0.0000E+00 0.9000E+01
#aMCatNLO 1  0  0  2  2 0.35744158D+03 0.00000000D+00  -5  7  0 0.00000000D+00 0.00000000D+00 0.00000000D+00 0.00000000D+00 0.00000000D+00
  <mgrwgt>
 0.1693454173D-02    3    2    0
 0.484242930487687D+03 0.000000000000000D+00 0.000000000000000D+00 0.484242930487687D+03
 0.484242930487687D+03 0.000000000000000D+00 0.000000000000000D+00 -.484242930487687D+03
 0.897706620197363D+02 -.344264624609731D+02 -.196036852435480D+02 0.469787317690580D+01
 0.415518120610990D+03 0.645375934094697D+02 0.589901802543282D+02 0.406214679974229D+03
 0.265577973056137D+02 0.223752935463376D+02 0.694252457112293D+01 0.125085646267121D+02
 0.436639281039034D+03 -.524864244948342D+02 -.463290195819032D+02 -.423421117777847D+03
 0.000000000000000D+00 0.000000000000000D+00 0.000000000000000D+00 0.000000000000000D+00
 0.144037590435734D+04 0.000000000000000D+00 0.000000000000000D+00 0.144037590435734D+04
 0.550731484644073D+03 0.000000000000000D+00 0.000000000000000D+00 -.550731484644073D+03
 0.108877493626179D+03 -.698246037469125D+02 -.221257172346667D+02 0.469787317690580D+01
 0.417608666362869D+03 -.839215735961812D+02 0.484128235073002D+02 0.406214679974229D+03
 0.198895274092223D+02 0.140986047582458D+02 0.635283050398296D+01 0.125085646267121D+02
 0.485965995081259D+03 -.216890225824217D+03 -.580423929781193D+02 -.423421117777847D+03
 0.958765706521883D+03 0.356537798409065D+03 0.254024562015027D+02 0.889644419713266D+03
0.638700966505D-04 0.000000000000D+00 0.000000000000D+00 0.830390724258D-05 0.000000000000D+00  7 -2 2 24 -11 11 -24 21 0 0.36464340D-01 0.15220591D+00 0.23582731D+05 0.23582731D+05 0.23582731D+05 0.11771601D+01  1  2  2  2  7  2        2 0.151180820727D-02 0.100000000000D+01
0.214192036037D-05 0.000000000000D+00 -.245277988521D-06 0.830390724258D-05 0.000000000000D+00  7 -2 2 24 -11 11 -24 21 2 0.36464340D-01 0.15220591D+00 0.23582731D+05 0.23582731D+05 0.23582731D+05 0.11771601D+01  1  2  3  2  7  2        2 0.702544025575D-04 0.100000000000D+01
0.339611252192D-05 0.000000000000D+00 0.000000000000D+00 0.830390724258D-05 0.000000000000D+00  7 -2 2 24 -11 11 -24 21 2 0.36464340D-01 0.15220591D+00 0.23582731D+05 0.23582731D+05 0.23582731D+05 0.11771601D+01  1  2 15  2  7  2        2 0.111391562758D-03 0.100000000000D+01
  </mgrwgt>
  </event>
  <event>
  8     66 0.27011060E-05 0.28714499E+03 0.75467711E-02 0.95089297E-01
       -2 -1    0    0    0  501 0.00000000E+00 0.00000000E+00 0.85308254E+03 0.85308260E+03 0.32000000E+00 0.0000E+00 0.9000E+01
        2 -1    0    0  501    0 0.00000000E+00 0.00000000E+00 -.24634342E+03 0.24634363E+03 0.32000000E+00 0.0000E+00 0.9000E+01
       25  2    1    2    0    0 0.34937966E+03 -.14098452E+03 0.16042724E+03 0.50817632E+03 0.30093768E+03 0.0000E+00 0.0000E+00
       23  2    1    2    0    0 -.34937966E+03 0.14098452E+03 0.44631188E+03 0.59124991E+03 0.91866122E+02 0.0000E+00 0.0000E+00
       24  1    3    3    0    0 0.33506591E+03 -.16541769E+03 0.79056919E+02 0.39031959E+03 0.80419002E+02 0.0000E+00 0.9000E+01
      -13  1    4    4    0    0 -.19199473E+03 0.12233072E+03 0.23598606E+03 0.32789665E+03 0.10565837E+00 0.0000E+00 0.9000E+01
       13  1    4    4    0    0 -.15738493E+03 0.18653805E+02 0.21032581E+03 0.26335326E+03 0.10565837E+00 0.0000E+00 0.9000E+01
      -24  1    3    3    0    0 0.14313755E+02 0.24433162E+02 0.81370322E+02 0.11785673E+03 0.80419002E+02 0.0000E+00 0.9000E+01
#aMCatNLO 1  0  0  1  2 0.10018156D+03 0.00000000D+00  -5  7  0 0.00000000D+00 0.00000000D+00 0.00000000D+00 0.00000000D+00 0.00000000D+00
  <mgrwgt>
 0.3385991083D-03    9    2    0
 0.458422752955213D+03 0.000000000000000D+00 0.000000000000000D+00 0.458422752955213D+03
 0.458422752955213D+03 0.000000000000000D+00 0.000000000000000D+00 -.458422752955213D+03
 0.415730535201779D+03 0.335065905211316D+03 -.165417685617637D+03 -.163500735150069D+03
 0.237026056391056D+03 -.191994770967295D+03 0.122330855842811D+03 0.659887947933384D+02
 0.176610468089001D+03 -.157384889061281D+03 0.186536684473021D+02 0.779313466279291D+02
 0.874784462285901D+02 0.143137548172600D+02 0.244331613275234D+02 0.195805937288011D+02
 0.000000000000000D+00 -.000000000000000D+00 0.000000000000000D+00 0.000000000000000D+00
 0.560392392534307D+03 0.000000000000000D+00 0.000000000000000D+00 0.560392392534307D+03
 0.486434013636622D+03 0.000000000000000D+00 0.000000000000000D+00 -.486434013636622D+03
 0.449795429913219D+03 0.354551565462418D+03 -.208349249698631D+03 -.163500735150069D+03
 0.217594564589745D+03 -.181759857954142D+03 0.997808976568825D+02 0.659887947933384D+02
 0.168698110190877D+03 -.149610927436388D+03 0.152577401819619D+01 0.779313466279291D+02
 0.862144629395262D+02 0.182241181714383D+02 0.158176967881383D+02 0.195805937288011D+02
 0.124523838537564D+03 -.414048982433262D+02 0.912248812354145D+02 0.739583788976848D+02
0.314322732118D-04 0.000000000000D+00 0.000000000000D+00 0.303535453762D-06 0.000000000000D+00  7 -2 2 24 -13 13 -24 21 0 0.13124349D+00 0.37899009D-01 0.18217102D+06 0.18217102D+06 0.18217102D+06 0.11009534D+01  1  2  2  1  7  1       -2 0.221973920551D-03 0.100000000000D+01
-.173540106513D-05 0.000000000000D+00 -.120708205441D-06 0.303535453762D-06 0.000000000000D+00  7 -2 2 24 -13 13 -24 21 2 0.13124349D+00 0.37899009D-01 0.18217102D+06 0.18217102D+06 0.18217102D+06 0.11009534D+01  1  2  3  1  7  1       -2 -.148547011514D-04 0.100000000000D+01
0.196423453815D-05 0.000000000000D+00 0.000000000000D+00 0.303535453762D-06 0.000000000000D+00  7 -2 2 24 -13 13 -24 21 2 0.13124349D+00 0.37899009D-01 0.18217102D+06 0.18217102D+06 0.18217102D+06 0.11009534D+01  1  2 15  1  7  1       -2 0.168134719067D-04 0.100000000000D+01
0.397849189789D-04 0.000000000000D+00 0.000000000000D+00 0.303535453762D-06 0.000000000000D+00  7 -2 2 24 -13 13 -24 21 2 0.16379528D+00 0.37899009D-01 0.23046518D+06 0.23046518D+06 0.23046518D+06 0.10931273D+01  1  2 12  1  7  1       -2 0.182066853075D-03 0.100000000000D+01
-.408543586959D-04 0.000000000000D+00 0.000000000000D+00 0.303535453762D-06 0.000000000000D+00  7 -2 2 24 -13 13 -24 21 2 0.13124349D+00 0.37899009D-01 0.18217102D+06 0.18217102D+06 0.18217102D+06 0.11009534D+01  1  2  4  1  7  1       -2 -.349705495379D-03 0.100000000000D+01
-.722208343264D-04 0.000000000000D+00 -.170739772470D-04 0.303535453762D-06 0.000000000000D+00  7 -2 2 24 -13 13 -24 21 2 0.16605739D+00 0.37899009D-01 0.18217102D+06 0.18217102D+06 0.18217102D+06 0.11009534D+01  1  2  5  1  7  1       -2 -.324805158178D-03 0.100000000000D+01
0.746248776304D-04 0.000000000000D+00 0.166120613481D-04 0.303535453762D-06 0.000000000000D+00  7 -2 2 24 -13 13 -24 21 2 0.13124349D+00 0.37899009D-01 0.18217102D+06 0.18217102D+06 0.18217102D+06 0.11009534D+01  1  2  6  1  7  1       -2 0.638774677471D-03 0.100000000000D+01
0.123061691844D-05 0.000000000000D+00 0.000000000000D+00 0.303535453762D-06 0.000000000000D+00  7 21 2 24 -13 13 -24 2 2 0.16379528D+00 0.37899009D-01 0.23046518D+06 0.23046518D+06 0.23046518D+06 0.10931273D+01  1  2 12  3  7  1       -2 0.474040111406D-04 0.100000000000D+01
-.207781236568D-05 0.000000000000D+00 -.552421127382D-06 0.303535453762D-06 0.000000000000D+00  7 21 2 24 -13 13 -24 2 2 0.16605739D+00 0.37899009D-01 0.18217102D+06 0.18217102D+06 0.18217102D+06 0.11009534D+01  1  2  5  3  7  1       -2 -.790684711837D-04 0.100000000000D+01
  </mgrwgt>
  </event>
  <event>
  9     66 -.27011060E-05 0.25842600E+03 0.75467711E-02 0.10195464E+00
       -2 -1    0    0    0  502 0.00000000E+00 0.00000000E+00 0.32819032E+03 0.32819048E+03 0.32000000E+00 0.0000E+00 0.9000E+01
        2 -1    0    0  501    0 0.00000000E+00 0.00000000E+00 -.39148473E+03 0.39148486E+03 0.32000000E+00 0.0000E+00 0.9000E+01
       25  2    1    2    0    0 0.49182761E+02 0.15466838E+03 0.15722641E+03 0.37574890E+03 0.30020966E+03 0.0000E+00 0.0000E+00
       23  2    1    2    0    0 -.63662505E+02 -.17935972E+03 -.23126965E+03 0.31334171E+03 0.92057315E+02 0.0000E+00 0.0000E+00
       24  1    3    3    0    0 0.75004295E+02 -.33642755E+02 0.11967970E+03 0.16597568E+03 0.80419002E+02 0.0000E+00 0.9000E+01
      -13  1    4    4    0    0 0.89728510E+01 -.51805968E+02 -.20361569E+02 0.56382400E+02 0.10565837E+00 0.0000E+00 0.9000E+01
       13  1    4    4    0    0 -.72635356E+02 -.12755375E+03 -.21090808E+03 0.25695931E+03 0.10565837E+00 0.0000E+00 0.9000E+01
      -24  1    3    3    0    0 -.25821534E+02 0.18831113E+03 0.37546712E+02 0.20977322E+03 0.80419002E+02 0.0000E+00 0.9000E+01
       21  1    1    2  501  502 0.14479744E+02 0.24691343E+02 0.10748839E+02 0.30584726E+02 0.75000000E+00 0.0000E+00 0.9000E+01
#aMCatNLO 2  0  0  1  2 0.28623861D+02 0.00000000D+00  -5  7  0 0.00000000D+00 0.00000000D+00 0.00000000D+00 0.00000000D+00 0.00000000D+00
  <mgrwgt>
 -.4078535962D-04    3    2    0
 0.342251421208100D+03 0.000000000000000D+00 0.000000000000000D+00 0.342251421208100D+03
 0.342251421208100D+03 0.000000000000000D+00 0.000000000000000D+00 -.342251421208100D+03
 0.180407011368583D+03 0.788132912523397D+02 -.271475264638939D+02 0.138314680079302D+03
 0.528785999324309D+02 0.101082922809438D+02 -.498698585610083D+02 -.143863117261555D+02
 0.229730050161636D+03 -.677152425487179D+02 -.119163727740000D+03 -.184365256664435D+03
 0.221487180953550D+03 -.212063409845656D+02 0.196181112764902D+03 0.604368883112890D+02
 0.000000000000000D+00 0.000000000000000D+00 0.000000000000000D+00 0.000000000000000D+00
 0.365566722039967D+03 0.000000000000000D+00 0.000000000000000D+00 0.365566722039967D+03
 0.351449977858958D+03 0.000000000000000D+00 0.000000000000000D+00 -.351449977858958D+03
 0.179876751809626D+03 0.750042946522519D+02 -.336427547250487D+02 0.138314680079302D+03
 0.545098880823226D+02 0.897295833714230D+01 -.518058679335181D+02 -.143863117261555D+02
 0.235661714532600D+03 -.726354633041349D+02 -.127553852556853D+03 -.184365256664435D+03
 0.215052708690176D+03 -.258215335782800D+02 0.188311132160384D+03 0.604368883112890D+02
 0.319156367842001D+02 0.144797438930207D+02 0.246913430550359D+02 0.141167441810089D+02
-.231168137972D-04 0.000000000000D+00 0.000000000000D+00 0.200970367390D-05 0.000000000000D+00  7 -2 2 24 -13 13 -24 21 2 0.51094241D-01 0.58651346D-01 0.75452020D+05 0.75452020D+05 0.75452020D+05 0.11319010D+01  1  2 13  1  7  1       -2 -.111321371939D-02 0.100000000000D+01
-.394516576697D-06 0.000000000000D+00 0.000000000000D+00 0.200970367390D-05 0.000000000000D+00  7 -2 2 24 -13 13 -24 21 2 0.47270024D-01 0.58651346D-01 0.66783999D+05 0.66783999D+05 0.66783999D+05 0.11364001D+01  1  2  8  1  7  1       -2 -.223002303236D-04 0.100000000000D+01
0.228577919559D-04 0.000000000000D+00 0.000000000000D+00 0.200970367390D-05 0.168114898527D-07  7 -2 2 24 -13 13 -24 21 2 0.50490215D-01 0.60227695D-01 0.75452020D+05 0.75452020D+05 0.75452020D+05 0.11319010D+01  1  2  1  1  7  1       -2 0.109472859010D-02 0.100000000000D+01
  </mgrwgt>
  </event>
  <event>
  8     66 0.27011060E-05 0.19806053E+03 0.75467711E-02 0.91840158E-01
       -2 -1    0    0    0  501 0.00000000E+00 0.00000000E+00 0.63611556E+02 0.63612361E+02 0.32000000E+00 0.0000E+00 0.9000E+01
        2 -1    0    0  501    0 0.00000000E+00 0.00000000E+00 -.97442204E+03 0.97442209E+03 0.32000000E+00 0.0000E+00 0.9000E+01
       25  2    1    2    0    0 0.25599931E+02 0.13410450E+03 -.55475227E+03 0.64593632E+03 0.30140386E+03 0.0000E+00 0.0000E+00
       23  2    1    2    0    0 -.25599931E+02 -.13410450E+03 -.35605822E+03 0.39209813E+03 0.91236603E+02 0.0000E+00 0.0000E+00
       24  1    3    3    0    0 0.61592423E+02 0.37958573E+02 -.48720833E+03 0.49907279E+03 0.80419002E+02 0.0000E+00 0.9000E+01
      -13  1    4    4    0    0 0.28465397E+02 -.42024658E+02 -.67773137E+02 0.84673254E+02 0.10565837E+00 0.0000E+00 0.9000E+01
       13  1    4    4    0    0 -.54065328E+02 -.92079838E+02 -.28828508E+03 0.30742488E+03 0.10565837E+00 0.0000E+00 0.9000E+01
      -24  1    3    3    0    0 -.35992492E+02 0.96145922E+02 -.67543941E+02 0.14686353E+03 0.80419002E+02 0.0000E+00 0.9000E+01
#aMCatNLO 1  0  0  1  2 0.58656129D+03 0.00000000D+00  -5  7  0 0.00000000D+00 0.00000000D+00 0.00000000D+00 0.00000000D+00 0.00000000D+00
  <mgrwgt>
 0.6972203357D-03    3    2    0
 0.248967764151988D+03 0.000000000000000D+00 0.000000000000000D+00 0.248967764151988D+03
 0.248967764151988D+03 0.000000000000000D+00 0.000000000000000D+00 -.248967764151988D+03
 0.149216705948464D+03 0.615924237731661D+02 0.379585755361912D+02 -.102780977115174D+03
 0.525474240317635D+02 0.284655020278936D+02 -.420245924858247D+02 0.135970803143290D+02
 0.113558037334105D+03 -.540654340860166D+02 -.920799082922454D+02 -.386477317465888D+02
 0.182613360989644D+03 -.359924917150431D+02 0.961459252418790D+02 0.127831628547433D+03
 0.000000000000000D+00 0.000000000000000D+00 -.000000000000000D+00 -.000000000000000D+00
 0.524119259492250D+03 0.000000000000000D+00 0.000000000000000D+00 0.524119259492250D+03
 0.100167254870801D+04 0.000000000000000D+00 0.000000000000000D+00 -.100167254870801D+04
 0.161611846472894D+03 -.818535610164260D+02 0.488593722655959D+02 -.102780977115174D+03
 0.440097208463157D+02 -.160951878688679D+02 -.386383211768080D+02 0.135970803143290D+02
 0.230756346360658D+03 -.212964980030442D+03 -.800047592159183D+02 -.386477317465888D+02
 0.333033507871501D+03 -.273961212192133D+03 0.114229726288539D+03 0.127831628547433D+03
 0.756380386648891D+03 0.584874941107868D+03 -.444460181614090D+02 -.477553289215759D+03
0.334487696383D-05 0.000000000000D+00 0.000000000000D+00 0.801235732224D-07 0.000000000000D+00  7 -2 2 24 -13 13 -24 21 0 0.97864593D-02 0.14991115D+00 0.39227974D+05 0.39227974D+05 0.39227974D+05 0.11566810D+01  1  2  2  1  7  1       -2 0.686668668877D-03 0.100000000000D+01
-.174003867474D-06 0.000000000000D+00 -.128452082674D-07 0.801235732224D-07 0.000000000000D+00  7 -2 2 24 -13 13 -24 21 2 0.97864593D-02 0.14991115D+00 0.39227974D+05 0.39227974D+05 0.39227974D+05 0.11566810D+01  1  2  3  1  7  1       -2 -.477917799946D-04 0.100000000000D+01
0.212421160734D-06 0.000000000000D+00 0.000000000000D+00 0.801235732224D-07 0.000000000000D+00  7 -2 2 24 -13 13 -24 21 2 0.97864593D-02 0.14991115D+00 0.39227974D+05 0.39227974D+05 0.39227974D+05 0.11566810D+01  1  2 15  1  7  1       -2 0.583434467715D-04 0.100000000000D+01
  </mgrwgt>
  </event>
  <event>
  8     66 0.27011060E-05 0.28875554E+03 0.75467711E-02 0.95072382E-01
       -2 -1    0    0    0  501 0.00000000E+00 0.00000000E+00 0.22360514E+03 0.22360537E+03 0.32000000E+00 0.0000E+00 0.9000E+01
        2 -1    0    0  501    0 0.00000000E+00 0.00000000E+00 -.15050537E+04 0.15050537E+04 0.32000000E+00 0.0000E+00 0.9000E+01
       25  2    1    2    0    0 -.23670310E+03 0.10916385E+03 0.20548398E+02 0.39775642E+03 0.29973794E+03 0.0000E+00 0.0000E+00
       23  2    1    2    0    0 0.23670310E+03 -.10916385E+03 -.13019970E+04 0.13309027E+04 0.90336877E+02 0.0000E+00 0.0000E+00
       24  1    3    3    0    0 -.11335736E+03 0.44159167E+02 -.11626800E+03 0.18650841E+03 0.80419002E+02 0.0000E+00 0.9000E+01
      -11  1    4    4    0    0 0.69599724E+02 -.70779832E+02 -.36029884E+03 0.37372337E+03 0.51099893E-03 0.0000E+00 0.9000E+01
       11  1    4    4    0    0 0.16710337E+03 -.38384020E+02 -.94169812E+03 0.95717930E+03 0.51099893E-03 0.0000E+00 0.9000E+01
      -24  1    3    3    0    0 -.12334574E+03 0.65004685E+02 0.13681640E+03 0.21124801E+03 0.80419002E+02 0.0000E+00 0.9000E+01
#aMCatNLO 1  0  0  2  1 0.32200232D+03 0.00000000D+00  -5  7  0 0.00000000D+00 0.00000000D+00 0.00000000D+00 0.00000000D+00 0.00000000D+00
  <mgrwgt>
 0.6900994122D-03    7    2    0
 0.580118924375564D+03 0.000000000000000D+00 0.000000000000000D+00 0.580118924375564D+03
 0.580118924375564D+03 0.000000000000000D+00 0.000000000000000D+00 -.580118924375564D+03
 0.149467625788660D+03 -.113357358712820D+03 0.441591671965951D+02 0.327632779600062D+02
 0.158877664938055D+03 0.695997244441366D+02 -.707798321608695D+02 -.124049208513187D+03
 0.386040683400509D+03 0.167103372091801D+03 -.383840199035780D+02 -.345876479818912D+03
 0.465851874623906D+03 -.123345737823118D+03 0.650046848678524D+02 0.437162410372093D+03
 0.000000000000000D+00 0.000000000000000D+00 -.000000000000000D+00 -.000000000000000D+00
 0.695060943042659D+03 0.000000000000000D+00 0.000000000000000D+00 0.695060943042659D+03
 0.880725512750297D+03 0.000000000000000D+00 0.000000000000000D+00 -.880725512750297D+03
 0.181712683946457D+03 -.136377082459560D+03 0.829466247040106D+02 0.327632779600062D+02
 0.138131860036498D+03 0.489551480182817D+02 -.359944177186215D+02 -.124049208513187D+03
 0.367802042925567D+03 0.114705174498485D+03 0.499051743967511D+02 -.345876479818912D+03
 0.516445336061100D+03 -.191623379224108D+03 0.180050205990684D+03 0.437162410372093D+03
 0.371694532823335D+03 0.164340139166901D+03 -.276907587372825D+03 -.185664569707638D+03
0.663498923384D-04 0.000000000000D+00 0.000000000000D+00 0.548585492905D-05 0.000000000000D+00  7 -2 2 24 -11 11 -24 21 0 0.34400811D-01 0.23154674D+00 0.83379760D+05 0.83379760D+05 0.83379760D+05 0.11282581D+01  1  2  2  2  7  2        2 0.868053735035D-03 0.100000000000D+01
-.150474302942D-05 0.000000000000D+00 -.254801056907D-06 0.548585492905D-05 0.000000000000D+00  7 -2 2 24 -11 11 -24 21 2 0.34400811D-01 0.23154674D+00 0.83379760D+05 0.83379760D+05 0.83379760D+05 0.11282581D+01  1  2  3  2  7  2        2 -.250602630285D-04 0.100000000000D+01
0.392568215101D-05 0.000000000000D+00 0.000000000000D+00 0.548585492905D-05 0.000000000000D+00  7 -2 2 24 -11 11 -24 21 2 0.34400811D-01 0.23154674D+00 0.83379760D+05 0.83379760D+05 0.83379760D+05 0.11282581D+01  1  2 15  2  7  2        2 0.653790217644D-04 0.100000000000D+01
-.355202084042D-04 0.000000000000D+00 0.000000000000D+00 0.548585492905D-05 0.000000000000D+00  7 -2 2 24 -11 11 -24 21 2 0.34400811D-01 0.23154674D+00 0.83379760D+05 0.83379760D+05 0.83379760D+05 0.11282581D+01  1  2  4  2  7  2        2 -.591559986010D-03 0.100000000000D+01
-.189881631370D-04 0.000000000000D+00 -.212313983160D-04 0.548585492905D-05 0.000000000000D+00  7 -2 2 24 -11 11 -24 21 2 0.34400811D-01 0.37771473D+00 0.83379760D+05 0.83379760D+05 0.83379760D+05 0.11282581D+01  1  2  5  2  7  2        2 -.969411503272D-04 0.100000000000D+01
0.282396186517D-04 0.000000000000D+00 0.189203875788D-04 0.548585492905D-05 0.000000000000D+00  7 -2 2 24 -11 11 -24 21 2 0.34400811D-01 0.23154674D+00 0.83379760D+05 0.83379760D+05 0.83379760D+05 0.11282581D+01  1  2  6  2  7  2        2 0.470307725237D-03 0.100000000000D+01
-.118180972856D-06 0.000000000000D+00 -.117694601298D-05 0.548585492905D-05 0.000000000000D+00  7 -2 21 24 -11 11 -24 -2 2 0.34400811D-01 0.37771473D+00 0.83379760D+05 0.83379760D+05 0.83379760D+05 0.11282581D+01  1  2  5  4  7  2        2 -.796704863674D-07 0.100000000000D+01
  </mgrwgt>
  </event>
  <event>
  8     66 0.27011060E-05 0.18973470E+03 0.75467711E-02 0.98307427E-01
       -2 -1    0    0    0  501 0.00000000E+00 0.00000000E+00 0.20724849E+03 0.20724874E+03 0.32000000E+00 0.0000E+00 0.9000E+01
        2 -1    0    0  501    0 0.00000000E+00 0.00000000E+00 -.28763838E+03 0.28763856E+03 0.32000000E+00 0.0000E+00 0.9000E+01
       25  2    1    2    0    0 0.96791533E+02 -.43177922E+02 0.19960898E+02 0.32465887E+03 0.30622216E+03 0.0000E+00 0.0000E+00
       23  2    1    2    0    0 -.96791533E+02 0.43177922E+02 -.10035079E+03 0.17022843E+03 0.87604242E+02 0.0000E+00 0.0000E+00
       24  1    3    3    0    0 0.14725607E+03 -.56052679E+02 -.72807035E+02 0.19129646E+03 0.80419002E+02 0.0000E+00 0.9000E+01
      -11  1    4    4    0    0 -.56784282E+02 0.18356161E+02 -.32774128E+00 0.59678394E+02 0.51099893E-03 0.0000E+00 0.9000E+01
       11  1    4    4    0    0 -.40007251E+02 0.24821761E+02 -.10002305E+03 0.11055003E+03 0.51099893E-03 0.0000E+00 0.9000E+01
      -24  1    3    3    0    0 -.50464539E+02 0.12874758E+02 0.92767933E+02 0.13336242E+03 0.80419002E+02 0.0000E+00 0.9000E+01
#aMCatNLO 1  0  0  1  1 0.25802207D+03 0.00000000D+00  -5  7  0 0.00000000D+00 0.00000000D+00 0.00000000D+00 0.00000000D+00 0.00000000D+00
  <mgrwgt>
 0.9618490211D-03    3    2    0
 0.244157176215651D+03 0.000000000000000D+00 0.000000000000000D+00 0.244157176215651D+03
 0.244157176215651D+03 0.000000000000000D+00 0.000000000000000D+00 -.244157176215651D+03
 0.181885369688856D+03 0.147256071239043D+03 -.560526791977175D+02 -.422944250520185D+02
 0.604277399561506D+02 -.567842825280616D+02 0.183561615572678D+02 0.949254164409753D+01
 0.955715653431220D+02 -.400072521409840D+02 0.248217611226466D+02 -.831698506252875D+02
 0.150429677443173D+03 -.504645365699976D+02 0.128747565178031D+02 0.115971734033208D+03
 0.000000000000000D+00 0.000000000000000D+00 0.000000000000000D+00 -.000000000000000D+00
 0.339391867749996D+03 0.000000000000000D+00 0.000000000000000D+00 0.339391867749996D+03
 0.539306668703700D+03 0.000000000000000D+00 0.000000000000000D+00 -.539306668703700D+03
 0.146967691781897D+03 0.729283493645800D+02 -.895819398193919D+02 -.422944250520185D+02
 0.917068962011090D+02 -.911699162612452D+02 0.284479048324773D+01 0.949254164409753D+01
 0.121969614697176D+03 -.891761431160672D+02 0.264165767797657D+01 -.831698506252875D+02
 0.191647656728791D+03 -.127781222752507D+03 -.220028269199885D+02 0.115971734033208D+03
 0.326406677044723D+03 0.235198932765239D+03 0.106098318578156D+03 -.199914800953703D+03
0.774080437429D-05 0.000000000000D+00 0.000000000000D+00 0.852776276674D-09 0.000000000000D+00  7 -2 2 24 -11 11 -24 21 0 0.31884416D-01 0.44252092D-01 0.35999257D+05 0.35999257D+05 0.35999257D+05 0.11600607D+01  1  2  2  1  7  1       -2 0.945707636874D-03 0.100000000000D+01
-.396791373201D-06 0.000000000000D+00 -.297267269979D-07 0.852776276674D-09 0.000000000000D+00  7 -2 2 24 -11 11 -24 21 2 0.31884416D-01 0.44252092D-01 0.35999257D+05 0.35999257D+05 0.35999257D+05 0.11600607D+01  1  2  3  1  7  1       -2 -.652370695901D-04 0.100000000000D+01
0.494968101091D-06 0.000000000000D+00 0.000000000000D+00 0.852776276674D-09 0.000000000000D+00  7 -2 2 24 -11 11 -24 21 2 0.31884416D-01 0.44252092D-01 0.35999257D+05 0.35999257D+05 0.35999257D+05 0.11600607D+01  1  2 15  1  7  1       -2 0.813784538593D-04 0.100000000000D+01
  </mgrwgt>
  </event>
  <event>
  9     66 -.27011060E-05 0.25581789E+03 0.75467711E-02 0.10266165E+00
       -2 -1    0    0    0  501 0.00000000E+00 0.00000000E+00 0.40313320E+03 0.40313333E+03 0.32000000E+00 0.0000E+00 0.9000E+01
        2 -1    0    0  502    0 0.00000000E+00 0.00000000E+00 -.72019732E+03 0.72019739E+03 0.32000000E+00 0.0000E+00 0.9000E+01
       25  2    1    2    0    0 -.18783661E+03 -.60045536E+02 -.62507431E+03 0.72089263E+03 0.30013369E+03 0.0000E+00 0.0000E+00
       23  2    1    2    0    0 0.18163667E+03 0.52580255E+02 0.32257968E+03 0.38491661E+03 0.91359638E+02 0.0000E+00 0.0000E+00
       24  1    3    3    0    0 -.20509866E+03 -.65164561E+02 -.58652287E+03 0.62991124E+03 0.80419002E+02 0.0000E+00 0.9000E+01
      -13  1    4    4    0    0 0.11422984E+03 0.10702560E+01 0.12199645E+03 0.16713092E+03 0.10565837E+00 0.0000E+00 0.9000E+01
       13  1    4    4    0    0 0.67406836E+02 0.51509999E+02 0.20058323E+03 0.21778569E+03 0.10565837E+00 0.0000E+00 0.9000E+01
      -24  1    3    3    0    0 0.17262056E+02 0.51190249E+01 -.38551440E+02 0.90981385E+02 0.80419002E+02 0.0000E+00 0.9000E+01
       21  1    1    2  502  501 0.61999339E+01 0.74652814E+01 -.14569488E+02 0.17521475E+02 0.75000000E+00 0.0000E+00 0.9000E+01
#aMCatNLO 2  0  0  2  1 0.97041026D+01 0.00000000D+00  -5  7  0 0.00000000D+00 0.00000000D+00 0.00000000D+00 0.00000000D+00 0.00000000D+00
  <mgrwgt>
 -.3086101295D-03    3    2    0
 0.531793405600247D+03 0.000000000000000D+00 0.000000000000000D+00 0.531793405600247D+03
 0.531793405600247D+03 0.000000000000000D+00 0.000000000000000D+00 -.531793405600247D+03
 0.486451674536289D+03 -.202258306085481D+03 -.617445142047739D+02 -.430635818633143D+03
 0.209135998499637D+03 0.115446996723572D+03 0.253568323117259D+01 0.174365785423915D+03
 0.284233816450915D+03 0.690613814428699D+02 0.535023636254150D+02 0.270475294794088D+03
 0.837653217136533D+02 0.177499279190388D+02 0.570646734818632D+01 -.142052615848605D+02
 0.000000000000000D+00 0.000000000000000D+00 0.000000000000000D+00 -.000000000000000D+00
 0.533759860020180D+03 0.000000000000000D+00 0.000000000000000D+00 0.533759860020180D+03
 0.543923836021398D+03 0.000000000000000D+00 0.000000000000000D+00 -.543923836021398D+03
 0.488084322629535D+03 -.205098663324579D+03 -.651645613427638D+02 -.430635818633143D+03
 0.208453933712038D+03 0.114229899981758D+03 0.107018861971913D+01 0.174365785423915D+03
 0.283467538164998D+03 0.674067738584209D+02 0.515100663693529D+02 0.270475294794088D+03
 0.836252855988076D+02 0.172620556140448D+02 0.511902494571962D+01 -.142052615848605D+02
 0.140526159361997D+02 0.619993387035594D+01 0.746528140797207D+01 -.101639760012179D+02
-.619955797575D-04 0.000000000000D+00 0.000000000000D+00 0.622170680220D-05 0.000000000000D+00  7 -2 2 24 -13 13 -24 21 2 0.61790860D-01 0.11099510D+00 0.67839640D+05 0.67839640D+05 0.67839640D+05 0.11358188D+01  1  2 13  2  7  2        2 -.100192781340D-02 0.100000000000D+01
-.515552268909D-03 0.000000000000D+00 0.000000000000D+00 0.622170680220D-05 0.000000000000D+00  7 -2 2 24 -13 13 -24 21 2 0.61790860D-01 0.10832656D+00 0.65442792D+05 0.65442792D+05 0.65442792D+05 0.11371534D+01  1  2  8  2  7  2        2 -.860695927124D-02 0.100000000000D+01
0.578619355236D-03 0.000000000000D+00 0.000000000000D+00 0.622170680220D-05 0.454631109613D-06  7 -2 2 24 -13 13 -24 21 2 0.62019349D-01 0.11079753D+00 0.67839640D+05 0.67839640D+05 0.67839640D+05 0.11358188D+01  1  2  1  2  7  2        2 0.930027695518D-02 0.100000000000D+01
  </mgrwgt>
  </event>
  <event>
  8     66 0.27011060E-05 0.30086670E+03 0.75467711E-02 0.86424665E-01
       -2 -1    0    0    0  501 0.00000000E+00 0.00000000E+00 0.12946058E+04 0.12946059E+04 0.32000000E+00 0.0000E+00 0.9000E+01
        2 -1    0    0  501    0 0.00000000E+00 0.00000000E+00 -.86186766E+03 0.86186772E+03 0.32000000E+00 0.0000E+00 0.9000E+01
       25  2    1    2    0    0 -.22471877E+02 0.97405731E+03 0.57097005E+03 0.11682999E+04 0.29937460E+03 0.0000E+00 0.0000E+00
       23  2    1    2    0    0 0.22471877E+02 -.97405731E+03 -.13823188E+03 0.98817372E+03 0.89925712E+02 0.0000E+00 0.0000E+00
       24  1    3    3    0    0 -.94594999E+02 0.19944181E+03 0.16515313E+03 0.28717246E+03 0.80419002E+02 0.0000E+00 0.9000E+01
      -13  1    4    4    0    0 -.26943398E+02 -.58468422E+03 -.64982487E+02 0.58890094E+03 0.10565837E+00 0.0000E+00 0.9000E+01
       13  1    4    4    0    0 0.49415275E+02 -.38937309E+03 -.73249397E+02 0.39927279E+03 0.10565837E+00 0.0000E+00 0.9000E+01
      -24  1    3    3    0    0 0.72123122E+02 0.77461550E+03 0.40581693E+03 0.88112741E+03 0.80419002E+02 0.0000E+00 0.9000E+01
#aMCatNLO 1  0  0  1  2 0.20527101D+03 0.00000000D+00  -5  7  0 0.00000000D+00 0.00000000D+00 0.00000000D+00 0.00000000D+00 0.00000000D+00
  <mgrwgt>
 0.5795360934D-03    9    2    0
 0.105630440783633D+04 0.000000000000000D+00 0.000000000000000D+00 0.105630440783633D+04
 0.105630440783633D+04 0.000000000000000D+00 0.000000000000000D+00 -.105630440783633D+04
 0.259305816780331D+03 -.945949989277451D+02 0.199441807667059D+03 0.109759018736959D+03
 0.614439487290715D+03 -.269435034703158D+02 -.584684485159820D+03 -.186959845892688D+03
 0.422566857462805D+03 0.494153801278741D+02 -.389372820531633D+03 -.156555663787834D+03
 0.816296654138800D+03 0.721231222701868D+02 0.774615498024394D+03 0.233756490943563D+03
 0.000000000000000D+00 -.000000000000000D+00 0.000000000000000D+00 0.000000000000000D+00
 0.122405750044877D+04 0.000000000000000D+00 0.000000000000000D+00 0.122405750044877D+04
 0.112599294639013D+04 0.000000000000000D+00 0.000000000000000D+00 -.112599294639013D+04
 0.244642218495619D+03 -.720140483286758D+02 0.190130307329743D+03 0.109759018736959D+03
 0.636570298430936D+03 0.291118597674124D+02 -.607799523271544D+03 -.186959845892688D+03
 0.443418585529821D+03 0.882185366815490D+02 -.405373723759920D+03 -.156555663787834D+03
 0.797926833991761D+03 0.144453398984876D+03 0.744789322502151D+03 0.233756490943563D+03
 0.227492510390767D+03 -.189769747105162D+03 0.782536171995687D+02 0.980645540586387D+02
0.721696467110D-03 0.000000000000D+00 0.000000000000D+00 0.176505919291D-05 0.000000000000D+00  7 -2 2 24 -13 13 -24 21 0 0.19917013D+00 0.13259503D+00 0.99484966D+06 0.99484966D+06 0.99484966D+06 0.10480133D+01  1  2  2  1  7  1       -2 0.335129088643D-03 0.100000000000D+01
-.399338663607D-04 0.000000000000D+00 -.277150446074D-05 0.176505919291D-05 0.000000000000D+00  7 -2 2 24 -13 13 -24 21 2 0.19917013D+00 0.13259503D+00 0.99484966D+06 0.99484966D+06 0.99484966D+06 0.10480133D+01  1  2  3  1  7  1       -2 -.203672534972D-04 0.100000000000D+01
0.469927671378D-04 0.000000000000D+00 0.000000000000D+00 0.176505919291D-05 0.000000000000D+00  7 -2 2 24 -13 13 -24 21 2 0.19917013D+00 0.13259503D+00 0.99484966D+06 0.99484966D+06 0.99484966D+06 0.10480133D+01  1  2 15  1  7  1       -2 0.239674664152D-04 0.100000000000D+01
0.834725720271D-03 0.000000000000D+00 0.000000000000D+00 0.176505919291D-05 0.000000000000D+00  7 -2 2 24 -13 13 -24 21 2 0.23658357D+00 0.13259503D+00 0.12212310D+07 0.12212310D+07 0.12212310D+07 0.10421345D+01  1  2 12  1  7  1       -2 0.232641228788D-03 0.100000000000D+01
-.821548472368D-03 0.000000000000D+00 0.000000000000D+00 0.176505919291D-05 0.000000000000D+00  7 -2 2 24 -13 13 -24 21 2 0.19917013D+00 0.13259503D+00 0.99484966D+06 0.99484966D+06 0.99484966D+06 0.10480133D+01  1  2  4  1  7  1       -2 -.419009916190D-03 0.100000000000D+01
-.191848593703D-02 0.000000000000D+00 -.451894374675D-03 0.176505919291D-05 0.000000000000D+00  7 -2 2 24 -13 13 -24 21 2 0.23875755D+00 0.13259503D+00 0.99484966D+06 0.99484966D+06 0.99484966D+06 0.10480133D+01  1  2  5  1  7  1       -2 -.530057641897D-03 0.100000000000D+01
0.197518804604D-02 0.000000000000D+00 0.444568797232D-03 0.176505919291D-05 0.000000000000D+00  7 -2 2 24 -13 13 -24 21 2 0.19917013D+00 0.13259503D+00 0.99484966D+06 0.99484966D+06 0.99484966D+06 0.10480133D+01  1  2  6  1  7  1       -2 0.100739445750D-02 0.100000000000D+01
0.212561695687D-04 0.000000000000D+00 0.000000000000D+00 0.176505919291D-05 0.000000000000D+00  7 21 2 24 -13 13 -24 2 2 0.23658357D+00 0.13259503D+00 0.12212310D+07 0.12212310D+07 0.12212310D+07 0.10421345D+01  1  2 12  3  7  1       -2 0.425763633418D-04 0.100000000000D+01
-.464921293739D-04 0.000000000000D+00 -.119849012580D-04 0.176505919291D-05 0.000000000000D+00  7 21 2 24 -13 13 -24 2 2 0.23875755D+00 0.13259503D+00 0.99484966D+06 0.99484966D+06 0.99484966D+06 0.10480133D+01  1  2  5  3  7  1       -2 -.927376996983D-04 0.100000000000D+01
  </mgrwgt>
  </event>
  <event>
  8     66 0.27011060E-05 0.25162057E+03 0.75467711E-02 0.10222781E+00
       -2 -1    0    0    0  501 0.00000000E+00 0.00000000E+00 0.32382882E+02 0.32384464E+02 0.32000000E+00 0.0000E+00 0.9000E+01
        2 -1    0    0  501    0 0.00000000E+00 0.00000000E+00 -.24921916E+04 0.24921916E+04 0.32000000E+00 0.0000E+00 0.9000E+01
       25  2    1    2    0    0 0.15916813E+03 -.51341981E+02 -.19244854E+04 0.19549514E+04 0.30036658E+03 0.0000E+00 0.0000E+00
       23  2    1    2    0    0 -.15916813E+03 0.51341981E+02 -.53532323E+03 0.56962469E+03 0.99653559E+02 0.0000E+00 0.0000E+00
       24  1    3    3    0    0 -.28522784E+02 -.73178646E+02 -.10809277E+04 0.10867569E+04 0.80419002E+02 0.0000E+00 0.9000E+01
      -13  1    4    4    0    0 0.91511688E+01 0.66787675E+01 -.10185959E+03 0.10248774E+03 0.10565837E+00 0.0000E+00 0.9000E+01
       13  1    4    4    0    0 -.16831930E+03 0.44663213E+02 -.43346364E+03 0.46713694E+03 0.10565837E+00 0.0000E+00 0.9000E+01
      -24  1    3    3    0    0 0.18769091E+03 0.21836666E+02 -.84355780E+03 0.86819450E+03 0.80419002E+02 0.0000E+00 0.9000E+01
#aMCatNLO 1  0  0  1  2 0.35680458D+02 0.00000000D+00  -5  7  0 0.00000000D+00 0.00000000D+00 0.00000000D+00 0.00000000D+00 0.00000000D+00
  <mgrwgt>
 0.1618019793D-02    4    2    0
 0.284088662503838D+03 0.000000000000000D+00 0.000000000000000D+00 0.284088662503838D+03
 0.284088662503838D+03 0.000000000000000D+00 0.000000000000000D+00 -.284088662503838D+03
 0.149117377803341D+03 -.285227724390622D+02 -.731786492283798D+02 -.979801671669981D+02
 0.144019510872529D+02 0.915134889147824D+01 0.667872246454247D+01 -.889177568473700D+01
 0.199031600459333D+03 -.168319501294266D+03 0.446632664560568D+02 0.963707221874398D+02
 0.205626395657749D+03 0.187690924841850D+03 0.218366603077805D+02 0.105012206642953D+02
 0.000000000000000D+00 -.000000000000000D+00 -.000000000000000D+00 -.000000000000000D+00
 0.288247465469609D+03 0.000000000000000D+00 0.000000000000000D+00 0.288247465469609D+03
 0.373077606402488D+03 0.000000000000000D+00 0.000000000000000D+00 -.373077606402488D+03
 0.144676145857188D+03 -.229058606312313D+02 -.658724496006439D+02 -.979801671669981D+02
 0.151130935491371D+02 0.971563431431947D+01 0.741271688840924D+01 -.889177568473700D+01
 0.195204873272034D+03 -.160782263996489D+03 0.544673300096980D+02 0.963707221874398D+02
 0.214302442491751D+03 0.195719363386247D+03 0.322796540223340D+02 0.105012206642953D+02
 0.920285167019879D+02 -.217468730728464D+02 -.282872513197974D+02 -.848301409328795D+02
0.201498486096D-04 0.000000000000D+00 0.000000000000D+00 0.226588236765D-07 0.000000000000D+00  7 -2 2 24 -13 13 -24 21 0 0.49821051D-02 0.38341421D+00 0.63312914D+05 0.63312914D+05 0.63312914D+05 0.11383853D+01  1  2  2  1  7  1       -2 0.169172079034D-02 0.100000000000D+01
-.109938849111D-05 0.000000000000D+00 -.773807242378D-07 0.226588236765D-07 0.000000000000D+00  7 -2 2 24 -13 13 -24 21 2 0.49821051D-02 0.38341421D+00 0.63312914D+05 0.63312914D+05 0.63312914D+05 0.11383853D+01  1  2  3  1  7  1       -2 -.119615273397D-03 0.100000000000D+01
0.124818290225D-05 0.000000000000D+00 0.000000000000D+00 0.226588236765D-07 0.000000000000D+00  7 -2 2 24 -13 13 -24 21 2 0.49821051D-02 0.38341421D+00 0.63312914D+05 0.63312914D+05 0.63312914D+05 0.11383853D+01  1  2 15  1  7  1       -2 0.135804349699D-03 0.100000000000D+01
-.826183058471D-06 0.000000000000D+00 0.000000000000D+00 0.226588236765D-07 0.000000000000D+00  7 -2 2 24 -13 13 -24 21 2 0.49821051D-02 0.38341421D+00 0.63312914D+05 0.63312914D+05 0.63312914D+05 0.11383853D+01  1  2  4  1  7  1       -2 -.898900736306D-04 0.100000000000D+01
  </mgrwgt>
  </event>
  <event>
  8     66 0.27011060E-05 0.28555636E+03 0.75467711E-02 0.10129635E+00
       -2 -1    0    0    0  501 0.00000000E+00 0.00000000E+00 0.17341706E+03 0.17341735E+03 0.32000000E+00 0.0000E+00 0.9000E+01
        2 -1    0    0  501    0 0.00000000E+00 0.00000000E+00 -.55147792E+03 0.55147802E+03 0.32000000E+00 0.0000E+00 0.9000E+01
       25  2    1    2    0    0 0.26693639E+02 -.22334441E+03 -.23584022E+03 0.44253540E+03 0.29936882E+03 0.0000E+00 0.0000E+00
       23  2    1    2    0    0 -.26693639E+02 0.22334441E+03 -.14222065E+03 0.28235997E+03 0.94367171E+02 0.0000E+00 0.0000E+00
       24  1    3    3    0    0 0.15815459E+02 0.79896040E+01 -.16968505E+03 0.18861123E+03 0.80419002E+02 0.0000E+00 0.9000E+01
      -13  1    4    4    0    0 -.19008509E+02 -.10935946E+01 -.15148810E+02 0.24331399E+02 0.10565837E+00 0.0000E+00 0.9000E+01
       13  1    4    4    0    0 -.76851298E+01 0.22443801E+03 -.12707184E+03 0.25802857E+03 0.10565837E+00 0.0000E+00 0.9000E+01
      -24  1    3    3    0    0 0.10878180E+02 -.23133402E+03 -.66155164E+02 0.25392417E+03 0.80419002E+02 0.0000E+00 0.9000E+01
#aMCatNLO 1  0  0  1  2 0.64506123D+01 0.00000000D+00  -5  7  0 0.00000000D+00 0.00000000D+00 0.00000000D+00 0.00000000D+00 0.00000000D+00
  <mgrwgt>
 0.6815946725D-03    8    2    0
 0.309250413741326D+03 0.000000000000000D+00 0.000000000000000D+00 0.309250413741326D+03
 0.309250413741326D+03 0.000000000000000D+00 0.000000000000000D+00 -.309250413741326D+03
 0.117335538056710D+03 0.158154588667591D+02 0.798960296867914D+01 -.835849869409799D+02
 0.192568632084401D+02 -.190085218512441D+02 -.109387538870704D+01 -.288206771144137D+01
 0.224741793326757D+03 -.768511743265954D+01 0.224438289111716D+03 0.879016600403176D+01
 0.257166632890745D+03 0.108781804171445D+02 -.231334016691688D+03 0.776768886483895D+02
 0.000000000000000D+00 0.000000000000000D+00 0.000000000000000D+00 -.000000000000000D+00
 0.309755625209083D+03 0.000000000000000D+00 0.000000000000000D+00 0.309755625209083D+03
 0.330566887926986D+03 0.000000000000000D+00 0.000000000000000D+00 -.330566887926986D+03
 0.117204144899493D+03 0.153691381935570D+02 0.685092523054334D+01 -.835849869409799D+02
 0.193408792458317D+02 -.190819719820669D+02 -.128126538395652D+01 -.288206771144137D+01
 0.222603934453369D+03 -.853640043884572D+01 0.222266449297434D+03 0.879016600403176D+01
 0.259385506080807D+03 0.989520007239486D+01 -.233841849966722D+03 0.776768886483895D+02
 0.217880484565679D+02 0.235403415496073D+01 0.600574082270074D+01 -.208112627179028D+02
0.935947687861D-05 0.000000000000D+00 0.000000000000D+00 0.847897367332D-07 0.000000000000D+00  7 -2 2 24 -13 13 -24 21 0 0.26679577D-01 0.84842788D-01 0.81542433D+05 0.81542433D+05 0.81542433D+05 0.11290674D+01  1  2  2  1  7  1       -2 0.768146957443D-03 0.100000000000D+01
-.515953886865D-06 0.000000000000D+00 -.359428556207D-07 0.847897367332D-07 0.000000000000D+00  7 -2 2 24 -13 13 -24 21 2 0.26679577D-01 0.84842788D-01 0.81542433D+05 0.81542433D+05 0.81542433D+05 0.11290674D+01  1  2  3  1  7  1       -2 -.539813027330D-04 0.100000000000D+01
0.616710990909D-06 0.000000000000D+00 0.000000000000D+00 0.847897367332D-07 0.000000000000D+00  7 -2 2 24 -13 13 -24 21 2 0.26679577D-01 0.84842788D-01 0.81542433D+05 0.81542433D+05 0.81542433D+05 0.11290674D+01  1  2 15  1  7  1       -2 0.645229419654D-04 0.100000000000D+01
-.111516682399D-05 0.000000000000D+00 0.000000000000D+00 0.847897367332D-07 0.000000000000D+00  7 -2 2 24 -13 13 -24 21 2 0.26679577D-01 0.84842788D-01 0.81542433D+05 0.81542433D+05 0.81542433D+05 0.11290674D+01  1  2  4  1  7  1       -2 -.116673523460D-03 0.100000000000D+01
0.871450999749D-06 0.000000000000D+00 0.000000000000D+00 0.847897367332D-07 0.000000000000D+00  7 -2 2 24 -13 13 -24 21 2 0.28667705D-01 0.84842788D-01 0.81542433D+05 0.81542433D+05 0.81542433D+05 0.11290674D+01  1  2  5  1  7  1       -2 0.805230026259D-04 0.100000000000D+01
-.869205002377D-06 0.000000000000D+00 0.000000000000D+00 0.847897367332D-07 0.000000000000D+00  7 -2 2 24 -13 13 -24 21 2 0.26679577D-01 0.84842788D-01 0.81542433D+05 0.81542433D+05 0.81542433D+05 0.11290674D+01  1  2  6  1  7  1       -2 -.909399455354D-04 0.100000000000D+01
0.154313365210D-06 0.000000000000D+00 0.000000000000D+00 0.847897367332D-07 0.138680250089D-07  7 -2 2 24 -13 13 -24 21 2 0.26723162D-01 0.90690958D-01 0.83419317D+05 0.83419317D+05 0.83419317D+05 0.11282409D+01  1  2 11  1  7  1       -2 0.149018635726D-04 0.100000000000D+01
0.128194117914D-07 0.000000000000D+00 0.000000000000D+00 0.847897367332D-07 0.439314210156D-11  7 21 2 24 -13 13 -24 2 2 0.26723162D-01 0.90690958D-01 0.83419317D+05 0.83419317D+05 0.83419317D+05 0.11282409D+01  1  2 11  3  7  1       -2 0.150946786540D-04 0.100000000000D+01
  </mgrwgt>
  </event>
  <event>
  9     66 0.27011060E-05 0.21344315E+03 0.75467711E-02 0.10195515E+00
       -2 -1    0    0    0  502 0.00000000E+00 0.00000000E+00 0.54113164E+03 0.54113174E+03 0.32000000E+00 0.0000E+00 0.9000E+01
        2 -1    0    0  501    0 0.00000000E+00 0.00000000E+00 -.39668898E+03 0.39668911E+03 0.32000000E+00 0.0000E+00 0.9000E+01
       25  2    1    2    0    0 -.13743427E+03 0.12497662E+03 0.19065597E+03 0.40106764E+03 0.29999703E+03 0.0000E+00 0.0000E+00
       23  2    1    2    0    0 0.11892995E+03 -.20437825E+02 -.25848135E+03 0.29941577E+03 0.90967873E+02 0.0000E+00 0.0000E+00
       24  1    3    3    0    0 -.14115176E+02 0.14743072E+03 0.18749984E+03 0.25210804E+03 0.80419002E+02 0.0000E+00 0.9000E+01
      -13  1    4    4    0    0 0.10978773E+03 -.28624240E+02 -.13954793E+03 0.17985085E+03 0.10565837E+00 0.0000E+00 0.9000E+01
       13  1    4    4    0    0 0.91422109E+01 0.81864151E+01 -.11893343E+03 0.11956491E+03 0.10565837E+00 0.0000E+00 0.9000E+01
      -24  1    3    3    0    0 -.12331910E+03 -.22454095E+02 0.31561221E+01 0.14895960E+03 0.80419002E+02 0.0000E+00 0.9000E+01
       21  1    1    2  501  502 0.18504326E+02 -.10453880E+03 0.21226806E+03 0.23733744E+03 0.75000000E+00 0.0000E+00 0.9000E+01
#aMCatNLO 2  0  0  1  2 0.10616389D+03 0.00000000D+00  -5  7  0 0.00000000D+00 0.00000000D+00 0.00000000D+00 0.00000000D+00 0.00000000D+00
  <mgrwgt>
 0.1964829588D-03    2    2    0
 0.344530821037847D+03 0.000000000000000D+00 0.000000000000000D+00 0.344530821037847D+03
 0.344530821037847D+03 0.000000000000000D+00 0.000000000000000D+00 -.344530821037847D+03
 0.251996792925448D+03 -.712679100150699D+01 0.107950361343877D+03 0.212911004943586D+03
 0.176387120798563D+03 0.114373212297322D+03 -.545288323751663D+02 -.122710191639488D+03
 0.108843444005307D+03 0.120440592951024D+02 -.820807580546141D+01 -.107863169943240D+03
 0.151834284346376D+03 -.119290480590917D+03 -.452134531632497D+02 0.176623566391415D+02
 0.000000000000000D+00 0.000000000000000D+00 -.000000000000000D+00 0.000000000000000D+00
 0.596328793103728D+03 0.000000000000000D+00 0.000000000000000D+00 0.596328793103728D+03
 0.359969930963970D+03 0.000000000000000D+00 0.000000000000000D+00 -.359969930963970D+03
 0.271538887286250D+03 -.141151765336677D+02 0.147430719728353D+03 0.212911004943586D+03
 0.167124258085745D+03 0.109787870665292D+03 -.286242897430121D+02 -.122710191639488D+03
 0.108559012403427D+03 0.914207526908784D+01 0.818646465682642D+01 -.107863169943240D+03
 0.149969865471051D+03 -.123319095705129D+03 -.224540951154930D+02 0.176623566391415D+02
 0.259106700821225D+03 0.185043263044170D+02 -.104538799526674D+03 0.236358862139758D+03
-.190561390418D-04 0.000000000000D+00 0.000000000000D+00 0.236264477649D-05 0.000000000000D+00  7 -2 2 24 -13 13 -24 21 2 0.83632035D-01 0.58411467D-01 0.75446237D+05 0.75446237D+05 0.75446237D+05 0.11319038D+01  1  2 13  1  7  1       -2 -.327659075391D-03 0.100000000000D+01
0.316428255015D-04 0.000000000000D+00 0.000000000000D+00 0.236264477649D-05 0.163657305054D-08  7 -2 2 24 -13 13 -24 21 2 0.83250917D-01 0.61029001D-01 0.75446237D+05 0.75446237D+05 0.75446237D+05 0.11319038D+01  1  2  1  1  7  1       -2 0.524142034234D-03 0.100000000000D+01
  </mgrwgt>
  </event>
  <event>
  8     66 0.27011060E-05 0.17721429E+03 0.75467711E-02 0.95629347E-01
       -2 -1    0    0    0  501 0.00000000E+00 0.00000000E+00 0.40186331E+03 0.40186343E+03 0.32000000E+00 0.0000E+00 0.9000E+01
        2 -1    0    0  501    0 0.00000000E+00 0.00000000E+00 -.90379147E+03 0.90379153E+03 0.32000000E+00 0.0000E+00 0.9000E+01
       25  2    1    2    0    0 -.33845290E+02 -.10579512E+02 0.34174805E+03 0.45610997E+03 0.29997858E+03 0.0000E+00 0.0000E+00
       23  2    1    2    0    0 0.33845290E+02 0.10579512E+02 -.84367622E+03 0.84954499E+03 0.93164872E+02 0.0000E+00 0.0000E+00
       24  1    3    3    0    0 -.10566331E+03 -.96476300E+02 0.19102162E+03 0.25185092E+03 0.80419002E+02 0.0000E+00 0.9000E+01
      -11  1    4    4    0    0 -.57970334E+01 -.69906866E+01 -.63140336E+01 0.11060846E+02 0.51099893E-03 0.0000E+00 0.9000E+01
       11  1    4    4    0    0 0.39642324E+02 0.17570198E+02 -.83736218E+03 0.83848414E+03 0.51099893E-03 0.0000E+00 0.9000E+01
      -24  1    3    3    0    0 0.71818023E+02 0.85896789E+02 0.15072644E+03 0.20425905E+03 0.80419002E+02 0.0000E+00 0.9000E+01
#aMCatNLO 1  0  0  2  2 0.37610626D+03 0.00000000D+00  -5  7  0 0.00000000D+00 0.00000000D+00 0.00000000D+00 0.00000000D+00 0.00000000D+00
  <mgrwgt>
 0.2055970204D-02    3    2    0
 0.602661387130863D+03 0.000000000000000D+00 0.000000000000000D+00 0.602661387130863D+03
 0.602661387130863D+03 0.000000000000000D+00 0.000000000000000D+00 -.602661387130863D+03
 0.352361659848659D+03 -.105663313139764D+03 -.964763002093649D+02 0.311799793346905D+03
 0.935223114424019D+01 -.579703340370484D+01 -.699068656092651D+01 -.223359183793895D+01
 0.559580657639854D+03 0.396423239034537D+02 0.175701982402814D+02 -.557898097051767D+03
 0.284028225628972D+03 0.718180226400147D+02 0.858967885300100D+02 0.248331895542801D+03
 0.000000000000000D+00 -.000000000000000D+00 -.000000000000000D+00 0.000000000000000D+00
 0.194541902719388D+04 0.000000000000000D+00 0.000000000000000D+00 0.194541902719388D+04
 0.658231024071351D+03 0.000000000000000D+00 0.000000000000000D+00 -.658231024071351D+03
 0.329781757115206D+03 -.711838264324098D+02 0.159470840282204D+01 0.311799793346905D+03
 0.713911428260157D+01 -.496346510810800D+01 -.461974397149150D+01 -.223359183793895D+01
 0.595465484435356D+03 0.980250585479078D+02 0.183629911388450D+03 -.557898097051767D+03
 0.330253302870162D+03 0.102867375708214D+03 0.174211368094350D+03 0.248331895542801D+03
 0.134101039256190D+04 -.124745142715604D+03 -.354816243914131D+03 0.128718800312253D+04
0.185702700051D-03 0.000000000000D+00 0.000000000000D+00 0.627240869750D-05 0.000000000000D+00  7 -2 2 24 -11 11 -24 21 0 0.61825138D-01 0.13904486D+00 0.31404906D+05 0.31404906D+05 0.31404906D+05 0.11654962D+01  1  2  2  2  7  2        2 0.179457457882D-02 0.100000000000D+01
0.847579182514D-05 0.000000000000D+00 -.713147264839D-06 0.627240869750D-05 0.000000000000D+00  7 -2 2 24 -11 11 -24 21 2 0.61825138D-01 0.13904486D+00 0.31404906D+05 0.31404906D+05 0.31404906D+05 0.11654962D+01  1  2  3  2  7  2        2 0.111261608801D-03 0.100000000000D+01
0.114370507600D-04 0.000000000000D+00 0.000000000000D+00 0.627240869750D-05 0.000000000000D+00  7 -2 2 24 -11 11 -24 21 2 0.61825138D-01 0.13904486D+00 0.31404906D+05 0.31404906D+05 0.31404906D+05 0.11654962D+01  1  2 15  2  7  2        2 0.150134016237D-03 0.100000000000D+01
  </mgrwgt>
  </event>
  <event>
  8     66 0.27011060E-05 0.28032621E+03 0.75467711E-02 0.10168698E+00
       -2 -1    0    0    0  501 0.00000000E+00 0.00000000E+00 0.14923981E+03 0.14924016E+03 0.32000000E+00 0.0000E+00 0.9000E+01
        2 -1    0    0  501    0 0.00000000E+00 0.00000000E+00 -.64599125E+03 0.64599133E+03 0.32000000E+00 0.0000E+00 0.9000E+01
       25  2    1    2    0    0 -.72917440E+02 0.19076393E+03 -.42002367E+03 0.55527711E+03 0.30034139E+03 0.0000E+00 0.0000E+00
       23  2    1    2    0    0 0.72917440E+02 -.19076393E+03 -.76727768E+02 0.23995438E+03 0.99915584E+02 0.0000E+00 0.0000E+00
       24  1    3    3    0    0 -.10313809E+03 -.50238343E+01 -.24969659E+03 0.28191898E+03 0.80419002E+02 0.0000E+00 0.9000E+01
      -11  1    4    4    0    0 0.37327599E+02 -.17146025E+03 -.90176812E+02 0.19729121E+03 0.51099893E-03 0.0000E+00 0.9000E+01
       11  1    4    4    0    0 0.35589841E+02 -.19303687E+02 0.13449044E+02 0.42663168E+02 0.51099893E-03 0.0000E+00 0.9000E+01
      -24  1    3    3    0    0 0.30220652E+02 0.19578777E+03 -.17032708E+03 0.27335813E+03 0.80419002E+02 0.0000E+00 0.9000E+01
#aMCatNLO 1  0  0  2  2 0.37610626D+03 0.00000000D+00  -5  7  0 0.00000000D+00 0.00000000D+00 0.00000000D+00 0.00000000D+00 0.00000000D+00
  <mgrwgt>
 0.6599340958D-05    1    2    0
 0.310496026400297D+03 0.000000000000000D+00 0.000000000000000D+00 0.310496026400297D+03
 0.310496026400297D+03 0.000000000000000D+00 0.000000000000000D+00 -.310496026400297D+03
 0.161280173322002D+03 -.103138091345709D+03 -.502383420590866D+01 -.942410396581037D+02
 0.180512334781932D+03 0.373275991326256D+02 -.171460246888497D+03 0.423407261198257D+02
 0.653920226240962D+02 0.355898405429869D+02 -.193036871045917D+02 0.513502437887406D+02
 0.213807522072563D+03 0.302206516700968D+02 0.195787768198997D+03 0.550069749537350D+00
 0.000000000000000D+00 0.000000000000000D+00 0.000000000000000D+00 -.000000000000000D+00
 0.557053765587751D+03 0.000000000000000D+00 0.000000000000000D+00 0.557053765587751D+03
 0.792659176088833D+03 0.000000000000000D+00 0.000000000000000D+00 -.792659176088833D+03
 0.222916157449655D+03 -.122522281467797D+03 -.139037096797346D+03 -.942410396581037D+02
 0.363998998658031D+03 0.985489737664533D+01 -.361393711806655D+03 0.423407261198257D+02
 0.952180776018161D+02 0.274864400965184D+02 -.753268237472076D+02 0.513502437887406D+02
 0.115016359610835D+03 0.136302156645481D+02 0.810892204178020D+02 0.550069749537350D+00
 0.552563348356247D+03 0.715507283300852D+02 0.494668411933406D+03 -.235605410501082D+03
0.584656455644D-07 0.000000000000D+00 0.000000000000D+00 0.221004467335D-07 0.000000000000D+00  7 -2 2 24 -11 11 -24 21 2 0.22960004D-01 0.99383302D-01 0.78582785D+05 0.78582785D+05 0.78582785D+05 0.11304142D+01  1  2 14  2  7  2        2 0.659934095817D-05 0.100000000000D+01
  </mgrwgt>
  </event>
  <event>
  8     66 0.27011060E-05 0.18455716E+03 0.75467711E-02 0.10141033E+00
       -2 -1    0    0    0  501 0.00000000E+00 0.00000000E+00 0.22176059E+03 0.22176082E+03 0.32000000E+00 0.0000E+00 0.9000E+01
        2 -1    0    0  501    0 0.00000000E+00 0.00000000E+00 -.48786221E+03 0.48786232E+03 0.32000000E+00 0.0000E+00 0.9000E+01
       25  2    1    2    0    0 0.18094451E+03 -.43016836E+02 -.34511829E+03 0.48683888E+03 0.28864182E+03 0.0000E+00 0.0000E+00
       23  2    1    2    0    0 -.18094451E+03 0.43016836E+02 0.79016661E+02 0.22278425E+03 0.93796727E+02 0.0000E+00 0.0000E+00
       24  1    3    3    0    0 0.14561394E+03 0.79066710E+02 -.13462623E+03 0.22813680E+03 0.80419002E+02 0.0000E+00 0.9000E+01
      -11  1    4    4    0    0 -.16601919E+03 0.46245450E+02 0.34550462E+02 0.17576902E+03 0.51099893E-03 0.0000E+00 0.9000E+01
       11  1    4    4    0    0 -.14925316E+02 -.32286135E+01 0.44466199E+02 0.47015230E+02 0.51099893E-03 0.0000E+00 0.9000E+01
      -24  1    3    3    0    0 0.35330568E+02 -.12208355E+03 -.21049206E+03 0.25870208E+03 0.80419002E+02 0.0000E+00 0.9000E+01
#aMCatNLO 1  0  0  2  1 0.44158374D+02 0.00000000D+00  -5  7  0 0.00000000D+00 0.00000000D+00 0.00000000D+00 0.00000000D+00 0.00000000D+00
  <mgrwgt>
 0.2918595500D-02    9    2    0
 0.328920552118439D+03 0.000000000000000D+00 0.000000000000000D+00 0.328920552118439D+03
 0.328920552118439D+03 0.000000000000000D+00 0.000000000000000D+00 -.328920552118439D+03
 0.191637304988326D+03 0.145613942227464D+03 0.790667097656778D+02 -.529403054829201D+02
 0.203580618321706D+03 -.166019194657013D+03 0.462454500039985D+02 0.108369984385036D+03
 0.687029474561120D+02 -.149253158730819D+02 -.322861351185320D+01 0.669843712371558D+02
 0.193920233470733D+03 0.353305683026305D+02 -.122083546257823D+03 -.122414050139272D+03
 0.000000000000000D+00 0.000000000000000D+00 0.000000000000000D+00 -.000000000000000D+00
 0.344168092776532D+03 0.000000000000000D+00 0.000000000000000D+00 0.344168092776532D+03
 0.363263818248825D+03 0.000000000000000D+00 0.000000000000000D+00 -.363263818248825D+03
 0.181893870721321D+03 0.137960461432452D+03 0.691548941748459D+02 -.529403054829201D+02
 0.208392681808656D+03 -.174460336777520D+03 0.353135555738193D+02 0.108369984385036D+03
 0.696414107288116D+02 -.177599277002070D+02 -.689964247953125D+01 0.669843712371558D+02
 0.199393567118028D+03 0.272717506858676D+02 -.132520302583071D+03 -.122414050139272D+03
 0.481103806485403D+02 0.269880523594068D+02 0.349514953139373D+02 -.190957254722930D+02
0.288364893863D-04 0.000000000000D+00 0.000000000000D+00 0.862007914739D-09 0.000000000000D+00  7 -2 2 24 -11 11 -24 21 0 0.34117039D-01 0.75055751D-01 0.68170363D+05 0.68170363D+05 0.68170363D+05 0.11356387D+01  1  2  2  2  7  2        2 0.176475004229D-02 0.100000000000D+01
-.149814865519D-05 0.000000000000D+00 -.110739712066D-06 0.862007914739D-09 0.000000000000D+00  7 -2 2 24 -11 11 -24 21 2 0.34117039D-01 0.75055751D-01 0.68170363D+05 0.68170363D+05 0.68170363D+05 0.11356387D+01  1  2  3  2  7  2        2 -.118243185560D-03 0.100000000000D+01
0.188990193188D-05 0.000000000000D+00 0.000000000000D+00 0.862007914739D-09 0.000000000000D+00  7 -2 2 24 -11 11 -24 21 2 0.34117039D-01 0.75055751D-01 0.68170363D+05 0.68170363D+05 0.68170363D+05 0.11356387D+01  1  2 15  2  7  2        2 0.149162784378D-03 0.100000000000D+01
0.560664129846D-04 0.000000000000D+00 0.000000000000D+00 0.862007914739D-09 0.000000000000D+00  7 -2 2 24 -11 11 -24 21 2 0.34117039D-01 0.84495662D-01 0.81974080D+05 0.81974080D+05 0.81974080D+05 0.11288755D+01  1  2 12  2  7  2        2 0.382624999512D-02 0.100000000000D+01
-.540201085496D-04 0.000000000000D+00 0.000000000000D+00 0.862007914739D-09 0.000000000000D+00  7 -2 2 24 -11 11 -24 21 2 0.34117039D-01 0.75055751D-01 0.68170363D+05 0.68170363D+05 0.68170363D+05 0.11356387D+01  1  2  4  2  7  2        2 -.426360207783D-02 0.100000000000D+01
-.136121445543D-03 0.000000000000D+00 -.306563995301D-04 0.862007914739D-09 0.000000000000D+00  7 -2 2 24 -11 11 -24 21 2 0.34117039D-01 0.85883519D-01 0.68170363D+05 0.68170363D+05 0.68170363D+05 0.11356387D+01  1  2  5  2  7  2        2 -.924358680644D-02 0.100000000000D+01
0.139262550520D-03 0.000000000000D+00 0.303801232481D-04 0.862007914739D-09 0.000000000000D+00  7 -2 2 24 -11 11 -24 21 2 0.34117039D-01 0.75055751D-01 0.68170363D+05 0.68170363D+05 0.68170363D+05 0.11356387D+01  1  2  6  2  7  2        2 0.109914643955D-01 0.100000000000D+01
0.105235604854D-05 0.000000000000D+00 0.000000000000D+00 0.862007914739D-09 0.000000000000D+00  7 -2 21 24 -11 11 -24 -2 2 0.34117039D-01 0.84495662D-01 0.81974080D+05 0.81974080D+05 0.81974080D+05 0.11288755D+01  1  2 12  4  7  2        2 0.125865104774D-03 0.100000000000D+01
-.266944706463D-05 0.000000000000D+00 -.640677896695D-06 0.862007914739D-09 0.000000000000D+00  7 -2 21 24 -11 11 -24 -2 2 0.34117039D-01 0.85883519D-01 0.68170363D+05 0.68170363D+05 0.68170363D+05 0.11356387D+01  1  2  5  4  7  2        2 -.313464752476D-03 0.100000000000D+01
  </mgrwgt>
  </event>
  <event>
  8     66 0.27011060E-05 0.49966006E+03 0.75467711E-02 0.91778442E-01
       -2 -1    0    0    0  501 0.00000000E+00 0.00000000E+00 0.13830181E+03 0.13830218E+03 0.32000000E+00 0.0000E+00 0.9000E+01
        2 -1    0    0  501    0 0.00000000E+00 0.00000000E+00 -.18453712E+04 0.18453712E+04 0.32000000E+00 0.0000E+00 0.9000E+01
       25  2    1    2    0    0 -.43477006E+03 0.11754952E+03 -.78318264E+03 0.95178988E+03 0.29947627E+03 0.0000E+00 0.0000E+00
       23  2    1    2    0    0 0.43477006E+03 -.11754952E+03 -.92388673E+03 0.10318835E+04 0.91509431E+02 0.0000E+00 0.0000E+00
       24  1    3    3    0    0 -.63816915E+02 0.12330857E+03 -.20958511E+03 0.26395215E+03 0.80419002E+02 0.0000E+00 0.9000E+01
      -13  1    4    4    0    0 0.30448792E+01 -.15280905E+02 -.24861634E+02 0.29340915E+02 0.10565837E+00 0.0000E+00 0.9000E+01
       13  1    4    4    0    0 0.43172518E+03 -.10226861E+03 -.89902510E+03 0.10025426E+04 0.10565837E+00 0.0000E+00 0.9000E+01
      -24  1    3    3    0    0 -.37095315E+03 -.57590580E+01 -.57359753E+03 0.68783773E+03 0.80419002E+02 0.0000E+00 0.9000E+01
#aMCatNLO 1  0  0  1  2 0.26286937D+03 0.00000000D+00  -5  7  0 0.00000000D+00 0.00000000D+00 0.00000000D+00 0.00000000D+00 0.00000000D+00
  <mgrwgt>
 0.1314127267D-02    3    2    0
 0.505191613336080D+03 0.000000000000000D+00 0.000000000000000D+00 0.505191613336080D+03
 0.505191613336080D+03 0.000000000000000D+00 0.000000000000000D+00 -.505191613336080D+03
 0.164114495042890D+03 -.638169151836123D+02 0.123308574546079D+03 0.344782294886766D+02
 0.155997004293207D+02 0.304430773300144D+01 -.152807885341476D+02 0.761804230758052D+00
 0.449353684908194D+03 0.431725755041902D+03 -.102268728048245D+03 -.712229867210421D+02
 0.381315346291756D+03 -.370953147591291D+03 -.575905796368629D+01 0.359829530016075D+02
 0.000000000000000D+00 0.000000000000000D+00 0.000000000000000D+00 -.000000000000000D+00
 0.545414604580271D+03 0.000000000000000D+00 0.000000000000000D+00 0.545414604580271D+03
 0.126009103924623D+04 0.000000000000000D+00 0.000000000000000D+00 -.126009103924623D+04
 0.138465969878075D+03 -.659618748385422D+02 0.846515895835163D+02 0.344782294886766D+02
 0.200445942436352D+02 0.279162924623299D+01 -.198346217220685D+02 0.761804230758052D+00
 0.484655876225863D+03 0.425104663933213D+03 -.221595643515442D+03 -.712229867210421D+02
 0.400852032054727D+03 -.376497846157320D+03 -.105686965044023D+03 0.359829530016075D+02
 0.761487171424205D+03 0.145634278164160D+02 0.262465640698018D+03 -.714676434665962D+03
0.684914870088D-04 0.000000000000D+00 0.000000000000D+00 0.306097788625D-05 0.000000000000D+00  7 -2 2 24 -13 13 -24 21 0 0.21277232D-01 0.28390329D+00 0.24966017D+06 0.24966017D+06 0.24966017D+06 0.10905036D+01  1  2  2  1  7  1       -2 0.130283721011D-02 0.100000000000D+01
-.380452181532D-05 0.000000000000D+00 -.263025344336D-06 0.306097788625D-05 0.000000000000D+00  7 -2 2 24 -13 13 -24 21 2 0.21277232D-01 0.28390329D+00 0.24966017D+06 0.24966017D+06 0.24966017D+06 0.10905036D+01  1  2  3  1  7  1       -2 -.860612809796D-04 0.100000000000D+01
0.430362278821D-05 0.000000000000D+00 0.000000000000D+00 0.306097788625D-05 0.000000000000D+00  7 -2 2 24 -13 13 -24 21 2 0.21277232D-01 0.28390329D+00 0.24966017D+06 0.24966017D+06 0.24966017D+06 0.10905036D+01  1  2 15  1  7  1       -2 0.973513382194D-04 0.100000000000D+01
  </mgrwgt>
  </event>
  <event>
  8     66 0.27011060E-05 0.23770659E+03 0.75467711E-02 0.89305556E-01
       -2 -1    0    0    0  501 0.00000000E+00 0.00000000E+00 0.54274401E+03 0.54274411E+03 0.32000000E+00 0.0000E+00 0.9000E+01
        2 -1    0    0  501    0 0.00000000E+00 0.00000000E+00 -.28341137E+04 0.28341137E+04 0.32000000E+00 0.0000E+00 0.9000E+01
       25  2    1    2    0    0 0.75921887E+03 -.24909877E+02 0.13935191E+03 0.82860323E+03 0.30021754E+03 0.0000E+00 0.0000E+00
       23  2    1    2    0    0 -.75921887E+03 0.24909877E+02 -.24307216E+04 0.25482546E+04 0.90333895E+02 0.0000E+00 0.0000E+00
       24  1    3    3    0    0 0.59949511E+03 -.49941733E+02 0.19855368E+03 0.63857602E+03 0.80419002E+02 0.0000E+00 0.9000E+01
      -13  1    4    4    0    0 -.88525341E+02 0.10637761E+02 -.39141294E+03 0.40143991E+03 0.10565837E+00 0.0000E+00 0.9000E+01
       13  1    4    4    0    0 -.67069352E+03 0.14272116E+02 -.20393087E+04 0.21468147E+04 0.10565837E+00 0.0000E+00 0.9000E+01
      -24  1    3    3    0    0 0.15972376E+03 0.25031856E+02 -.59201772E+02 0.19002721E+03 0.80419002E+02 0.0000E+00 0.9000E+01
#aMCatNLO 1  0  0  2  1 0.94950362D+02 0.00000000D+00  -5  7  0 0.00000000D+00 0.00000000D+00 0.00000000D+00 0.00000000D+00 0.00000000D+00
  <mgrwgt>
 0.1861948917D-02    9    2    0
 0.124024127942305D+04 0.000000000000000D+00 0.000000000000000D+00 0.124024127942305D+04
 0.124024127942305D+04 0.000000000000000D+00 0.000000000000000D+00 -.124024127942305D+04
 0.105275496606783D+04 0.599495106913089D+03 -.499417332449827D+02 0.860196048987588D+03
 0.184936131470214D+03 -.885245446864050D+02 0.106377563508904D+02 -.162023504008067D+03
 0.103878208116719D+04 -.670694321017801D+03 0.142721210559713D+02 -.793116414197226D+03
 0.204009380140871D+03 0.159723758791117D+03 0.250318558381210D+02 0.949438692177048D+02
 0.000000000000000D+00 -.000000000000000D+00 0.000000000000000D+00 -.000000000000000D+00
 0.125723370421752D+04 0.000000000000000D+00 0.000000000000000D+00 0.125723370421752D+04
 0.138128127444731D+04 0.000000000000000D+00 0.000000000000000D+00 -.138128127444731D+04
 0.107098708191590D+04 0.627999970729852D+03 -.788980845509501D+02 0.860196048987588D+03
 0.182404161553825D+03 -.835941036109453D+02 0.562922220064391D+01 -.162023504008067D+03
 0.102114281483985D+04 -.643046010956235D+03 -.138141095713863D+02 -.793116414197226D+03
 0.207765137188469D+03 0.165250595984376D+03 0.194174792739080D+02 0.949438692177048D+02
 0.156215783166798D+03 -.666104521470478D+02 0.676654926477844D+02 -.124047570229790D+03
0.298304064595D-02 0.000000000000D+00 0.000000000000D+00 0.364446520218D-04 0.000000000000D+00  7 -2 2 24 -13 13 -24 21 0 0.83499087D-01 0.43601750D+00 0.59868958D+06 0.59868958D+06 0.59868958D+06 0.10630249D+01  1  2  2  2  7  2        2 0.103835063582D-02 0.100000000000D+01
-.120869975879D-03 0.000000000000D+00 -.114556615331D-04 0.364446520218D-04 0.000000000000D+00  7 -2 2 24 -13 13 -24 21 2 0.83499087D-01 0.43601750D+00 0.59868958D+06 0.59868958D+06 0.59868958D+06 0.10630249D+01  1  2  3  2  7  2        2 -.475433962726D-04 0.100000000000D+01
0.180086221187D-03 0.000000000000D+00 0.000000000000D+00 0.364446520218D-04 0.000000000000D+00  7 -2 2 24 -13 13 -24 21 2 0.83499087D-01 0.43601750D+00 0.59868958D+06 0.59868958D+06 0.59868958D+06 0.10630249D+01  1  2 15  2  7  2        2 0.708357101494D-04 0.100000000000D+01
0.108430016181D-01 0.000000000000D+00 0.000000000000D+00 0.364446520218D-04 0.000000000000D+00  7 -2 2 24 -13 13 -24 21 2 0.83499087D-01 0.48837454D+00 0.67630553D+06 0.67630553D+06 0.67630553D+06 0.10593615D+01  1  2 12  2  7  2        2 0.253889239121D-02 0.100000000000D+01
-.110448864030D-01 0.000000000000D+00 0.000000000000D+00 0.364446520218D-04 0.000000000000D+00  7 -2 2 24 -13 13 -24 21 2 0.83499087D-01 0.43601750D+00 0.59868958D+06 0.59868958D+06 0.59868958D+06 0.10630249D+01  1  2  4  2  7  2        2 -.434443216544D-02 0.100000000000D+01
-.166572416854D-01 0.000000000000D+00 -.230923267810D-02 0.364446520218D-04 0.000000000000D+00  7 -2 2 24 -13 13 -24 21 2 0.83499087D-01 0.48731665D+00 0.59868958D+06 0.59868958D+06 0.59868958D+06 0.10630249D+01  1  2  5  2  7  2        2 -.401055848690D-02 0.100000000000D+01
0.168241282521D-01 0.000000000000D+00 0.229502046354D-02 0.364446520218D-04 0.000000000000D+00  7 -2 2 24 -13 13 -24 21 2 0.83499087D-01 0.43601750D+00 0.59868958D+06 0.59868958D+06 0.59868958D+06 0.10630249D+01  1  2  6  2  7  2        2 0.661765827796D-02 0.100000000000D+01
0.196134857330D-03 0.000000000000D+00 0.000000000000D+00 0.364446520218D-04 0.000000000000D+00  7 -2 21 24 -13 13 -24 -2 2 0.83499087D-01 0.48837454D+00 0.67630553D+06 0.67630553D+06 0.67630553D+06 0.10593615D+01  1  2 12  4  7  2        2 0.237917050945D-05 0.100000000000D+01
-.287120650994D-03 0.000000000000D+00 -.410913015765D-04 0.364446520218D-04 0.000000000000D+00  7 -2 21 24 -13 13 -24 -2 2 0.83499087D-01 0.48731665D+00 0.59868958D+06 0.59868958D+06 0.59868958D+06 0.10630249D+01  1  2  5  4  7  2        2 -.363322002121D-05 0.100000000000D+01
  </mgrwgt>
  </event>
  <event>
  8     66 0.27011060E-05 0.47138062E+03 0.75467711E-02 0.88787290E-01
       -2 -1    0    0    0  501 0.00000000E+00 0.00000000E+00 0.40563800E+03 0.40563813E+03 0.32000000E+00 0.0000E+00 0.9000E+01
        2 -1    0    0  501    0 0.00000000E+00 0.00000000E+00 -.30567477E+04 0.30567477E+04 0.32000000E+00 0.0000E+00 0.9000E+01
       25  2    1    2    0    0 -.69481715E+03 -.26357010E+03 -.10497957E+03 0.80834669E+03 0.30027252E+03 0.0000E+00 0.0000E+00
       23  2    1    2    0    0 0.69481715E+03 0.26357010E+03 -.25461301E+04 0.26540392E+04 0.94367255E+02 0.0000E+00 0.0000E+00
       24  1    3    3    0    0 -.33015962E+03 -.13197412E+02 0.23155369E+02 0.34085618E+03 0.80419002E+02 0.0000E+00 0.9000E+01
      -13  1    4    4    0    0 0.64989312E+03 0.25659843E+03 -.23016583E+04 0.24053762E+04 0.10565837E+00 0.0000E+00 0.9000E+01
       13  1    4    4    0    0 0.44924032E+02 0.69716750E+01 -.24447187E+03 0.24866298E+03 0.10565837E+00 0.0000E+00 0.9000E+01
      -24  1    3    3    0    0 -.36465753E+03 -.25037269E+03 -.12813494E+03 0.46749051E+03 0.80419002E+02 0.0000E+00 0.9000E+01
#aMCatNLO 1  0  0  1  2 0.18695408D+03 0.00000000D+00  -5  7  0 0.00000000D+00 0.00000000D+00 0.00000000D+00 0.00000000D+00 0.00000000D+00
  <mgrwgt>
 0.1289983958D-02    9    2    0
 0.111352291569567D+04 0.000000000000000D+00 0.000000000000000D+00 0.111352291569567D+04
 0.111352291569567D+04 0.000000000000000D+00 0.000000000000000D+00 -.111352291569567D+04
 0.557493250392054D+03 -.330159618259051D+03 -.131974122133903D+02 0.441760074090263D+03
 0.999707509492363D+03 0.649893876386967D+03 0.256598742689632D+03 -.714989607770801D+03
 0.955718645312894D+02 0.449232735514662D+02 0.697136208565411D+01 -.840671213619091D+02
 0.574273206975639D+03 -.364657531679383D+03 -.250372692561896D+03 0.357296655042447D+03
 0.000000000000000D+00 0.000000000000000D+00 -.000000000000000D+00 0.000000000000000D+00
 0.123202838410342D+04 0.000000000000000D+00 0.000000000000000D+00 0.123202838410342D+04
 0.119369448878022D+04 0.000000000000000D+00 0.000000000000000D+00 -.119369448878022D+04
 0.578638450943343D+03 -.364430456217674D+03 0.198423908963644D+02 0.441760074090263D+03
 0.978897984196179D+03 0.590210242721487D+03 0.314138494345633D+03 -.714989607770801D+03
 0.935992653890931D+02 0.392170221262742D+02 0.124726405723585D+02 -.840671213619091D+02
 0.583743482254662D+03 -.399588519225409D+03 -.216696452945478D+03 0.357296655042447D+03
 0.190843690100363D+03 0.134591710595321D+03 -.129757072868877D+03 0.383338953231927D+02
0.174370866262D-02 0.000000000000D+00 0.000000000000D+00 0.438618395948D-05 0.000000000000D+00  7 -2 2 24 -13 13 -24 21 0 0.62405858D-01 0.47026889D+00 0.58816151D+06 0.58816151D+06 0.58816151D+06 0.10635614D+01  1  2  2  1  7  1       -2 0.834248874981D-03 0.100000000000D+01
-.804939516876D-04 0.000000000000D+00 -.669630039349D-05 0.438618395948D-05 0.000000000000D+00  7 -2 2 24 -13 13 -24 21 2 0.62405858D-01 0.47026889D+00 0.58816151D+06 0.58816151D+06 0.58816151D+06 0.10635614D+01  1  2  3  1  7  1       -2 -.435622258360D-04 0.100000000000D+01
0.111777047953D-03 0.000000000000D+00 0.000000000000D+00 0.438618395948D-05 0.000000000000D+00  7 -2 2 24 -13 13 -24 21 2 0.62405858D-01 0.47026889D+00 0.58816151D+06 0.58816151D+06 0.58816151D+06 0.10635614D+01  1  2 15  1  7  1       -2 0.604922097143D-04 0.100000000000D+01
0.169353599924D-02 0.000000000000D+00 0.000000000000D+00 0.438618395948D-05 0.000000000000D+00  7 -2 2 24 -13 13 -24 21 2 0.71093435D-01 0.47026889D+00 0.75000666D+06 0.75000666D+06 0.75000666D+06 0.10562831D+01  1  2 12  1  7  1       -2 0.669946696123D-03 0.100000000000D+01
-.155369504918D-02 0.000000000000D+00 0.000000000000D+00 0.438618395948D-05 0.000000000000D+00  7 -2 2 24 -13 13 -24 21 2 0.62405858D-01 0.47026889D+00 0.58816151D+06 0.58816151D+06 0.58816151D+06 0.10635614D+01  1  2  4  1  7  1       -2 -.840838512628D-03 0.100000000000D+01
-.364257843366D-02 0.000000000000D+00 -.119947348371D-02 0.438618395948D-05 0.000000000000D+00  7 -2 2 24 -13 13 -24 21 2 0.75841299D-01 0.47026889D+00 0.58816151D+06 0.58816151D+06 0.58816151D+06 0.10635614D+01  1  2  5  1  7  1       -2 -.129142455117D-02 0.100000000000D+01
0.382594250027D-02 0.000000000000D+00 0.117702797189D-02 0.438618395948D-05 0.000000000000D+00  7 -2 2 24 -13 13 -24 21 2 0.62405858D-01 0.47026889D+00 0.58816151D+06 0.58816151D+06 0.58816151D+06 0.10635614D+01  1  2  6  1  7  1       -2 0.207054775841D-02 0.100000000000D+01
0.344285199278D-04 0.000000000000D+00 0.000000000000D+00 0.438618395948D-05 0.000000000000D+00  7 21 2 24 -13 13 -24 2 2 0.71093435D-01 0.47026889D+00 0.75000666D+06 0.75000666D+06 0.75000666D+06 0.10562831D+01  1  2 12  3  7  1       -2 0.129784264285D-03 0.100000000000D+01
-.890011010866D-04 0.000000000000D+00 -.336613044196D-04 0.438618395948D-05 0.000000000000D+00  7 21 2 24 -13 13 -24 2 2 0.75841299D-01 0.47026889D+00 0.58816151D+06 0.58816151D+06 0.58816151D+06 0.10635614D+01  1  2  5  3  7  1       -2 -.299210555750D-03 0.100000000000D+01
  </mgrwgt>
  </event>
  <event>
  8     66 0.27011060E-05 0.19467778E+03 0.75467711E-02 0.96223433E-01
       -2 -1    0    0    0  501 0.00000000E+00 0.00000000E+00 0.65977862E+02 0.65978638E+02 0.32000000E+00 0.0000E+00 0.9000E+01
        2 -1    0    0  501    0 0.00000000E+00 0.00000000E+00 -.14980576E+04 0.14980576E+04 0.32000000E+00 0.0000E+00 0.9000E+01
       25  2    1    2    0    0 0.17539876E+03 -.32793265E+02 -.12491885E+04 0.12973236E+04 0.30122516E+03 0.0000E+00 0.0000E+00
       23  2    1    2    0    0 -.17539876E+03 0.32793265E+02 -.18289127E+03 0.26671266E+03 0.76461128E+02 0.0000E+00 0.0000E+00
       24  1    3    3    0    0 -.10625312E+02 -.10437971E+03 -.56032019E+03 0.57570301E+03 0.80419002E+02 0.0000E+00 0.9000E+01
      -13  1    4    4    0    0 -.10808575E+03 -.18208563E+02 -.99778286E+02 0.14822213E+03 0.10565837E+00 0.0000E+00 0.9000E+01
       13  1    4    4    0    0 -.67313010E+02 0.51001828E+02 -.83112983E+02 0.11849054E+03 0.10565837E+00 0.0000E+00 0.9000E+01
      -24  1    3    3    0    0 0.18602407E+03 0.71586445E+02 -.68886828E+03 0.72162061E+03 0.80419002E+02 0.0000E+00 0.9000E+01
#aMCatNLO 1  0  0  2  1 0.26191318D+03 0.00000000D+00  -5  7  0 0.00000000D+00 0.00000000D+00 0.00000000D+00 0.00000000D+00 0.00000000D+00
  <mgrwgt>
 0.1487642500D-02    7    2    0
 0.314387136670594D+03 0.000000000000000D+00 0.000000000000000D+00 0.314387136670594D+03
 0.314387136670594D+03 0.000000000000000D+00 0.000000000000000D+00 -.314387136670594D+03
 0.155854331009325D+03 -.106253094037862D+02 -.104379707838396D+03 -.825550478870826D+02
 0.141440845319234D+03 -.108085829715396D+03 -.182086936131155D+02 0.893946844966620D+02
 0.105441707213337D+03 -.673129334522069D+02 0.510019587200221D+02 0.631325812623162D+02
 0.226037389799291D+03 0.186024072571389D+03 0.715864427314895D+02 -.699722178718957D+02
 0.000000000000000D+00 0.000000000000000D+00 0.000000000000000D+00 -.000000000000000D+00
 0.393022902471691D+03 0.000000000000000D+00 0.000000000000000D+00 0.393022902471691D+03
 0.667533237792522D+03 0.000000000000000D+00 0.000000000000000D+00 -.667533237792522D+03
 0.193533515930638D+03 -.719604617729966D+02 -.137820034261651D+03 -.825550478870826D+02
 0.196381032315643D+03 -.167390572338423D+03 -.505420273565994D+02 0.893946844966620D+02
 0.128671930445421D+03 -.108411660163149D+03 0.285946639843535D+02 0.631325812623162D+02
 0.162556383255227D+03 0.117806306874115D+03 0.343936704848344D+02 -.699722178718957D+02
 0.379413278317285D+03 0.229956387400453D+03 0.125373727149062D+03 -.274510335320830D+03
0.155911543878D-04 0.000000000000D+00 0.000000000000D+00 0.884216570323D-09 0.000000000000D+00  7 -2 2 24 -13 13 -24 21 0 0.10150503D-01 0.23047046D+00 0.73221579D+05 0.73221579D+05 0.73221579D+05 0.11330022D+01  1  2  2  2  7  2        2 0.153769535402D-02 0.100000000000D+01
-.842478765178D-06 0.000000000000D+00 -.598741380943D-07 0.884216570323D-09 0.000000000000D+00  7 -2 2 24 -13 13 -24 21 2 0.10150503D-01 0.23047046D+00 0.73221579D+05 0.73221579D+05 0.73221579D+05 0.11330022D+01  1  2  3  2  7  2        2 -.106662676681D-03 0.100000000000D+01
0.963589707334D-06 0.000000000000D+00 0.000000000000D+00 0.884216570323D-09 0.000000000000D+00  7 -2 2 24 -13 13 -24 21 2 0.10150503D-01 0.23047046D+00 0.73221579D+05 0.73221579D+05 0.73221579D+05 0.11330022D+01  1  2 15  2  7  2        2 0.121996021330D-03 0.100000000000D+01
0.129658929402D-07 0.000000000000D+00 0.000000000000D+00 0.884216570323D-09 0.000000000000D+00  7 -2 2 24 -13 13 -24 21 2 0.10150503D-01 0.48940958D+00 0.18951019D+06 0.18951019D+06 0.18951019D+06 0.10996269D+01  1  2 12  2  7  2        2 0.165143106557D-06 0.100000000000D+01
-.608448815769D-05 0.000000000000D+00 -.417932288743D-05 0.884216570323D-09 0.000000000000D+00  7 -2 2 24 -13 13 -24 21 2 0.10150503D-01 0.51738601D+00 0.73221579D+05 0.73221579D+05 0.73221579D+05 0.11330022D+01  1  2  5  2  7  2        2 -.654191007387D-04 0.100000000000D+01
0.105635427119D-08 0.000000000000D+00 0.000000000000D+00 0.884216570323D-09 0.000000000000D+00  7 -2 21 24 -13 13 -24 -2 2 0.10150503D-01 0.48940958D+00 0.18951019D+06 0.18951019D+06 0.18951019D+06 0.10996269D+01  1  2 12  4  7  2        2 0.738728139512D-09 0.100000000000D+01
-.270049027121D-06 0.000000000000D+00 -.366921727712D-06 0.884216570323D-09 0.000000000000D+00  7 -2 21 24 -13 13 -24 -2 2 0.10150503D-01 0.51738601D+00 0.73221579D+05 0.73221579D+05 0.73221579D+05 0.11330022D+01  1  2  5  4  7  2        2 -.132980029401D-06 0.100000000000D+01
  </mgrwgt>
  </event>
  <event>
  8     66 0.27011060E-05 0.64267292E+03 0.75467711E-02 0.88536170E-01
       -2 -1    0    0    0  501 0.00000000E+00 0.00000000E+00 0.84086121E+03 0.84086127E+03 0.32000000E+00 0.0000E+00 0.9000E+01
        2 -1    0    0  501    0 0.00000000E+00 0.00000000E+00 -.14156981E+04 0.14156981E+04 0.32000000E+00 0.0000E+00 0.9000E+01
       25  2    1    2    0    0 0.82741601E+03 -.27528356E+03 0.34626993E+03 0.98498736E+03 0.29983152E+03 0.0000E+00 0.0000E+00
       23  2    1    2    0    0 -.82741601E+03 0.27528356E+03 -.92110679E+03 0.12715720E+04 0.89774174E+02 0.0000E+00 0.0000E+00
       24  1    3    3    0    0 0.42489616E+03 -.12291251E+03 0.30908461E+03 0.54556828E+03 0.80419002E+02 0.0000E+00 0.9000E+01
      -11  1    4    4    0    0 -.80802020E+03 0.28057918E+03 -.88884928E+03 0.12335617E+04 0.51099893E-03 0.0000E+00 0.9000E+01
       11  1    4    4    0    0 -.19395812E+02 -.52956225E+01 -.32257506E+02 0.38010365E+02 0.51099893E-03 0.0000E+00 0.9000E+01
      -24  1    3    3    0    0 0.40251985E+03 -.15237105E+03 0.37185318E+02 0.43941909E+03 0.80419002E+02 0.0000E+00 0.9000E+01
#aMCatNLO 1  0  0  2  1 0.13384111D+02 0.00000000D+00  -5  7  0 0.00000000D+00 0.00000000D+00 0.00000000D+00 0.00000000D+00 0.00000000D+00
  <mgrwgt>
 0.2919728249D-02    9    2    0
 0.109105715356692D+04 0.000000000000000D+00 0.000000000000000D+00 0.109105715356692D+04
 0.109105715356692D+04 0.000000000000000D+00 0.000000000000000D+00 -.109105715356692D+04
 0.645603411186469D+03 0.424896159663191D+03 -.122912512712201D+03 0.463349022124229D+03
 0.104149530824217D+04 -.808020201092287D+03 0.280579183347654D+03 -.594214736933703D+03
 0.308094960976825D+02 -.193958120757871D+02 -.529562247847295D+01 -.233448903676876D+02
 0.464206091607517D+03 0.402519853504883D+03 -.152371048156980D+03 0.154210605177161D+03
 0.000000000000000D+00 -.000000000000000D+00 -.000000000000000D+00 -.000000000000000D+00
 0.109269349757185D+04 0.000000000000000D+00 0.000000000000000D+00 0.109269349757185D+04
 0.111879337348261D+04 0.000000000000000D+00 0.000000000000000D+00 -.111879337348261D+04
 0.647560960240098D+03 0.428396050342602D+03 -.121047465979618D+03 0.463349022124229D+03
 0.103795044745482D+04 -.802392275532694D+03 0.283578232500214D+03 -.594214736933703D+03
 0.306898116620376D+02 -.192293669905571D+02 -.520692603312713D+01 -.233448903676876D+02
 0.465954133462266D+03 0.405037289937569D+03 -.151029538657588D+03 0.154210605177161D+03
 0.293315182352324D+02 -.118116977569203D+02 -.629430182988123D+01 -.260998759107642D+02
0.922799460783D-03 0.000000000000D+00 0.000000000000D+00 0.142298276501D-04 0.000000000000D+00  7 -2 2 24 -11 11 -24 21 0 0.12936327D+00 0.21779971D+00 0.77692356D+06 0.77692356D+06 0.77692356D+06 0.10552400D+01  1  2  2  2  7  2        2 0.692252889151D-03 0.100000000000D+01
-.484292607979D-04 0.000000000000D+00 -.354379290809D-05 0.142298276501D-04 0.000000000000D+00  7 -2 2 24 -11 11 -24 21 2 0.12936327D+00 0.21779971D+00 0.77692356D+06 0.77692356D+06 0.77692356D+06 0.10552400D+01  1  2  3  2  7  2        2 -.404545872083D-04 0.100000000000D+01
0.565010924852D-04 0.000000000000D+00 0.000000000000D+00 0.142298276501D-04 0.000000000000D+00  7 -2 2 24 -11 11 -24 21 2 0.12936327D+00 0.21779971D+00 0.77692356D+06 0.77692356D+06 0.77692356D+06 0.10552400D+01  1  2 15  2  7  2        2 0.471972591704D-04 0.100000000000D+01
0.419170927714D-02 0.000000000000D+00 0.000000000000D+00 0.142298276501D-04 0.000000000000D+00  7 -2 2 24 -11 11 -24 21 2 0.12936327D+00 0.22349754D+00 0.78890386D+06 0.78890386D+06 0.78890386D+06 0.10547883D+01  1  2 12  2  7  2        2 0.333116005072D-02 0.100000000000D+01
-.425658666816D-02 0.000000000000D+00 0.000000000000D+00 0.142298276501D-04 0.000000000000D+00  7 -2 2 24 -11 11 -24 21 2 0.12936327D+00 0.21779971D+00 0.77692356D+06 0.77692356D+06 0.77692356D+06 0.10552400D+01  1  2  4  2  7  2        2 -.355566972817D-02 0.100000000000D+01
-.615758757608D-01 0.000000000000D+00 -.408402003975D-02 0.142298276501D-04 0.000000000000D+00  7 -2 2 24 -11 11 -24 21 2 0.12936327D+00 0.22347343D+00 0.77692356D+06 0.77692356D+06 0.77692356D+06 0.10552400D+01  1  2  5  2  7  2        2 -.490314275857D-01 0.100000000000D+01
0.616618620863D-01 0.000000000000D+00 0.408266993857D-02 0.142298276501D-04 0.000000000000D+00  7 -2 2 24 -11 11 -24 21 2 0.12936327D+00 0.21779971D+00 0.77692356D+06 0.77692356D+06 0.77692356D+06 0.10552400D+01  1  2  6  2  7  2        2 0.515082232539D-01 0.100000000000D+01
0.173688684768D-03 0.000000000000D+00 0.000000000000D+00 0.142298276501D-04 0.000000000000D+00  7 -2 21 24 -11 11 -24 -2 2 0.12936327D+00 0.22349754D+00 0.78890386D+06 0.78890386D+06 0.78890386D+06 0.10547883D+01  1  2 12  4  7  2        2 0.489636810185D-04 0.100000000000D+01
-.284802159750D-03 0.000000000000D+00 -.189545420313D-04 0.142298276501D-04 0.000000000000D+00  7 -2 21 24 -11 11 -24 -2 2 0.12936327D+00 0.22347343D+00 0.77692356D+06 0.77692356D+06 0.77692356D+06 0.10552400D+01  1  2  5  4  7  2        2 -.805169839533D-04 0.100000000000D+01
  </mgrwgt>
  </event>
  <event>
  9     66 0.27011060E-05 0.27472021E+03 0.75467711E-02 0.98234594E-01
       21 -1    0    0  502  501 0.00000000E+00 0.00000000E+00 0.20242541E+03 0.20242680E+03 0.75000000E+00 0.0000E+00 0.9000E+01
        2 -1    0    0  501    0 0.00000000E+00 0.00000000E+00 -.12113143E+04 0.12113144E+04 0.32000000E+00 0.0000E+00 0.9000E+01
       25  2    1    2    0    0 -.27835327E+03 -.62881168E+02 -.97422901E+03 0.10587704E+04 0.30072915E+03 0.0000E+00 0.0000E+00
       23  2    1    2    0    0 0.10320838E+03 0.78215460E+02 0.39728507E+02 0.16406605E+03 0.92572605E+02 0.0000E+00 0.0000E+00
       24  1    3    3    0    0 -.10751018E+03 0.88107584E+02 -.51964504E+03 0.54389297E+03 0.80419002E+02 0.0000E+00 0.9000E+01
      -11  1    4    4    0    0 0.90146748E+02 0.98702554E+02 0.40753143E+02 0.13974781E+03 0.51099893E-03 0.0000E+00 0.9000E+01
       11  1    4    4    0    0 0.13061634E+02 -.20487094E+02 -.10246364E+01 0.24318248E+02 0.51099893E-03 0.0000E+00 0.9000E+01
      -24  1    3    3    0    0 -.17084309E+03 -.15098875E+03 -.45458397E+03 0.51487743E+03 0.80419002E+02 0.0000E+00 0.9000E+01
        2  1    1    2  502    0 0.17514489E+03 -.15334292E+02 -.74388408E+02 0.19090471E+03 0.32000000E+00 0.0000E+00 0.9000E+01
#aMCatNLO 2  0  0  1  2 0.17581488D+03 0.00000000D+00  -5  7  0 0.00000000D+00 0.00000000D+00 0.00000000D+00 0.00000000D+00 0.00000000D+00
  <mgrwgt>
 0.2434889348D-03    2    2    0
 0.384423899705681D+03 0.000000000000000D+00 0.000000000000000D+00 0.384423899705681D+03
 0.384423899705681D+03 0.000000000000000D+00 0.000000000000000D+00 -.384423899705681D+03
 0.207196640455575D+03 -.586207694575687D+02 0.838272169167623D+02 -.161244643178925D+03
 0.290366640134757D+03 0.152593030547230D+03 0.932352548809407D+02 0.228769184941603D+03
 0.408163359913644D+02 0.217547388562058D+02 -.212481929343971D+02 0.272253359590083D+02
 0.230468182829665D+03 -.115726999945868D+03 -.155814278863306D+03 -.947498777216865D+02
 0.000000000000000D+00 0.000000000000000D+00 -.000000000000000D+00 0.000000000000000D+00
 0.553701946963106D+03 0.000000000000000D+00 0.000000000000000D+00 0.553701946963106D+03
 0.442840573320941D+03 0.000000000000000D+00 0.000000000000000D+00 -.442840573320941D+03
 0.227570725960465D+03 -.107510176314550D+03 0.881075842065704D+02 -.161244643178925D+03
 0.264960318622653D+03 0.901467484144524D+02 0.987025542530358D+02 0.228769184941603D+03
 0.364903577593924D+02 0.130616337717453D+02 -.204870938529695D+02 0.272253359590083D+02
 0.259672334869975D+03 -.170843094294077D+03 -.150988752383097D+03 -.947498777216865D+02
 0.207848783071563D+03 0.175144888422429D+03 -.153342922235394D+02 0.110861373642165D+03
-.240772853958D-06 0.000000000000D+00 0.000000000000D+00 0.753344044631D-06 0.000000000000D+00  7 21 2 24 -11 11 -24 2 2 0.32210190D-01 0.16177321D+00 0.13547637D+06 0.13547637D+06 0.13547637D+06 0.11110591D+01  1  2 13  3  7  1       -2 -.900066155683D-04 0.100000000000D+01
0.103445741829D-05 0.000000000000D+00 0.000000000000D+00 0.753344044631D-06 0.849192677754D-11  7 21 2 24 -11 11 -24 2 2 0.31142473D-01 0.18635611D+00 0.13547637D+06 0.13547637D+06 0.13547637D+06 0.11110591D+01  1  2  1  3  7  1       -2 0.333495550383D-03 0.100000000000D+01
  </mgrwgt>
  </event>
  <event>
  8     66 0.27011060E-05 0.26164523E+03 0.75467711E-02 0.93040914E-01
       -2 -1    0    0    0  501 0.00000000E+00 0.00000000E+00 0.21220994E+03 0.21221018E+03 0.32000000E+00 0.0000E+00 0.9000E+01
        2 -1    0    0  501    0 0.00000000E+00 0.00000000E+00 -.15880125E+04 0.15880125E+04 0.32000000E+00 0.0000E+00 0.9000E+01
       25  2    1    2    0    0 -.13783911E+03 0.49525297E+03 -.95699438E+03 0.11275870E+04 0.30222356E+03 0.0000E+00 0.0000E+00
       23  2    1    2    0    0 0.13783911E+03 -.49525297E+03 -.41880816E+03 0.67263570E+03 0.11297513E+03 0.0000E+00 0.0000E+00
       24  1    3    3    0    0 0.39173651E+02 0.72474600E+02 -.10040352E+03 0.15275872E+03 0.80419002E+02 0.0000E+00 0.9000E+01
      -11  1    4    4    0    0 0.14433028E+03 -.34242773E+03 -.27095920E+03 0.45989876E+03 0.51099893E-03 0.0000E+00 0.9000E+01
       11  1    4    4    0    0 -.64911756E+01 -.15282524E+03 -.14784895E+03 0.21273693E+03 0.51099893E-03 0.0000E+00 0.9000E+01
      -24  1    3    3    0    0 -.17701276E+03 0.42277837E+03 -.85659086E+03 0.97482829E+03 0.80419002E+02 0.0000E+00 0.9000E+01
#aMCatNLO 1  0  0  2  1 0.47212599D+02 0.00000000D+00  -5  7  0 0.00000000D+00 0.00000000D+00 0.00000000D+00 0.00000000D+00 0.00000000D+00
  <mgrwgt>
 0.6786425076D-03    9    2    0
 0.580510364654592D+03 0.000000000000000D+00 0.000000000000000D+00 0.580510364654592D+03
 0.580510364654592D+03 0.000000000000000D+00 0.000000000000000D+00 -.580510364654592D+03
 0.117882728130431D+03 0.391736513602930D+02 0.724746004831102D+02 0.253373037440516D+02
 0.392011801327362D+03 0.144330282881574D+03 -.342427729367954D+03 0.124840986791820D+03
 0.154659504654858D+03 -.649117554093272D+01 -.152825241754886D+03 0.228445289455384D+02
 0.496466695196533D+03 -.177012758700935D+03 0.422778370639730D+03 -.173022819481410D+03
 0.000000000000000D+00 -.000000000000000D+00 0.000000000000000D+00 -.000000000000000D+00
 0.597054847916833D+03 0.000000000000000D+00 0.000000000000000D+00 0.597054847916833D+03
 0.615678433311288D+03 0.000000000000000D+00 0.000000000000000D+00 -.615678433311288D+03
 0.115324436342076D+03 0.399287876797662D+02 0.677954468725798D+02 0.253373037440516D+02
 0.407017738321033D+03 0.146917580004650D+03 -.358459749498309D+03 0.124840986791820D+03
 0.160880488064048D+03 -.546944145618751D+01 -.159156351262336D+03 0.228445289455384D+02
 0.478757613965220D+03 -.173854934209792D+03 0.403211114386635D+03 -.173022819481410D+03
 0.507530045357452D+02 -.752199201843672D+01 0.466095395014302D+02 -.186235853944552D+02
0.234362647889D-04 0.000000000000D+00 0.000000000000D+00 0.897132119391D-09 0.000000000000D+00  7 -2 2 24 -11 11 -24 21 0 0.32647705D-01 0.24430963D+00 0.30527479D+06 0.30527479D+06 0.30527479D+06 0.10839923D+01  1  2  2  2  7  2        2 0.289956935574D-03 0.100000000000D+01
-.129814774271D-05 0.000000000000D+00 -.900014276997D-07 0.897132119391D-09 0.000000000000D+00  7 -2 2 24 -11 11 -24 21 2 0.32647705D-01 0.24430963D+00 0.30527479D+06 0.30527479D+06 0.30527479D+06 0.10839923D+01  1  2  3  2  7  2        2 -.188721595327D-04 0.100000000000D+01
0.152375594187D-05 0.000000000000D+00 0.000000000000D+00 0.897132119391D-09 0.000000000000D+00  7 -2 2 24 -11 11 -24 21 2 0.32647705D-01 0.24430963D+00 0.30527479D+06 0.30527479D+06 0.30527479D+06 0.10839923D+01  1  2 15  2  7  2        2 0.221519972479D-04 0.100000000000D+01
0.631231622837D-04 0.000000000000D+00 0.000000000000D+00 0.897132119391D-09 0.000000000000D+00  7 -2 2 24 -11 11 -24 21 2 0.32647705D-01 0.26243317D+00 0.33221832D+06 0.33221832D+06 0.33221832D+06 0.10812893D+01  1  2 12  2  7  2        2 0.784893840586D-03 0.100000000000D+01
-.596102256579D-04 0.000000000000D+00 0.000000000000D+00 0.897132119391D-09 0.000000000000D+00  7 -2 2 24 -11 11 -24 21 2 0.32647705D-01 0.24430963D+00 0.30527479D+06 0.30527479D+06 0.30527479D+06 0.10839923D+01  1  2  4  2  7  2        2 -.866599117639D-03 0.100000000000D+01
-.216553348641D-03 0.000000000000D+00 -.361864364512D-04 0.897132119391D-09 0.000000000000D+00  7 -2 2 24 -11 11 -24 21 2 0.32647705D-01 0.26283143D+00 0.30527479D+06 0.30527479D+06 0.30527479D+06 0.10839923D+01  1  2  5  2  7  2        2 -.270624614216D-02 0.100000000000D+01
0.218709897615D-03 0.000000000000D+00 0.360900301523D-04 0.897132119391D-09 0.000000000000D+00  7 -2 2 24 -11 11 -24 21 2 0.32647705D-01 0.24430963D+00 0.30527479D+06 0.30527479D+06 0.30527479D+06 0.10839923D+01  1  2  6  2  7  2        2 0.317955186716D-02 0.100000000000D+01
0.794049332709D-06 0.000000000000D+00 0.000000000000D+00 0.897132119391D-09 0.000000000000D+00  7 -2 21 24 -11 11 -24 -2 2 0.32647705D-01 0.26243317D+00 0.33221832D+06 0.33221832D+06 0.33221832D+06 0.10812893D+01  1  2 12  4  7  2        2 0.269698010386D-05 0.100000000000D+01
-.260185424259D-05 0.000000000000D+00 -.445806650763D-06 0.897132119391D-09 0.000000000000D+00  7 -2 21 24 -11 11 -24 -2 2 0.32647705D-01 0.26283143D+00 0.30527479D+06 0.30527479D+06 0.30527479D+06 0.10839923D+01  1  2  5  4  7  2        2 -.889169370215D-05 0.100000000000D+01
  </mgrwgt>
  </event>
  <event>
  8     66 0.27011060E-05 0.22000019E+03 0.75467711E-02 0.90982362E-01
       -2 -1    0    0    0  501 0.00000000E+00 0.00000000E+00 0.99166674E+03 0.99166680E+03 0.32000000E+00 0.0000E+00 0.9000E+01
        2 -1    0    0  501    0 0.00000000E+00 0.00000000E+00 -.44265608E+03 0.44265619E+03 0.32000000E+00 0.0000E+00 0.9000E+01
       25  2    1    2    0    0 0.12246088E+03 -.60289876E+03 0.40623858E+03 0.79645261E+03 0.30136921E+03 0.0000E+00 0.0000E+00
       23  2    1    2    0    0 -.12246088E+03 0.60289876E+03 0.14277209E+03 0.63787038E+03 0.89505166E+02 0.0000E+00 0.0000E+00
       24  1    3    3    0    0 0.18893230E+03 -.33933881E+03 0.18919489E+03 0.43944075E+03 0.80419002E+02 0.0000E+00 0.9000E+01
      -13  1    4    4    0    0 -.77784904E+02 0.31453450E+03 0.31374260E+02 0.32552542E+03 0.10565837E+00 0.0000E+00 0.9000E+01
       13  1    4    4    0    0 -.44675971E+02 0.28836426E+03 0.11139783E+03 0.31234496E+03 0.10565837E+00 0.0000E+00 0.9000E+01
      -24  1    3    3    0    0 -.66471429E+02 -.26355994E+03 0.21704368E+03 0.35701186E+03 0.80419002E+02 0.0000E+00 0.9000E+01
#aMCatNLO 1  0  0  2  1 0.97421622D+02 0.00000000D+00  -5  7  0 0.00000000D+00 0.00000000D+00 0.00000000D+00 0.00000000D+00 0.00000000D+00
  <mgrwgt>
 0.1030506155D-01    8    2    0
 0.662546172838543D+03 0.000000000000000D+00 0.000000000000000D+00 0.662546172838543D+03
 0.662546172838543D+03 0.000000000000000D+00 0.000000000000000D+00 -.662546172838543D+03
 0.397277933007170D+03 0.188932304165592D+03 -.339338811510948D+03 0.227221377756631D+02
 0.339360405506686D+03 -.777849498316128D+02 0.314534536371389D+03 -.100910910386297D+03
 0.291938048060021D+03 -.446759251924148D+02 0.288364219709408D+03 -.882963219398790D+01
 0.296515959103208D+03 -.664714291415640D+02 -.263559944569849D+03 0.870184048046214D+02
 0.000000000000000D+00 0.000000000000000D+00 -.000000000000000D+00 -.000000000000000D+00
 0.667951212080676D+03 0.000000000000000D+00 0.000000000000000D+00 0.667951212080676D+03
 0.132036316415069D+04 0.000000000000000D+00 0.000000000000000D+00 -.132036316415069D+04
 0.372153856858009D+03 0.186147451301593D+03 -.311229992206319D+03 0.227221377756631D+02
 0.363852275674397D+03 -.803301317112570D+02 0.340224244605964D+03 -.100910910386297D+03
 0.314147250623194D+03 -.468695678285749D+02 0.310505678339372D+03 -.882963219398790D+01
 0.278515385540589D+03 -.685526762489919D+02 -.242552946452547D+03 0.870184048046214D+02
 0.659645607535175D+03 0.960492448723037D+01 -.969469842864692D+02 -.652411952070012D+03
0.279124245419D-03 0.000000000000D+00 0.000000000000D+00 0.478871458267D-06 0.000000000000D+00  7 -2 2 24 -13 13 -24 21 0 0.15256413D+00 0.68100948D-01 0.41984049D+06 0.41984049D+06 0.41984049D+06 0.10739153D+01  1  2  2  2  7  2        2 0.666474941168D-03 0.100000000000D+01
-.154975474055D-04 0.000000000000D+00 -.107191059751D-05 0.478871458267D-06 0.000000000000D+00  7 -2 2 24 -13 13 -24 21 2 0.15256413D+00 0.68100948D-01 0.41984049D+06 0.41984049D+06 0.41984049D+06 0.10739153D+01  1  2  3  2  7  2        2 -.426765470622D-04 0.100000000000D+01
0.172581458818D-04 0.000000000000D+00 0.000000000000D+00 0.478871458267D-06 0.000000000000D+00  7 -2 2 24 -13 13 -24 21 2 0.15256413D+00 0.68100948D-01 0.41984049D+06 0.41984049D+06 0.41984049D+06 0.10739153D+01  1  2 15  2  7  2        2 0.475248150987D-04 0.100000000000D+01
0.432262421382D-02 0.000000000000D+00 0.000000000000D+00 0.478871458267D-06 0.000000000000D+00  7 -2 2 24 -13 13 -24 21 2 0.15256413D+00 0.13571991D+00 0.48794124D+06 0.48794124D+06 0.48794124D+06 0.10692605D+01  1  2 12  2  7  2        2 0.509335423329D-02 0.100000000000D+01
-.431033444667D-02 0.000000000000D+00 -.934219602179D-04 0.478871458267D-06 0.000000000000D+00  7 -2 2 24 -13 13 -24 21 2 0.15256413D+00 0.13605989D+00 0.41984049D+06 0.41984049D+06 0.41984049D+06 0.10739153D+01  1  2  5  2  7  2        2 -.514532624078D-02 0.100000000000D+01
0.351710327553D-02 0.000000000000D+00 0.747843351297D-04 0.478871458267D-06 0.000000000000D+00  7 -2 2 24 -13 13 -24 21 2 0.15256413D+00 0.68100948D-01 0.41984049D+06 0.41984049D+06 0.41984049D+06 0.10739153D+01  1  2  6  2  7  2        2 0.968526306346D-02 0.100000000000D+01
0.322590513342D-03 0.000000000000D+00 0.000000000000D+00 0.478871458267D-06 0.000000000000D+00  7 -2 21 24 -13 13 -24 -2 2 0.15256413D+00 0.13571991D+00 0.48794124D+06 0.48794124D+06 0.48794124D+06 0.10692605D+01  1  2 12  4  7  2        2 0.315330549178D-03 0.100000000000D+01
-.317202570111D-03 0.000000000000D+00 -.699641928003D-05 0.478871458267D-06 0.000000000000D+00  7 -2 21 24 -13 13 -24 -2 2 0.15256413D+00 0.13605989D+00 0.41984049D+06 0.41984049D+06 0.41984049D+06 0.10739153D+01  1  2  5  4  7  2        2 -.314883263742D-03 0.100000000000D+01
  </mgrwgt>
  </event>
  <event>
  8     66 0.27011060E-05 0.92711117E+02 0.75467711E-02 0.10407951E+00
       -2 -1    0    0    0  501 0.00000000E+00 0.00000000E+00 0.41214520E+03 0.41214532E+03 0.32000000E+00 0.0000E+00 0.9000E+01
        2 -1    0    0  501    0 0.00000000E+00 0.00000000E+00 -.11987995E+03 0.11988037E+03 0.32000000E+00 0.0000E+00 0.9000E+01
       25  2    1    2    0    0 -.62701091E+02 -.34208488E+01 0.29021193E+03 0.42219303E+03 0.30013474E+03 0.0000E+00 0.0000E+00
       23  2    1    2    0    0 0.62701091E+02 0.34208488E+01 0.20533206E+01 0.10983266E+03 0.90088118E+02 0.0000E+00 0.0000E+00
       24  1    3    3    0    0 -.95496933E+02 0.10261410E+03 0.10877231E+03 0.19480233E+03 0.80419002E+02 0.0000E+00 0.9000E+01
      -11  1    4    4    0    0 0.14408411E+02 0.40734405E+02 0.17918394E+02 0.46775666E+02 0.51099893E-03 0.0000E+00 0.9000E+01
       11  1    4    4    0    0 0.48292680E+02 -.37313556E+02 -.15865074E+02 0.63056998E+02 0.51099893E-03 0.0000E+00 0.9000E+01
      -24  1    3    3    0    0 0.32795841E+02 -.10603495E+03 0.18143962E+03 0.22739070E+03 0.80419002E+02 0.0000E+00 0.9000E+01
#aMCatNLO 1  0  0  2  1 0.62438111D+02 0.00000000D+00  -5  7  0 0.00000000D+00 0.00000000D+00 0.00000000D+00 0.00000000D+00 0.00000000D+00
  <mgrwgt>
 0.6842814580D-03    9    2    0
 0.222279308797430D+03 0.000000000000000D+00 0.000000000000000D+00 0.222279308797430D+03
 0.222279308797430D+03 0.000000000000000D+00 0.000000000000000D+00 -.222279308797430D+03
 0.161619813262145D+03 -.954969328162539D+02 0.102614100857386D+03 0.210480698358061D+01
 0.441987432912939D+02 0.144084110683319D+02 0.407344051140571D+02 -.930778378667772D+01
 0.858936290717061D+02 0.482926804744708D+02 -.373135562897306D+02 -.604419642691367D+02
 0.152846431969716D+03 0.327958412734512D+02 -.106034949681712D+03 0.676449410722338D+02
 0.000000000000000D+00 -.000000000000000D+00 -.000000000000000D+00 -.000000000000000D+00
 0.237033931054237D+03 0.000000000000000D+00 0.000000000000000D+00 0.237033931054237D+03
 0.301978757768388D+03 0.000000000000000D+00 0.000000000000000D+00 -.301978757768388D+03
 0.166353520198277D+03 -.814310685261013D+02 0.120709687242770D+03 0.210480698358061D+01
 0.503915027267148D+02 0.184651236968359D+02 0.459533232193006D+02 -.930778378667772D+01
 0.867615917320041D+02 0.556973827994676D+02 -.277874846729411D+02 -.604419642691367D+02
 0.145415296374280D+03 0.455874574379992D+02 -.895786701002070D+02 0.676449410722338D+02
 0.900907777913490D+02 -.383188954082014D+02 -.492968556889226D+02 -.649448267141509D+02
0.647547884171D-05 0.000000000000D+00 0.000000000000D+00 0.284140998549D-06 0.000000000000D+00  7 -2 2 24 -11 11 -24 21 0 0.63406996D-01 0.18443111D-01 0.40583103D+05 0.40583103D+05 0.40583103D+05 0.11553530D+01  1  2  2  2  7  2        2 0.576690695336D-03 0.100000000000D+01
-.355515270623D-06 0.000000000000D+00 -.248675437849D-07 0.284140998549D-06 0.000000000000D+00  7 -2 2 24 -11 11 -24 21 2 0.63406996D-01 0.18443111D-01 0.40583103D+05 0.40583103D+05 0.40583103D+05 0.11553530D+01  1  2  3  2  7  2        2 -.422628463974D-04 0.100000000000D+01
0.385987241911D-06 0.000000000000D+00 0.000000000000D+00 0.284140998549D-06 0.000000000000D+00  7 -2 2 24 -11 11 -24 21 2 0.63406996D-01 0.18443111D-01 0.40583103D+05 0.40583103D+05 0.40583103D+05 0.11553530D+01  1  2 15  2  7  2        2 0.458852850052D-04 0.100000000000D+01
0.894105864786D-05 0.000000000000D+00 0.000000000000D+00 0.284140998549D-06 0.000000000000D+00  7 -2 2 24 -11 11 -24 21 2 0.63406996D-01 0.25501930D-01 0.55053719D+05 0.55053719D+05 0.55053719D+05 0.11436353D+01  1  2 12  2  7  2        2 0.714913328678D-03 0.100000000000D+01
-.965275121267D-05 0.000000000000D+00 0.000000000000D+00 0.284140998549D-06 0.000000000000D+00  7 -2 2 24 -11 11 -24 21 2 0.63406996D-01 0.18443111D-01 0.40583103D+05 0.40583103D+05 0.40583103D+05 0.11553530D+01  1  2  4  2  7  2        2 -.114749709935D-02 0.100000000000D+01
-.127312060993D-04 0.000000000000D+00 -.319707310155D-05 0.284140998549D-06 0.000000000000D+00  7 -2 2 24 -11 11 -24 21 2 0.63406996D-01 0.26518817D-01 0.40583103D+05 0.40583103D+05 0.40583103D+05 0.11553530D+01  1  2  5  2  7  2        2 -.993930308906D-03 0.100000000000D+01
0.132112778529D-04 0.000000000000D+00 0.299724141616D-05 0.284140998549D-06 0.000000000000D+00  7 -2 2 24 -11 11 -24 21 2 0.63406996D-01 0.18443111D-01 0.40583103D+05 0.40583103D+05 0.40583103D+05 0.11553530D+01  1  2  6  2  7  2        2 0.157052664892D-02 0.100000000000D+01
0.365395504393D-06 0.000000000000D+00 0.000000000000D+00 0.284140998549D-06 0.000000000000D+00  7 -2 21 24 -11 11 -24 -2 2 0.63406996D-01 0.25501930D-01 0.55053719D+05 0.55053719D+05 0.55053719D+05 0.11436353D+01  1  2 12  4  7  2        2 0.174935596112D-03 0.100000000000D+01
-.469471670935D-06 0.000000000000D+00 -.141842915043D-06 0.284140998549D-06 0.000000000000D+00  7 -2 21 24 -11 11 -24 -2 2 0.63406996D-01 0.26518817D-01 0.40583103D+05 0.40583103D+05 0.40583103D+05 0.11553530D+01  1  2  5  4  7  2        2 -.214979841447D-03 0.100000000000D+01
  </mgrwgt>
  </event>
  <event>
  8     66 0.27011060E-05 0.18038007E+03 0.75467711E-02 0.98086513E-01
       -2 -1    0    0    0  501 0.00000000E+00 0.00000000E+00 0.63402474E+02 0.63403281E+02 0.32000000E+00 0.0000E+00 0.9000E+01
        2 -1    0    0  501    0 0.00000000E+00 0.00000000E+00 -.14548022E+04 0.14548022E+04 0.32000000E+00 0.0000E+00 0.9000E+01
       25  2    1    2    0    0 -.41335638E+02 0.88420746E+02 -.36362089E+03 0.48170758E+03 0.30049155E+03 0.0000E+00 0.0000E+00
       23  2    1    2    0    0 0.41335638E+02 -.88420746E+02 -.10277788E+04 0.10364979E+04 0.92042283E+02 0.0000E+00 0.0000E+00
       24  1    3    3    0    0 0.47879017E+02 0.26993043E+02 -.38600207E+01 0.97484052E+02 0.80419002E+02 0.0000E+00 0.9000E+01
      -11  1    4    4    0    0 -.39563569E+01 -.82699253E+02 -.79387988E+03 0.79818550E+03 0.51099893E-03 0.0000E+00 0.9000E+01
       11  1    4    4    0    0 0.45291995E+02 -.57214933E+01 -.23389890E+03 0.23831239E+03 0.51099893E-03 0.0000E+00 0.9000E+01
      -24  1    3    3    0    0 -.89214655E+02 0.61427703E+02 -.35976087E+03 0.38422353E+03 0.80419002E+02 0.0000E+00 0.9000E+01
#aMCatNLO 1  0  0  2  1 0.31301133D+03 0.00000000D+00  -5  7  0 0.00000000D+00 0.00000000D+00 0.00000000D+00 0.00000000D+00 0.00000000D+00
  <mgrwgt>
 0.1072588804D-02    3    2    0
 0.303708240469600D+03 0.000000000000000D+00 0.000000000000000D+00 0.303708240469600D+03
 0.303708240469600D+03 0.000000000000000D+00 0.000000000000000D+00 -.303708240469600D+03
 0.234814157477624D+03 0.478790168999991D+02 0.269930432777297D+02 0.213657314297574D+03
 0.176494014505861D+03 -.395635686790219D+01 -.826992531459081D+02 -.155869554197855D+03
 0.598606103188150D+02 0.452919945519522D+02 -.572149328128317D+01 -.387194061405799D+02
 0.136247698636898D+03 -.892146545840491D+02 0.614277031494615D+02 -.190683539591394D+02
 0.000000000000000D+00 0.000000000000000D+00 -.000000000000000D+00 0.000000000000000D+00
 0.598006278655627D+03 0.000000000000000D+00 0.000000000000000D+00 0.598006278655627D+03
 0.437212869596534D+03 0.000000000000000D+00 0.000000000000000D+00 -.437212869596534D+03
 0.270488449052808D+03 0.130788883544672D+02 0.144486261780081D+03 0.213657314297574D+03
 0.158267347003207D+03 -.270113307826098D+02 -.486037148250898D+01 -.155869554197855D+03
 0.578859100888469D+02 0.371828061309561D+02 0.216569873981268D+02 -.387194061405799D+02
 0.196681698477398D+03 -.112143461335546D+03 0.138840615522100D+03 -.190683539591394D+02
 0.351895743629901D+03 0.888930976327326D+02 -.300123493217799D+03 0.160793409059093D+03
0.931194605008D-05 0.000000000000D+00 0.000000000000D+00 0.613771713401D-06 0.000000000000D+00  7 -2 2 24 -11 11 -24 21 0 0.97542916D-02 0.22381578D+00 0.32536970D+05 0.32536970D+05 0.32536970D+05 0.11640789D+01  1  2  2  2  7  2        2 0.103627849661D-02 0.100000000000D+01
-.346593514639D-06 0.000000000000D+00 -.357603247240D-07 0.613771713401D-06 0.000000000000D+00  7 -2 2 24 -11 11 -24 21 2 0.97542916D-02 0.22381578D+00 0.32536970D+05 0.32536970D+05 0.32536970D+05 0.11640789D+01  1  2  3  2  7  2        2 -.522662443539D-04 0.100000000000D+01
0.587378311912D-06 0.000000000000D+00 0.000000000000D+00 0.613771713401D-06 0.000000000000D+00  7 -2 2 24 -11 11 -24 21 2 0.97542916D-02 0.22381578D+00 0.32536970D+05 0.32536970D+05 0.32536970D+05 0.11640789D+01  1  2 15  2  7  2        2 0.885765517294D-04 0.100000000000D+01
  </mgrwgt>
  </event>
  <event>
  8     66 0.27011060E-05 0.34639957E+03 0.75467711E-02 0.87338694E-01
       -2 -1    0    0    0  501 0.00000000E+00 0.00000000E+00 0.50214701E+03 0.50214711E+03 0.32000000E+00 0.0000E+00 0.9000E+01
        2 -1    0    0  501    0 0.00000000E+00 0.00000000E+00 -.17581698E+04 0.17581699E+04 0.32000000E+00 0.0000E+00 0.9000E+01
       25  2    1    2    0    0 -.27072016E+03 -.84342830E+03 -.37380502E+03 0.10066156E+04 0.29813443E+03 0.0000E+00 0.0000E+00
       23  2    1    2    0    0 0.27072016E+03 0.84342830E+03 -.88221780E+03 0.12537013E+04 0.93798134E+02 0.0000E+00 0.0000E+00
       24  1    3    3    0    0 -.25573984E+03 -.60058658E+03 -.36049548E+03 0.75002087E+03 0.80419002E+02 0.0000E+00 0.9000E+01
      -13  1    4    4    0    0 0.23397627E+03 0.67099075E+03 -.65804155E+03 0.96849996E+03 0.10565837E+00 0.0000E+00 0.9000E+01
       13  1    4    4    0    0 0.36743891E+02 0.17243755E+03 -.22417625E+03 0.28520137E+03 0.10565837E+00 0.0000E+00 0.9000E+01
      -24  1    3    3    0    0 -.14980326E+02 -.24284172E+03 -.13309540E+02 0.25659476E+03 0.80419002E+02 0.0000E+00 0.9000E+01
#aMCatNLO 1  0  0  1  2 0.19683880D+03 0.00000000D+00  -5  7  0 0.00000000D+00 0.00000000D+00 0.00000000D+00 0.00000000D+00 0.00000000D+00
  <mgrwgt>
 0.1457647303D-02    9    2    0
 0.939606231139688D+03 0.000000000000000D+00 0.000000000000000D+00 0.939606231139688D+03
 0.939606231139688D+03 0.000000000000000D+00 0.000000000000000D+00 -.939606231139688D+03
 0.661178224625439D+03 -.255739835215455D+03 -.600586580642058D+03 0.676928696476187D+02
 0.725092554329023D+03 0.233976519900940D+03 0.670991383957436D+03 -.144169217010136D+03
 0.193205270038107D+03 0.367436410969209D+02 0.172436916323359D+03 -.790170304322390D+02
 0.299736413286807D+03 -.149803257824059D+02 -.242841719638737D+03 0.155493377794756D+03
 0.000000000000000D+00 0.000000000000000D+00 0.000000000000000D+00 0.000000000000000D+00
 0.107224192834523D+04 0.000000000000000D+00 0.000000000000000D+00 0.107224192834523D+04
 0.102072106720370D+04 0.000000000000000D+00 0.000000000000000D+00 -.102072106720370D+04
 0.696864025232916D+03 -.326410347817743D+03 -.606651641344372D+03 0.676928696476187D+02
 0.698631483546269D+03 0.159888024074436D+03 0.664632986261077D+03 -.144169217010136D+03
 0.188883202222689D+03 0.168603214160259D+02 0.170730496822671D+03 -.790170304322390D+02
 0.305114604649439D+03 -.464558792786456D+02 -.245543003888195D+03 0.155493377794756D+03
 0.203469679897622D+03 0.196117881605927D+03 0.168311621488186D+02 0.515208611415280D+02
0.536357459696D-03 0.000000000000D+00 0.000000000000D+00 0.294068013095D-06 0.000000000000D+00  7 -2 2 24 -13 13 -24 21 0 0.77253396D-01 0.27048768D+00 0.81078942D+06 0.81078942D+06 0.81078942D+06 0.10539820D+01  1  2  2  1  7  1       -2 0.909307128651D-03 0.100000000000D+01
-.297319532733D-04 0.000000000000D+00 -.205975387140D-05 0.294068013095D-06 0.000000000000D+00  7 -2 2 24 -13 13 -24 21 2 0.77253396D-01 0.27048768D+00 0.81078942D+06 0.81078942D+06 0.81078942D+06 0.10539820D+01  1  2  3  1  7  1       -2 -.559945944230D-04 0.100000000000D+01
0.326911511807D-04 0.000000000000D+00 0.000000000000D+00 0.294068013095D-06 0.000000000000D+00  7 -2 2 24 -13 13 -24 21 2 0.77253396D-01 0.27048768D+00 0.81078942D+06 0.81078942D+06 0.81078942D+06 0.10539820D+01  1  2 15  1  7  1       -2 0.615676923327D-04 0.100000000000D+01
0.511136913979D-03 0.000000000000D+00 0.000000000000D+00 0.294068013095D-06 0.000000000000D+00  7 -2 2 24 -13 13 -24 21 2 0.91108852D-01 0.27048768D+00 0.10080988D+07 0.10080988D+07 0.10080988D+07 0.10476308D+01  1  2 12  1  7  1       -2 0.641961117181D-03 0.100000000000D+01
-.475775622382D-03 0.000000000000D+00 0.000000000000D+00 0.294068013095D-06 0.000000000000D+00  7 -2 2 24 -13 13 -24 21 2 0.77253396D-01 0.27048768D+00 0.81078942D+06 0.81078942D+06 0.81078942D+06 0.10539820D+01  1  2  4  1  7  1       -2 -.896034739686D-03 0.100000000000D+01
-.125314498466D-02 0.000000000000D+00 -.344161067047D-03 0.294068013095D-06 0.000000000000D+00  7 -2 2 24 -13 13 -24 21 2 0.95065919D-01 0.27048768D+00 0.81078942D+06 0.81078942D+06 0.81078942D+06 0.10539820D+01  1  2  5  1  7  1       -2 -.145835790289D-02 0.100000000000D+01
0.130366768891D-02 0.000000000000D+00 0.336883959897D-03 0.294068013095D-06 0.000000000000D+00  7 -2 2 24 -13 13 -24 21 2 0.77253396D-01 0.27048768D+00 0.81078942D+06 0.81078942D+06 0.81078942D+06 0.10539820D+01  1  2  6  1  7  1       -2 0.245521519665D-02 0.100000000000D+01
0.125841231374D-04 0.000000000000D+00 0.000000000000D+00 0.294068013095D-06 0.000000000000D+00  7 21 2 24 -13 13 -24 2 2 0.91108852D-01 0.27048768D+00 0.10080988D+07 0.10080988D+07 0.10080988D+07 0.10476308D+01  1  2 12  3  7  1       -2 0.142731915671D-03 0.100000000000D+01
-.326606343981D-04 0.000000000000D+00 -.101290991862D-04 0.294068013095D-06 0.000000000000D+00  7 21 2 24 -13 13 -24 2 2 0.95065919D-01 0.27048768D+00 0.81078942D+06 0.81078942D+06 0.81078942D+06 0.10539820D+01  1  2  5  3  7  1       -2 -.342748510261D-03 0.100000000000D+01
  </mgrwgt>
  </event>
  <event>
  8     66 0.27011060E-05 0.17191732E+03 0.75467711E-02 0.97839193E-01
       -2 -1    0    0    0  501 0.00000000E+00 0.00000000E+00 0.48962999E+02 0.48964045E+02 0.32000000E+00 0.0000E+00 0.9000E+01
        2 -1    0    0  501    0 0.00000000E+00 0.00000000E+00 -.25731822E+04 0.25731823E+04 0.32000000E+00 0.0000E+00 0.9000E+01
       25  2    1    2    0    0 -.63956728E+02 -.26853277E+03 -.12517562E+04 0.13164831E+04 0.30005624E+03 0.0000E+00 0.0000E+00
       23  2    1    2    0    0 0.63956728E+02 0.26853277E+03 -.12724630E+04 0.13056632E+04 0.96922750E+02 0.0000E+00 0.0000E+00
       24  1    3    3    0    0 0.48398006E+02 0.76597748E+01 -.21526445E+03 0.23496178E+03 0.80419002E+02 0.0000E+00 0.9000E+01
      -13  1    4    4    0    0 0.62787183E+02 0.18192680E+03 -.67308096E+03 0.70005542E+03 0.10565837E+00 0.0000E+00 0.9000E+01
       13  1    4    4    0    0 0.11695453E+01 0.86605963E+02 -.59938207E+03 0.60560782E+03 0.10565837E+00 0.0000E+00 0.9000E+01
      -24  1    3    3    0    0 -.11235473E+03 -.27619254E+03 -.10364918E+04 0.10815213E+04 0.80419002E+02 0.0000E+00 0.9000E+01
#aMCatNLO 1  0  0  2  1 0.76072370D+02 0.00000000D+00  -5  7  0 0.00000000D+00 0.00000000D+00 0.00000000D+00 0.00000000D+00 0.00000000D+00
  <mgrwgt>
 0.1164784732D-02    9    2    0
 0.354953683300202D+03 0.000000000000000D+00 0.000000000000000D+00 0.354953683300202D+03
 0.354953683300202D+03 0.000000000000000D+00 0.000000000000000D+00 -.354953683300202D+03
 0.102449281092523D+03 0.483980058795504D+02 0.765977390403040D+01 0.403435265268963D+02
 0.192481278982522D+03 0.627872529750342D+02 0.181926915874392D+03 0.306608920751772D+01
 0.105676453037585D+03 0.116947587541347D+01 0.866058526115281D+02 -.605439620954228D+02
 0.309300353487775D+03 -.112354734729998D+03 -.276192542389950D+03 0.171343463610089D+02
 0.000000000000000D+00 -.000000000000000D+00 0.000000000000000D+00 -.000000000000000D+00
 0.380075065032648D+03 0.000000000000000D+00 0.000000000000000D+00 0.380075065032648D+03
 0.419644885325864D+03 0.000000000000000D+00 0.000000000000000D+00 -.419644885325864D+03
 0.104126620216410D+03 0.523501821701090D+02 -.264487758732495D+01 0.403435265268963D+02
 0.177790470099071D+03 0.698712313990007D+02 0.163456603958994D+03 0.306608920751772D+01
 0.976612580168795D+02 0.505969964069228D+01 0.764627321691653D+02 -.605439620954228D+02
 0.334393271961075D+03 -.100039693775254D+03 -.308301991921228D+03 0.171343463610089D+02
 0.857483300650766D+02 -.272414194345477D+02 0.710275333803937D+02 -.395698202932161D+02
0.155940661509D-04 0.000000000000D+00 0.000000000000D+00 0.119515852279D-06 0.000000000000D+00  7 -2 2 24 -13 13 -24 21 0 0.75328511D-02 0.39587427D+00 0.11630399D+06 0.11630399D+06 0.11630399D+06 0.11163787D+01  1  2  2  2  7  2        2 0.624006907604D-03 0.100000000000D+01
-.864651159862D-06 0.000000000000D+00 -.598853200313D-07 0.119515852279D-06 0.000000000000D+00  7 -2 2 24 -13 13 -24 21 2 0.75328511D-02 0.39587427D+00 0.11630399D+06 0.11630399D+06 0.11630399D+06 0.11163787D+01  1  2  3  2  7  2        2 -.431215150274D-04 0.100000000000D+01
0.994344937401D-06 0.000000000000D+00 0.000000000000D+00 0.119515852279D-06 0.000000000000D+00  7 -2 2 24 -13 13 -24 21 2 0.75328511D-02 0.39587427D+00 0.11630399D+06 0.11630399D+06 0.11630399D+06 0.11163787D+01  1  2 15  2  7  2        2 0.495895479599D-04 0.100000000000D+01
0.152612961305D-04 0.000000000000D+00 0.000000000000D+00 0.119515852279D-06 0.000000000000D+00  7 -2 2 24 -13 13 -24 21 2 0.75328511D-02 0.48011350D+00 0.14455731D+06 0.14455731D+06 0.14455731D+06 0.11088208D+01  1  2 12  2  7  2        2 0.346349946436D-03 0.100000000000D+01
-.152365830521D-04 0.000000000000D+00 0.000000000000D+00 0.119515852279D-06 0.000000000000D+00  7 -2 2 24 -13 13 -24 21 2 0.75328511D-02 0.39587427D+00 0.11630399D+06 0.11630399D+06 0.11630399D+06 0.11163787D+01  1  2  4  2  7  2        2 -.759872391951D-03 0.100000000000D+01
-.343425522561D-04 0.000000000000D+00 -.802968871271D-05 0.119515852279D-06 0.000000000000D+00  7 -2 2 24 -13 13 -24 21 2 0.75328511D-02 0.47780291D+00 0.11630399D+06 0.11630399D+06 0.11630399D+06 0.11163787D+01  1  2  5  2  7  2        2 -.815218526377D-03 0.100000000000D+01
0.353654386202D-04 0.000000000000D+00 0.788969908027D-05 0.119515852279D-06 0.000000000000D+00  7 -2 2 24 -13 13 -24 21 2 0.75328511D-02 0.39587427D+00 0.11630399D+06 0.11630399D+06 0.11630399D+06 0.11163787D+01  1  2  6  2  7  2        2 0.176373011881D-02 0.100000000000D+01
0.424792495386D-06 0.000000000000D+00 0.000000000000D+00 0.119515852279D-06 0.000000000000D+00  7 -2 21 24 -13 13 -24 -2 2 0.75328511D-02 0.48011350D+00 0.14455731D+06 0.14455731D+06 0.14455731D+06 0.11088208D+01  1  2 12  4  7  2        2 0.579842251569D-06 0.100000000000D+01
-.854188374666D-06 0.000000000000D+00 -.219164916262D-06 0.119515852279D-06 0.000000000000D+00  7 -2 21 24 -13 13 -24 -2 2 0.75328511D-02 0.47780291D+00 0.11630399D+06 0.11630399D+06 0.11630399D+06 0.11163787D+01  1  2  5  4  7  2        2 -.125919733728D-05 0.100000000000D+01
  </mgrwgt>
  </event>
  <event>
  8     66 0.27011060E-05 0.15465338E+03 0.75467711E-02 0.10053424E+00
       -2 -1    0    0    0  501 0.00000000E+00 0.00000000E+00 0.47699270E+02 0.47700343E+02 0.32000000E+00 0.0000E+00 0.9000E+01
        2 -1    0    0  501    0 0.00000000E+00 0.00000000E+00 -.17359695E+04 0.17359695E+04 0.32000000E+00 0.0000E+00 0.9000E+01
       25  2    1    2    0    0 -.50942007E+02 0.24824984E+02 -.47067293E+03 0.56109218E+03 0.30013340E+03 0.0000E+00 0.0000E+00
       23  2    1    2    0    0 0.50942007E+02 -.24824984E+02 -.12175973E+04 0.12225777E+04 0.94560364E+02 0.0000E+00 0.0000E+00
       24  1    3    3    0    0 0.19465365E+02 0.92636778E+02 -.73703053E+02 0.14442932E+03 0.80419002E+02 0.0000E+00 0.9000E+01
      -11  1    4    4    0    0 0.10878043E+02 -.12564294E+02 -.10389532E+04 0.10390862E+04 0.51099893E-03 0.0000E+00 0.9000E+01
       11  1    4    4    0    0 0.40063964E+02 -.12260690E+02 -.17864403E+03 0.18349152E+03 0.51099893E-03 0.0000E+00 0.9000E+01
      -24  1    3    3    0    0 -.70407372E+02 -.67811794E+02 -.39696988E+03 0.41666286E+03 0.80419002E+02 0.0000E+00 0.9000E+01
#aMCatNLO 1  0  0  2  2 0.23231975D+03 0.00000000D+00  -5  7  0 0.00000000D+00 0.00000000D+00 0.00000000D+00 0.00000000D+00 0.00000000D+00
  <mgrwgt>
 0.9099469623D-03    5    2    0
 0.287759379253136D+03 0.000000000000000D+00 0.000000000000000D+00 0.287759379253136D+03
 0.287759379253136D+03 0.000000000000000D+00 0.000000000000000D+00 -.287759379253136D+03
 0.231414801782661D+03 0.194653653016455D+02 0.926367783745634D+02 0.195256552708976D+03
 0.172631795417197D+03 0.108780426214157D+02 -.125642939177844D+02 -.171829984275269D+03
 0.446360525091493D+02 0.400639643465938D+02 -.122606901308139D+02 -.153925768456930D+02
 0.126836108797265D+03 -.704073722696549D+02 -.678117943259651D+02 -.803399158801378D+01
 0.000000000000000D+00 0.000000000000000D+00 0.000000000000000D+00 -.000000000000000D+00
 0.340247329310379D+03 0.000000000000000D+00 0.000000000000000D+00 0.340247329310379D+03
 0.761184635676058D+03 0.000000000000000D+00 0.000000000000000D+00 -.761184635676058D+03
 0.215300440152123D+03 -.341423873953995D+02 0.244180175787615D+02 0.195256552708976D+03
 0.187441067578515D+03 -.323322514997083D+02 -.675517270829820D+02 -.171829984275269D+03
 0.420344466400162D+02 0.296631312243691D+02 -.254963120538574D+02 -.153925768456930D+02
 0.175864285997223D+03 -.106732723146780D+03 -.114037765340168D+03 -.803399158801378D+01
 0.480791724618560D+03 0.143544230817519D+03 0.182667786898246D+03 -.420937306365679D+03
0.719958500055D-05 0.000000000000D+00 0.000000000000D+00 0.212504894425D-06 0.000000000000D+00  7 -2 2 24 -11 11 -24 21 0 0.73384341D-02 0.26707231D+00 0.23917669D+05 0.23917669D+05 0.23917669D+05 0.11765774D+01  1  2  2  2  7  2        2 0.877405814090D-03 0.100000000000D+01
-.212471742094D-06 0.000000000000D+00 -.276483020964D-07 0.212504894425D-06 0.000000000000D+00  7 -2 2 24 -11 11 -24 21 2 0.73384341D-02 0.26707231D+00 0.23917669D+05 0.23917669D+05 0.23917669D+05 0.11765774D+01  1  2  3  2  7  2        2 -.358455512929D-04 0.100000000000D+01
0.433614691245D-06 0.000000000000D+00 0.000000000000D+00 0.212504894425D-06 0.000000000000D+00  7 -2 2 24 -11 11 -24 21 2 0.73384341D-02 0.26707231D+00 0.23917669D+05 0.23917669D+05 0.23917669D+05 0.11765774D+01  1  2 15  2  7  2        2 0.731539992247D-04 0.100000000000D+01
-.281175686942D-05 0.000000000000D+00 -.184676087902D-05 0.212504894425D-06 0.000000000000D+00  7 -2 2 24 -11 11 -24 21 2 0.73384341D-02 0.71918616D+00 0.23917669D+05 0.23917669D+05 0.23917669D+05 0.11765774D+01  1  2  5  2  7  2        2 -.476375091086D-05 0.100000000000D+01
-.202742426594D-06 0.000000000000D+00 -.203963080143D-06 0.212504894425D-06 0.000000000000D+00  7 -2 21 24 -11 11 -24 -2 2 0.73384341D-02 0.71918616D+00 0.23917669D+05 0.23917669D+05 0.23917669D+05 0.11765774D+01  1  2  5  4  7  2        2 -.354880814534D-08 0.100000000000D+01
  </mgrwgt>
  </event>
  <event>
  8     66 0.27011060E-05 0.26813896E+03 0.75467711E-02 0.90791316E-01
       -2 -1    0    0    0  501 0.00000000E+00 0.00000000E+00 0.13444727E+04 0.13444727E+04 0.32000000E+00 0.0000E+00 0.9000E+01
        2 -1    0    0  501    0 0.00000000E+00 0.00000000E+00 -.53158894E+03 0.53158903E+03 0.32000000E+00 0.0000E+00 0.9000E+01
       25  2    1    2    0    0 0.14952948E+03 -.57205260E+03 0.10431034E+04 0.12353126E+04 0.29720267E+03 0.0000E+00 0.0000E+00
       23  2    1    2    0    0 -.14952948E+03 0.57205260E+03 -.23021959E+03 0.64074915E+03 0.89191765E+02 0.0000E+00 0.0000E+00
       24  1    3    3    0    0 0.35841179E+01 -.58718205E+02 0.67414245E+02 0.12030199E+03 0.80419002E+02 0.0000E+00 0.9000E+01
      -13  1    4    4    0    0 -.52344680E+02 0.26348906E+03 -.14904226E+03 0.30721337E+03 0.10565837E+00 0.0000E+00 0.9000E+01
       13  1    4    4    0    0 -.97184805E+02 0.30856354E+03 -.81177327E+02 0.33353578E+03 0.10565837E+00 0.0000E+00 0.9000E+01
      -24  1    3    3    0    0 0.14594537E+03 -.51333439E+03 0.97568911E+03 0.11150106E+04 0.80419002E+02 0.0000E+00 0.9000E+01
#aMCatNLO 1  0  0  1  2 0.18363034D+03 0.00000000D+00  -5  7  0 0.00000000D+00 0.00000000D+00 0.00000000D+00 0.00000000D+00 0.00000000D+00
  <mgrwgt>
 0.1027508215D-02    9    2    0
 0.845403418894935D+03 0.000000000000000D+00 0.000000000000000D+00 0.845403418894935D+03
 0.845403418894935D+03 0.000000000000000D+00 0.000000000000000D+00 -.845403418894935D+03
 0.101072472429596D+03 0.358411789415203D+01 -.587182045351133D+02 0.169633511946862D+02
 0.412528083918391D+03 -.523446170622506D+02 0.263488992669391D+03 -.313070298540208D+03
 0.409107316071535D+03 -.971848676153703D+02 0.308563604934813D+03 -.250424438263262D+03
 0.768098965370349D+03 0.145945366783469D+03 -.513334393069091D+03 0.546531385608783D+03
 0.000000000000000D+00 0.000000000000000D+00 -.000000000000000D+00 0.000000000000000D+00
 0.107666108693779D+04 0.000000000000000D+00 0.000000000000000D+00 0.107666108693779D+04
 0.887628379352408D+03 0.000000000000000D+00 0.000000000000000D+00 -.887628379352408D+03
 0.958433478917284D+02 -.138529481976042D+01 -.492854649489321D+02 0.169633511946862D+02
 0.442921309181397D+03 -.739329337512902D+02 0.304467068179524D+03 -.313070298540208D+03
 0.446081338475242D+03 -.118766604246605D+03 0.349529190443550D+03 -.250424438263262D+03
 0.715903211791586D+03 0.108494748165684D+03 -.442247133245820D+03 0.546531385608783D+03
 0.263540258950242D+03 0.855900846519726D+02 -.162463660428323D+03 0.189032707585379D+03
0.976951469382D-03 0.000000000000D+00 0.000000000000D+00 0.166639746332D-06 0.000000000000D+00  7 -2 2 24 -13 13 -24 21 0 0.20684197D+00 0.81782924D-01 0.37913968D+06 0.37913968D+06 0.37913968D+06 0.10771085D+01  1  2  2  1  7  1       -2 0.769166622593D-03 0.100000000000D+01
-.476444253159D-04 0.000000000000D+00 -.375175087966D-05 0.166639746332D-06 0.000000000000D+00  7 -2 2 24 -13 13 -24 21 2 0.20684197D+00 0.81782924D-01 0.37913968D+06 0.37913968D+06 0.37913968D+06 0.10771085D+01  1  2  3  1  7  1       -2 -.435189523994D-04 0.100000000000D+01
0.592143277408D-04 0.000000000000D+00 0.000000000000D+00 0.166639746332D-06 0.000000000000D+00  7 -2 2 24 -13 13 -24 21 2 0.20684197D+00 0.81782924D-01 0.37913968D+06 0.37913968D+06 0.37913968D+06 0.10771085D+01  1  2 15  1  7  1       -2 0.540870310268D-04 0.100000000000D+01
0.131252572691D-02 0.000000000000D+00 0.000000000000D+00 0.166639746332D-06 0.000000000000D+00  7 -2 2 24 -13 13 -24 21 2 0.26756386D+00 0.81782924D-01 0.50611787D+06 0.50611787D+06 0.50611787D+06 0.10681373D+01  1  2 12  1  7  1       -2 0.464048176247D-03 0.100000000000D+01
-.141864806299D-02 0.000000000000D+00 0.000000000000D+00 0.166639746332D-06 0.000000000000D+00  7 -2 2 24 -13 13 -24 21 2 0.20684197D+00 0.81782924D-01 0.37913968D+06 0.37913968D+06 0.37913968D+06 0.10771085D+01  1  2  4  1  7  1       -2 -.129580905039D-02 0.100000000000D+01
-.191480769642D-02 0.000000000000D+00 -.443592082762D-03 0.166639746332D-06 0.000000000000D+00  7 -2 2 24 -13 13 -24 21 2 0.26879287D+00 0.81782924D-01 0.37913968D+06 0.37913968D+06 0.37913968D+06 0.10771085D+01  1  2  5  1  7  1       -2 -.688046808859D-03 0.100000000000D+01
0.197756655540D-02 0.000000000000D+00 0.428792283251D-03 0.166639746332D-06 0.000000000000D+00  7 -2 2 24 -13 13 -24 21 2 0.20684197D+00 0.81782924D-01 0.37913968D+06 0.37913968D+06 0.37913968D+06 0.10771085D+01  1  2  6  1  7  1       -2 0.180633146943D-02 0.100000000000D+01
0.453846731570D-04 0.000000000000D+00 0.000000000000D+00 0.166639746332D-06 0.000000000000D+00  7 21 2 24 -13 13 -24 2 2 0.26756386D+00 0.81782924D-01 0.50611787D+06 0.50611787D+06 0.50611787D+06 0.10681373D+01  1  2 12  3  7  1       -2 0.115583664205D-03 0.100000000000D+01
-.590501104461D-04 0.000000000000D+00 -.155384641962D-04 0.166639746332D-06 0.000000000000D+00  7 21 2 24 -13 13 -24 2 2 0.26879287D+00 0.81782924D-01 0.37913968D+06 0.37913968D+06 0.37913968D+06 0.10771085D+01  1  2  5  3  7  1       -2 -.154333936439D-03 0.100000000000D+01
  </mgrwgt>
  </event>
  <event>
  8     66 0.27011060E-05 0.38927027E+03 0.75467711E-02 0.91992450E-01
       -2 -1    0    0    0  501 0.00000000E+00 0.00000000E+00 0.23913534E+03 0.23913555E+03 0.32000000E+00 0.0000E+00 0.9000E+01
        2 -1    0    0  501    0 0.00000000E+00 0.00000000E+00 -.77770843E+03 0.77770850E+03 0.32000000E+00 0.0000E+00 0.9000E+01
       25  2    1    2    0    0 0.16082500E+02 0.35279129E+03 -.43086957E+03 0.63643525E+03 0.30770261E+03 0.0000E+00 0.0000E+00
       23  2    1    2    0    0 -.16082500E+02 -.35279129E+03 -.10770352E+03 0.38040880E+03 0.91599488E+02 0.0000E+00 0.0000E+00
       24  1    3    3    0    0 0.91061558E+02 0.14136813E+03 -.32717649E+03 0.37654857E+03 0.80419002E+02 0.0000E+00 0.9000E+01
      -13  1    4    4    0    0 -.23116131E+01 -.26183425E+03 -.11919960E+03 0.28769962E+03 0.10565837E+00 0.0000E+00 0.9000E+01
       13  1    4    4    0    0 -.13770887E+02 -.90957042E+02 0.11496079E+02 0.92709179E+02 0.10565837E+00 0.0000E+00 0.9000E+01
      -24  1    3    3    0    0 -.74979058E+02 0.21142316E+03 -.10369308E+03 0.25988668E+03 0.80419002E+02 0.0000E+00 0.9000E+01
#aMCatNLO 1  0  0  1  2 0.39369372D+03 0.00000000D+00  -5  7  0 0.00000000D+00 0.00000000D+00 0.00000000D+00 0.00000000D+00 0.00000000D+00
  <mgrwgt>
 0.1235047865D-02    3    2    0
 0.431251333360814D+03 0.000000000000000D+00 0.000000000000000D+00 0.431251333360814D+03
 0.431251333360814D+03 0.000000000000000D+00 0.000000000000000D+00 -.431251333360814D+03
 0.239631401080403D+03 0.910615580499670D+02 0.141368130580298D+03 -.150594942581517D+03
 0.264750631637931D+03 -.231159793071579D+01 -.261834478207079D+03 0.391185312827179D+02
 0.116477420457520D+03 -.137709018444349D+02 -.909568148581311D+02 0.714437510891781D+02
 0.241643213545775D+03 -.749790582748163D+02 0.211423162484912D+03 0.400326602096211D+02
 0.000000000000000D+00 -.000000000000000D+00 -.000000000000000D+00 -.000000000000000D+00
 0.529839095360313D+03 0.000000000000000D+00 0.000000000000000D+00 0.529839095360313D+03
 0.116864912649201D+04 0.000000000000000D+00 0.000000000000000D+00 -.116864912649201D+04
 0.332605869526292D+03 0.197084071519391D+03 0.206490872706711D+03 -.150594942581517D+03
 0.227575210967780D+03 0.889051507156439D+02 -.205805955534677D+03 0.391185312827179D+02
 0.100951927476438D+03 0.265137967483983D+02 -.662125416631940D+02 0.714437510891781D+02
 0.286973311685362D+03 0.229615260689098D+02 0.271581700603007D+03 0.400326602096211D+02
 0.750381902196446D+03 -.335464545052343D+03 -.206054076111847D+03 -.638810031131692D+03
0.398590368422D-04 0.000000000000D+00 0.000000000000D+00 0.195317258461D-07 0.000000000000D+00  7 -2 2 24 -13 13 -24 21 0 0.36790074D-01 0.11964747D+00 0.15153134D+06 0.15153134D+06 0.15153134D+06 0.11072040D+01  1  2  2  1  7  1       -2 0.122351161229D-02 0.100000000000D+01
-.218614985010D-05 0.000000000000D+00 -.153069196600D-06 0.195317258461D-07 0.000000000000D+00  7 -2 2 24 -13 13 -24 21 2 0.36790074D-01 0.11964747D+00 0.15153134D+06 0.15153134D+06 0.15153134D+06 0.11072040D+01  1  2  3  1  7  1       -2 -.822652615219D-04 0.100000000000D+01
0.249271883361D-05 0.000000000000D+00 0.000000000000D+00 0.195317258461D-07 0.000000000000D+00  7 -2 2 24 -13 13 -24 21 2 0.36790074D-01 0.11964747D+00 0.15153134D+06 0.15153134D+06 0.15153134D+06 0.11072040D+01  1  2 15  1  7  1       -2 0.938015144468D-04 0.100000000000D+01
  </mgrwgt>
  </event>
  <event>
  8     66 0.27011060E-05 0.14646113E+03 0.75467711E-02 0.95493244E-01
       -2 -1    0    0    0  501 0.00000000E+00 0.00000000E+00 0.10668395E+04 0.10668395E+04 0.32000000E+00 0.0000E+00 0.9000E+01
        2 -1    0    0  501    0 0.00000000E+00 0.00000000E+00 -.27079831E+03 0.27079850E+03 0.32000000E+00 0.0000E+00 0.9000E+01
       25  2    1    2    0    0 0.31996744E+03 -.27201936E+03 0.10950327E+03 0.52768101E+03 0.30013760E+03 0.0000E+00 0.0000E+00
       23  2    1    2    0    0 -.31996744E+03 0.27201936E+03 0.68653790E+03 0.80995702E+03 0.91227143E+02 0.0000E+00 0.0000E+00
       24  1    3    3    0    0 0.98808096E+02 0.70721448E+01 0.10064554E+03 0.16251091E+03 0.80419002E+02 0.0000E+00 0.9000E+01
      -13  1    4    4    0    0 -.11637773E+03 0.10814484E+03 0.18080126E+03 0.24068276E+03 0.10565837E+00 0.0000E+00 0.9000E+01
       13  1    4    4    0    0 -.20358971E+03 0.16387453E+03 0.50573664E+03 0.56927427E+03 0.10565837E+00 0.0000E+00 0.9000E+01
      -24  1    3    3    0    0 0.22115935E+03 -.27909151E+03 0.88577356E+01 0.36517010E+03 0.80419002E+02 0.0000E+00 0.9000E+01
#aMCatNLO 1  0  0  2  1 0.14066155D+02 0.00000000D+00  -5  7  0 0.00000000D+00 0.00000000D+00 0.00000000D+00 0.00000000D+00 0.00000000D+00
  <mgrwgt>
 0.5234685866D-03    9    2    0
 0.537492780679931D+03 0.000000000000000D+00 0.000000000000000D+00 0.537492780679931D+03
 0.537492780679931D+03 0.000000000000000D+00 0.000000000000000D+00 -.537492780679931D+03
 0.127688021351183D+03 0.988080956220288D+02 0.707214484721834D+01 0.489487987774335D+01
 0.165603078365744D+03 -.116377613746281D+03 0.108144762323652D+03 0.467476305805242D+02
 0.333861196266682D+03 -.203589830060183D+03 0.163874601739271D+03 0.207748873338657D+03
 0.447833265376253D+03 0.221159348184435D+03 -.279091508910141D+03 -.259391383796924D+03
 0.000000000000000D+00 -.000000000000000D+00 0.000000000000000D+00 -.000000000000000D+00
 0.540358403249698D+03 0.000000000000000D+00 0.000000000000000D+00 0.540358403249698D+03
 0.555081703940491D+03 0.000000000000000D+00 0.000000000000000D+00 -.555081703940491D+03
 0.128684008565168D+03 0.100157293620471D+03 0.607575440869938D+01 0.489487987774335D+01
 0.163551645767685D+03 -.114645385409502D+03 0.106865501789548D+03 0.467476305805242D+02
 0.330472985302592D+03 -.200093667283133D+03 0.161292665532295D+03 0.207748873338657D+03
 0.452368945405387D+03 0.225896803441845D+03 -.282590146713372D+03 -.259391383796924D+03
 0.203625221493560D+02 -.113150443696812D+02 0.835622498282922D+01 -.147233006907928D+02
0.763069226201D-04 0.000000000000D+00 0.000000000000D+00 0.699986119213D-05 0.000000000000D+00  7 -2 2 24 -13 13 -24 21 0 0.16412917D+00 0.41661297D-01 0.20833500D+06 0.20833500D+06 0.20833500D+06 0.10964661D+01  1  2  2  2  7  2        2 0.262302665956D-03 0.100000000000D+01
-.410154708054D-05 0.000000000000D+00 -.293038674935D-06 0.699986119213D-05 0.000000000000D+00  7 -2 2 24 -13 13 -24 21 2 0.16412917D+00 0.41661297D-01 0.20833500D+06 0.20833500D+06 0.20833500D+06 0.10964661D+01  1  2  3  2  7  2        2 -.169502800562D-04 0.100000000000D+01
0.438069835074D-05 0.000000000000D+00 0.000000000000D+00 0.699986119213D-05 0.000000000000D+00  7 -2 2 24 -13 13 -24 21 2 0.16412917D+00 0.41661297D-01 0.20833500D+06 0.20833500D+06 0.20833500D+06 0.10964661D+01  1  2 15  2  7  2        2 0.181039160173D-04 0.100000000000D+01
0.283068308890D-03 0.000000000000D+00 0.000000000000D+00 0.699986119213D-05 0.000000000000D+00  7 -2 2 24 -13 13 -24 21 2 0.16412917D+00 0.43133495D-01 0.21483482D+06 0.21483482D+06 0.21483482D+06 0.10954467D+01  1  2 12  2  7  2        2 0.112241102150D-02 0.100000000000D+01
-.287807911040D-03 0.000000000000D+00 0.000000000000D+00 0.699986119213D-05 0.000000000000D+00  7 -2 2 24 -13 13 -24 21 2 0.16412917D+00 0.41661297D-01 0.20833500D+06 0.20833500D+06 0.20833500D+06 0.10964661D+01  1  2  4  2  7  2        2 -.118941087320D-02 0.100000000000D+01
-.269464382778D-02 0.000000000000D+00 -.294825734798D-03 0.699986119213D-05 0.000000000000D+00  7 -2 2 24 -13 13 -24 21 2 0.16412917D+00 0.43201077D-01 0.20833500D+06 0.20833500D+06 0.20833500D+06 0.10964661D+01  1  2  5  2  7  2        2 -.106970616438D-01 0.100000000000D+01
0.270375710850D-02 0.000000000000D+00 0.294631673164D-03 0.699986119213D-05 0.000000000000D+00  7 -2 2 24 -13 13 -24 21 2 0.16412917D+00 0.41661297D-01 0.20833500D+06 0.20833500D+06 0.20833500D+06 0.10964661D+01  1  2  6  2  7  2        2 0.111736959965D-01 0.100000000000D+01
0.690489837097D-05 0.000000000000D+00 0.000000000000D+00 0.699986119213D-05 0.000000000000D+00  7 -2 21 24 -13 13 -24 -2 2 0.16412917D+00 0.43133495D-01 0.21483482D+06 0.21483482D+06 0.21483482D+06 0.10954467D+01  1  2 12  4  7  2        2 0.998660717258D-04 0.100000000000D+01
-.172393799034D-04 0.000000000000D+00 -.190141091874D-05 0.699986119213D-05 0.000000000000D+00  7 -2 21 24 -13 13 -24 -2 2 0.16412917D+00 0.43201077D-01 0.20833500D+06 0.20833500D+06 0.20833500D+06 0.10964661D+01  1  2  5  4  7  2        2 -.249488288046D-03 0.100000000000D+01
  </mgrwgt>
  </event>
  <event>
  9     66 0.27011060E-05 0.26875350E+03 0.75467711E-02 0.10183460E+00
       -2 -1    0    0    0  501 0.00000000E+00 0.00000000E+00 0.26586145E+03 0.26586165E+03 0.32000000E+00 0.0000E+00 0.9000E+01
        2 -1    0    0  502    0 0.00000000E+00 0.00000000E+00 -.42155906E+03 0.42155919E+03 0.32000000E+00 0.0000E+00 0.9000E+01
       25  2    1    2    0    0 -.14440012E+03 0.14302018E+03 -.22763624E+03 0.42734189E+03 0.29915994E+03 0.0000E+00 0.0000E+00
       23  2    1    2    0    0 0.13076810E+03 -.13242879E+03 0.25060854E+02 0.21011798E+03 0.94254122E+02 0.0000E+00 0.0000E+00
       24  1    3    3    0    0 0.45084967E+02 -.12488589E+02 -.17635840E+02 0.94693494E+02 0.80419002E+02 0.0000E+00 0.9000E+01
      -13  1    4    4    0    0 0.87346737E+02 -.88748651E+02 -.29351505E+02 0.12793474E+03 0.10565837E+00 0.0000E+00 0.9000E+01
       13  1    4    4    0    0 0.43421363E+02 -.43680137E+02 0.54412359E+02 0.82183241E+02 0.10565837E+00 0.0000E+00 0.9000E+01
      -24  1    3    3    0    0 -.18948509E+03 0.15550877E+03 -.21000040E+03 0.33264840E+03 0.80419002E+02 0.0000E+00 0.9000E+01
       21  1    1    2  502  501 0.13632019E+02 -.10591392E+02 0.46877772E+02 0.49960960E+02 0.75000000E+00 0.0000E+00 0.9000E+01
#aMCatNLO 2  0  0  2  1 0.17262953D+02 0.00000000D+00  -5  7  0 0.00000000D+00 0.00000000D+00 0.00000000D+00 0.00000000D+00 0.00000000D+00
  <mgrwgt>
 0.4272851025D-04    1    2    0
 0.302084547453828D+03 0.000000000000000D+00 0.000000000000000D+00 0.302084547453828D+03
 0.302084547453828D+03 0.000000000000000D+00 0.000000000000000D+00 -.302084547453828D+03
 0.952342423066690D+02 0.472189450156722D+02 -.141465821934970D+02 0.131373664485834D+02
 0.128669391414849D+03 0.902090433290158D+02 -.909725314794984D+02 0.119222189605354D+02
 0.106701351491807D+03 0.458081831293039D+02 -.455345639573380D+02 0.849316916927094D+02
 0.273564109694332D+03 -.183236171473992D+03 0.150653677630333D+03 -.109991277101828D+03
 0.000000000000000D+00 0.000000000000000D+00 -.000000000000000D+00 0.000000000000000D+00
 0.369500045756276D+03 0.000000000000000D+00 0.000000000000000D+00 0.369500045756276D+03
 0.303314983316456D+03 0.000000000000000D+00 0.000000000000000D+00 -.303314983316456D+03
 0.939597001765167D+02 0.450849652279223D+02 -.124885874334554D+02 0.131373664485834D+02
 0.125091700618374D+03 0.873467897377605D+02 -.887487046731464D+02 0.119222189605354D+02
 0.104913073455214D+03 0.434213154542281D+02 -.436800880523150D+02 0.849316916927094D+02
 0.280451197928344D+03 -.189485089663727D+03 0.155508772169646D+03 -.109991277101828D+03
 0.683993568942841D+02 0.136320192438162D+02 -.105913920107296D+02 0.661850624398204D+02
0.647617374544D-06 0.000000000000D+00 0.000000000000D+00 0.676823145785D-07 0.158109194494D-08  7 -2 2 24 -13 13 -24 21 2 0.40901510D-01 0.64854827D-01 0.76838282D+05 0.76838282D+05 0.76838282D+05 0.11312344D+01  1  2  1  2  7  2        2 0.427285102509D-04 0.100000000000D+01
  </mgrwgt>
  </event>
  <event>
  9     66 0.27011060E-05 0.75183497E+03 0.75467711E-02 0.89874149E-01
       -2 -1    0    0    0  502 0.00000000E+00 0.00000000E+00 0.16269740E+04 0.16269740E+04 0.32000000E+00 0.0000E+00 0.9000E+01
        2 -1    0    0  501    0 0.00000000E+00 0.00000000E+00 -.94238576E+03 0.94238582E+03 0.32000000E+00 0.0000E+00 0.9000E+01
       25  2    1    2    0    0 0.71392879E+03 -.59113458E+02 -.59487345E+03 0.97910944E+03 0.30264197E+03 0.0000E+00 0.0000E+00
       23  2    1    2    0    0 -.76237861E+03 0.75549605E+02 0.13171468E+04 0.15267031E+04 0.94962681E+02 0.0000E+00 0.0000E+00
       24  1    3    3    0    0 0.39282239E+03 -.54595536E+02 -.16616476E+03 0.43745634E+03 0.80419002E+02 0.0000E+00 0.9000E+01
      -11  1    4    4    0    0 -.68043712E+03 0.85078006E+02 0.11238276E+04 0.13165186E+04 0.51099893E-03 0.0000E+00 0.9000E+01
       11  1    4    4    0    0 -.81941487E+02 -.95284016E+01 0.19331922E+03 0.21018449E+03 0.51099893E-03 0.0000E+00 0.9000E+01
      -24  1    3    3    0    0 0.32110640E+03 -.45179227E+01 -.42870869E+03 0.54165310E+03 0.80419002E+02 0.0000E+00 0.9000E+01
       21  1    1    2  501  502 0.48449821E+02 -.16436146E+02 -.37685076E+02 0.63547302E+02 0.75000000E+00 0.0000E+00 0.9000E+01
#aMCatNLO 2  0  0  1  1 0.51161823D+02 0.00000000D+00  -5  7  0 0.00000000D+00 0.00000000D+00 0.00000000D+00 0.00000000D+00 0.00000000D+00
  <mgrwgt>
 0.4325506365D-03    2    2    0
 0.119945824278611D+04 0.000000000000000D+00 0.000000000000000D+00 0.119945824278611D+04
 0.119945824278611D+04 0.000000000000000D+00 0.000000000000000D+00 -.119945824278611D+04
 0.515286580681413D+03 0.403143167061573D+03 -.580967622007735D+02 -.305210414876889D+03
 0.102249197543961D+04 -.659646400717779D+03 0.780249495655829D+02 0.777347138094531D+03
 0.159755528407368D+03 -.786996639289454D+02 -.106281596336716D+02 0.138619024585334D+03
 0.701382401043841D+03 0.335202897585151D+03 -.930002773113788D+01 -.610755747802976D+03
 0.000000000000000D+00 0.000000000000000D+00 -.000000000000000D+00 -.000000000000000D+00
 0.120934099486218D+04 0.000000000000000D+00 0.000000000000000D+00 0.120934099486218D+04
 0.126782495896091D+04 0.000000000000000D+00 0.000000000000000D+00 -.126782495896091D+04
 0.506863606898864D+03 0.392822390118418D+03 -.545955356827480D+02 -.305210414876889D+03
 0.103658165002119D+04 -.680437121940678D+03 0.850780062177533D+02 0.777347138094531D+03
 0.161308498627124D+03 -.819414871441213D+02 -.952840159508203D+01 0.138619024585334D+03
 0.694708233490545D+03 0.321106397671016D+03 -.451792270333352D+01 -.610755747802976D+03
 0.777039647853645D+02 0.484498212953643D+02 -.164361462365897D+02 -.584839640987328D+02
-.802407339314D-03 0.000000000000D+00 0.000000000000D+00 0.234871992692D-06 0.000000000000D+00  7 -2 2 24 -11 11 -24 21 2 0.24825785D+00 0.13716414D+00 0.56525582D+06 0.56525582D+06 0.56525582D+06 0.10647655D+01  1  2  8  1  7  1       -2 -.196602740987D-03 0.100000000000D+01
0.288299419370D-02 0.000000000000D+00 0.000000000000D+00 0.234871992692D-06 0.541601743034D-09  7 -2 2 24 -11 11 -24 21 2 0.25030333D+00 0.14498222D+00 0.60459525D+06 0.60459525D+06 0.60459525D+06 0.10627285D+01  1  2  1  1  7  1       -2 0.629153377510D-03 0.100000000000D+01
  </mgrwgt>
  </event>
  <event>
  8     66 0.27011060E-05 0.23119474E+03 0.75467711E-02 0.96652399E-01
       -2 -1    0    0    0  501 0.00000000E+00 0.00000000E+00 0.76427559E+02 0.76428229E+02 0.32000000E+00 0.0000E+00 0.9000E+01
        2 -1    0    0  501    0 0.00000000E+00 0.00000000E+00 -.12916096E+04 0.12916096E+04 0.32000000E+00 0.0000E+00 0.9000E+01
       25  2    1    2    0    0 -.16077875E+03 -.61239194E+01 -.36964878E+03 0.50253158E+03 0.30001743E+03 0.0000E+00 0.0000E+00
       23  2    1    2    0    0 0.16077875E+03 0.61239194E+01 -.84553321E+03 0.86550624E+03 0.91034793E+02 0.0000E+00 0.0000E+00
       24  1    3    3    0    0 0.26501569E+01 -.71781378E+02 -.30585119E+02 0.11208147E+03 0.80419002E+02 0.0000E+00 0.9000E+01
      -13  1    4    4    0    0 0.74042737E+02 0.48326880E+01 -.18538328E+03 0.19968138E+03 0.10565837E+00 0.0000E+00 0.9000E+01
       13  1    4    4    0    0 0.86736009E+02 0.12912314E+01 -.66014993E+03 0.66582486E+03 0.10565837E+00 0.0000E+00 0.9000E+01
      -24  1    3    3    0    0 -.16342890E+03 0.65657459E+02 -.33906366E+03 0.39045011E+03 0.80419002E+02 0.0000E+00 0.9000E+01
#aMCatNLO 1  0  0  1  2 0.30341025D+03 0.00000000D+00  -5  7  0 0.00000000D+00 0.00000000D+00 0.00000000D+00 0.00000000D+00 0.00000000D+00
  <mgrwgt>
 0.1128941043D-02    3    2    0
 0.314189513593843D+03 0.000000000000000D+00 0.000000000000000D+00 0.314189513593843D+03
 0.314189513593843D+03 0.000000000000000D+00 0.000000000000000D+00 -.314189513593843D+03
 0.184864856667073D+03 0.265015671170475D+01 -.717813780863402D+02 0.150160613030169D+03
 0.762233807170408D+02 0.740427190142173D+02 0.483269275379856D+01 -.174449021110464D+02
 0.172939196416653D+03 0.867360265992042D+02 0.129122667230446D+01 -.149610026671679D+03
 0.194351593386918D+03 -.163428902325126D+03 0.656574586602372D+02 0.168943157525565D+02
 0.000000000000000D+00 0.000000000000000D+00 0.000000000000000D+00 -.000000000000000D+00
 0.401699253186614D+03 0.000000000000000D+00 0.000000000000000D+00 0.401699253186614D+03
 0.784763058713289D+03 0.000000000000000D+00 0.000000000000000D+00 -.784763058713289D+03
 0.227813234478104D+03 -.668278986339872D+02 -.135711002161116D+03 0.150160613030169D+03
 0.567550699428907D+02 0.516546050024055D+02 -.157675342588462D+02 -.174449021110464D+02
 0.160802644255173D+03 0.305475965010021D+02 -.504100651335350D+02 -.149610026671679D+03
 0.252424136619099D+03 -.238647600779244D+03 -.355436788901936D+01 0.168943157525565D+02
 0.488667226604636D+03 0.223273297909824D+03 0.205442969442517D+03 -.383063805526675D+03
0.108631410445D-04 0.000000000000D+00 0.000000000000D+00 0.264551519775D-05 0.000000000000D+00  7 -2 2 24 -13 13 -24 21 0 0.11758141D-01 0.19870922D+00 0.53451009D+05 0.53451009D+05 0.53451009D+05 0.11447545D+01  1  2  2  1  7  1       -2 0.110722430070D-02 0.100000000000D+01
-.534468949129D-06 0.000000000000D+00 -.417173219417D-07 0.264551519775D-05 0.000000000000D+00  7 -2 2 24 -13 13 -24 21 2 0.11758141D-01 0.19870922D+00 0.53451009D+05 0.53451009D+05 0.53451009D+05 0.11447545D+01  1  2  3  1  7  1       -2 -.713883569142D-04 0.100000000000D+01
0.697057432503D-06 0.000000000000D+00 0.000000000000D+00 0.264551519775D-05 0.000000000000D+00  7 -2 2 24 -13 13 -24 21 2 0.11758141D-01 0.19870922D+00 0.53451009D+05 0.53451009D+05 0.53451009D+05 0.11447545D+01  1  2 15  1  7  1       -2 0.931050996739D-04 0.100000000000D+01
  </mgrwgt>
  </event>
  <event>
  8     66 0.27011060E-05 0.19806955E+03 0.75467711E-02 0.97652371E-01
       -2 -1    0    0    0  501 0.00000000E+00 0.00000000E+00 0.19013011E+03 0.19013038E+03 0.32000000E+00 0.0000E+00 0.9000E+01
        2 -1    0    0  501    0 0.00000000E+00 0.00000000E+00 -.11923665E+04 0.11923666E+04 0.32000000E+00 0.0000E+00 0.9000E+01
       25  2    1    2    0    0 -.19395783E+03 -.25551510E+03 -.14444788E+03 0.46255172E+03 0.30030201E+03 0.0000E+00 0.0000E+00
       23  2    1    2    0    0 0.19395783E+03 0.25551510E+03 -.85778856E+03 0.91994526E+03 0.87123260E+02 0.0000E+00 0.0000E+00
       24  1    3    3    0    0 0.29982681E+02 -.80500671E+01 -.70537901E+02 0.11138481E+03 0.80419002E+02 0.0000E+00 0.9000E+01
      -11  1    4    4    0    0 0.51879429E+02 0.13250382E+03 -.31826737E+03 0.34862997E+03 0.51099893E-03 0.0000E+00 0.9000E+01
       11  1    4    4    0    0 0.14207840E+03 0.12301128E+03 -.53952119E+03 0.57131529E+03 0.51099893E-03 0.0000E+00 0.9000E+01
      -24  1    3    3    0    0 -.22394051E+03 -.24746503E+03 -.73909979E+02 0.35116690E+03 0.80419002E+02 0.0000E+00 0.9000E+01
#aMCatNLO 1  0  0  1  2 0.12496344D+02 0.00000000D+00  -5  7  0 0.00000000D+00 0.00000000D+00 0.00000000D+00 0.00000000D+00 0.00000000D+00
  <mgrwgt>
 0.5704138267D-03    9    2    0
 0.476135484836401D+03 0.000000000000000D+00 0.000000000000000D+00 0.476135484836401D+03
 0.476135484836401D+03 0.000000000000000D+00 0.000000000000000D+00 -.476135484836401D+03
 0.874682861036096D+02 0.299826812608068D+02 -.805006712310364D+01 0.148229674241947D+02
 0.171170524505193D+03 0.518794290272792D+02 0.132503816525784D+03 -.951347040216543D+02
 0.261599765602194D+03 0.142078396945551D+03 0.123011283457408D+03 -.181979093927479D+03
 0.432032393461805D+03 -.223940507233637D+03 -.247465032860088D+03 0.262290830524939D+03
 0.000000000000000D+00 0.000000000000000D+00 -.000000000000000D+00 0.000000000000000D+00
 0.503260673346758D+03 0.000000000000000D+00 0.000000000000000D+00 0.503260673346758D+03
 0.477617897852353D+03 0.000000000000000D+00 0.000000000000000D+00 -.477617897852353D+03
 0.870706296829476D+02 0.288518438955073D+02 -.786951965401903D+01 0.148229674241947D+02
 0.170787122029814D+03 0.496638859645243D+02 0.132857546164460D+03 -.951347040216543D+02
 0.260035661218534D+03 0.138698721822359D+03 0.123550876336583D+03 -.181979093927479D+03
 0.434459545957478D+03 -.229554507168325D+03 -.246568711681861D+03 0.262290830524939D+03
 0.285256123103378D+02 0.123400554859349D+02 -.197019116516291D+01 0.256427754944050D+02
0.133022614499D-04 0.000000000000D+00 0.000000000000D+00 0.223584853594D-06 0.000000000000D+00  7 -2 2 24 -11 11 -24 21 0 0.29250810D-01 0.18344103D+00 0.14429858D+06 0.14429858D+06 0.14429858D+06 0.11088824D+01  1  2  2  1  7  1       -2 0.339929945863D-03 0.100000000000D+01
-.693168716787D-06 0.000000000000D+00 -.510841865337D-07 0.223584853594D-06 0.000000000000D+00  7 -2 2 24 -11 11 -24 21 2 0.29250810D-01 0.18344103D+00 0.14429858D+06 0.14429858D+06 0.14429858D+06 0.11088824D+01  1  2  3  1  7  1       -2 -.217808032117D-04 0.100000000000D+01
0.847341438686D-06 0.000000000000D+00 0.000000000000D+00 0.223584853594D-06 0.000000000000D+00  7 -2 2 24 -11 11 -24 21 2 0.29250810D-01 0.18344103D+00 0.14429858D+06 0.14429858D+06 0.14429858D+06 0.11088824D+01  1  2 15  1  7  1       -2 0.266252308886D-04 0.100000000000D+01
0.180846711307D-03 0.000000000000D+00 0.000000000000D+00 0.223584853594D-06 0.000000000000D+00  7 -2 2 24 -11 11 -24 21 2 0.30961280D-01 0.18344103D+00 0.14908501D+06 0.14908501D+06 0.14908501D+06 0.11077617D+01  1  2 12  1  7  1       -2 0.512544824670D-02 0.100000000000D+01
-.183469889583D-03 0.000000000000D+00 0.000000000000D+00 0.223584853594D-06 0.000000000000D+00  7 -2 2 24 -11 11 -24 21 2 0.29250810D-01 0.18344103D+00 0.14429858D+06 0.14429858D+06 0.14429858D+06 0.11088824D+01  1  2  4  1  7  1       -2 -.576500563789D-02 0.100000000000D+01
-.412828361295D-03 0.000000000000D+00 -.295264290849D-04 0.223584853594D-06 0.000000000000D+00  7 -2 2 24 -11 11 -24 21 2 0.30981780D-01 0.18344103D+00 0.14429858D+06 0.14429858D+06 0.14429858D+06 0.11088824D+01  1  2  5  1  7  1       -2 -.117198574705D-01 0.100000000000D+01
0.413890414368D-03 0.000000000000D+00 0.294776988854D-04 0.223584853594D-06 0.000000000000D+00  7 -2 2 24 -11 11 -24 21 2 0.29250810D-01 0.18344103D+00 0.14429858D+06 0.14429858D+06 0.14429858D+06 0.11088824D+01  1  2  6  1  7  1       -2 0.130052979141D-01 0.100000000000D+01
0.279565252448D-05 0.000000000000D+00 0.000000000000D+00 0.223584853594D-06 0.000000000000D+00  7 21 2 24 -11 11 -24 2 2 0.30961280D-01 0.18344103D+00 0.14908501D+06 0.14908501D+06 0.14908501D+06 0.11077617D+01  1  2 12  3  7  1       -2 0.924544523389D-03 0.100000000000D+01
-.405656999322D-05 0.000000000000D+00 -.292568561373D-06 0.223584853594D-06 0.000000000000D+00  7 21 2 24 -11 11 -24 2 2 0.30981780D-01 0.18344103D+00 0.14429858D+06 0.14429858D+06 0.14429858D+06 0.11088824D+01  1  2  5  3  7  1       -2 -.134478812266D-02 0.100000000000D+01
  </mgrwgt>
  </event>
  <event>
  9     66 -.27011060E-05 0.24167949E+03 0.75467711E-02 0.10266883E+00
       -2 -1    0    0    0  501 0.00000000E+00 0.00000000E+00 0.10269139E+03 0.10269189E+03 0.32000000E+00 0.0000E+00 0.9000E+01
        2 -1    0    0  502    0 0.00000000E+00 0.00000000E+00 -.12909248E+04 0.12909249E+04 0.32000000E+00 0.0000E+00 0.9000E+01
       25  2    1    2    0    0 -.16954189E+03 0.10070377E+03 -.10490489E+04 0.11088445E+04 0.30024477E+03 0.0000E+00 0.0000E+00
       23  2    1    2    0    0 0.13794233E+03 -.11725177E+03 -.85540545E+02 0.22034700E+03 0.91975808E+02 0.0000E+00 0.0000E+00
       24  1    3    3    0    0 -.33253000E+02 -.11835432E+02 -.73061044E+03 0.73587001E+03 0.80419002E+02 0.0000E+00 0.9000E+01
      -13  1    4    4    0    0 0.58692799E+01 -.57851317E+02 -.27667388E+02 0.64395022E+02 0.10565837E+00 0.0000E+00 0.9000E+01
       13  1    4    4    0    0 0.13207305E+03 -.59400456E+02 -.57873157E+02 0.15595197E+03 0.10565837E+00 0.0000E+00 0.9000E+01
      -24  1    3    3    0    0 -.13628889E+03 0.11253920E+03 -.31843847E+03 0.37297454E+03 0.80419002E+02 0.0000E+00 0.9000E+01
       21  1    1    2  502  501 0.31599557E+02 0.16548001E+02 -.53643991E+02 0.64425217E+02 0.75000000E+00 0.0000E+00 0.9000E+01
#aMCatNLO 2  0  0  2  1 0.35670273D+02 0.00000000D+00  -5  7  0 0.00000000D+00 0.00000000D+00 0.00000000D+00 0.00000000D+00 0.00000000D+00
  <mgrwgt>
 -.2970458485D-03    3    2    0
 0.345754453390143D+03 0.000000000000000D+00 0.000000000000000D+00 0.345754453390143D+03
 0.345754453390143D+03 0.000000000000000D+00 0.000000000000000D+00 -.345754453390143D+03
 0.213912879695992D+03 -.234497948345060D+02 -.670170670253090D+01 -.196714764049256D+03
 0.772661269314739D+02 0.942067198495500D+01 -.559914412704220D+02 0.524048071726574D+02
 0.209423743069557D+03 0.141525240802396D+03 -.544506389981781D+02 0.144443893224247D+03
 0.190906157083262D+03 -.127496117952845D+03 0.117143786971131D+03 -.133936347648415D+00
 0.000000000000000D+00 0.000000000000000D+00 0.000000000000000D+00 0.000000000000000D+00
 0.365390943252260D+03 0.000000000000000D+00 0.000000000000000D+00 0.365390943252260D+03
 0.362801485780549D+03 0.000000000000000D+00 0.000000000000000D+00 -.362801485780549D+03
 0.215429231615702D+03 -.332530003308515D+02 -.118354321510948D+02 -.196714764049256D+03
 0.782782534680355D+02 0.586911371782027D+01 -.578513150703586D+02 0.524048071726574D+02
 0.204537985129982D+03 0.132073216921570D+03 -.594004582746912D+02 0.144443893224247D+03
 0.194182819590522D+03 -.136288887805253D+03 0.112539204687153D+03 -.133936347648415D+00
 0.357641392285669D+02 0.315995574967140D+02 0.165480008089917D+02 0.258945747171049D+01
-.115714852036D-04 0.000000000000D+00 0.000000000000D+00 0.101957947172D-05 0.000000000000D+00  7 -2 2 24 -13 13 -24 21 2 0.14949516D-01 0.20370061D+00 0.67766913D+05 0.67766913D+05 0.67766913D+05 0.11358585D+01  1  2 13  2  7  2        2 -.999173545283D-03 0.100000000000D+01
-.283878479271D-08 0.000000000000D+00 0.000000000000D+00 0.101957947172D-05 0.000000000000D+00  7 -2 2 24 -13 13 -24 21 2 0.14949516D-01 0.18926997D+00 0.58408977D+05 0.58408977D+05 0.58408977D+05 0.11414042D+01  1  2  8  2  7  2        2 -.279390313570D-06 0.100000000000D+01
0.851903370829D-05 0.000000000000D+00 0.000000000000D+00 0.101957947172D-05 0.553805004355D-08  7 -2 2 24 -13 13 -24 21 2 0.15798546D-01 0.19860172D+00 0.67766913D+05 0.67766913D+05 0.67766913D+05 0.11358585D+01  1  2  1  2  7  2        2 0.702407087078D-03 0.100000000000D+01
  </mgrwgt>
  </event>
  <event>
  8     66 0.27011060E-05 0.36383424E+03 0.75467711E-02 0.95675225E-01
       -2 -1    0    0    0  501 0.00000000E+00 0.00000000E+00 0.70796907E+02 0.70797630E+02 0.32000000E+00 0.0000E+00 0.9000E+01
        2 -1    0    0  501    0 0.00000000E+00 0.00000000E+00 -.19131155E+04 0.19131155E+04 0.32000000E+00 0.0000E+00 0.9000E+01
       25  2    1    2    0    0 -.50392745E+02 -.29382906E+03 -.10046112E+04 0.10900642E+04 0.30020202E+03 0.0000E+00 0.0000E+00
       23  2    1    2    0    0 0.50392745E+02 0.29382906E+03 -.83770732E+03 0.89384893E+03 0.91309441E+02 0.0000E+00 0.0000E+00
       24  1    3    3    0    0 -.76399425E+02 0.16692767E+01 -.19928341E+03 0.22808058E+03 0.80419002E+02 0.0000E+00 0.9000E+01
      -13  1    4    4    0    0 0.25741422E+02 0.27987674E+03 -.78819648E+03 0.83680781E+03 0.10565837E+00 0.0000E+00 0.9000E+01
       13  1    4    4    0    0 0.24651323E+02 0.13952313E+02 -.49510839E+02 0.57041117E+02 0.10565837E+00 0.0000E+00 0.9000E+01
      -24  1    3    3    0    0 0.26006680E+02 -.29549833E+03 -.80532783E+03 0.86198361E+03 0.80419002E+02 0.0000E+00 0.9000E+01
#aMCatNLO 1  0  0  2  1 0.16589712D+03 0.00000000D+00  -5  7  0 0.00000000D+00 0.00000000D+00 0.00000000D+00 0.00000000D+00 0.00000000D+00
  <mgrwgt>
 0.1283954143D-02    4    2    0
 0.368026358617969D+03 0.000000000000000D+00 0.000000000000000D+00 0.368026358617969D+03
 0.368026358617969D+03 0.000000000000000D+00 0.000000000000000D+00 -.368026358617969D+03
 0.115954379099211D+03 -.763994246908976D+02 0.166927665782113D+01 0.337423102388149D+02
 0.282649925324828D+03 0.257414235371881D+02 0.279877100036809D+03 -.299527674079689D+02
 0.298207379868327D+02 0.246513213844407D+02 0.139519573995617D+02 0.932371453880690D+01
 0.307627674825067D+03 0.260066797692687D+02 -.295498334094192D+03 -.131132573696529D+02
 0.000000000000000D+00 0.000000000000000D+00 -.000000000000000D+00 0.000000000000000D+00
 0.573202729683189D+03 0.000000000000000D+00 0.000000000000000D+00 0.573202729683189D+03
 0.412372723230716D+03 0.000000000000000D+00 0.000000000000000D+00 -.412372723230716D+03
 0.136049280324510D+03 -.104338903533541D+03 0.412800576703309D+01 0.337423102388149D+02
 0.289490642815189D+03 -.376914223791004D+02 0.285459315281873D+03 -.299527674079689D+02
 0.253097498916217D+02 0.185390407009497D+02 0.144898501256506D+02 0.932371453880690D+01
 0.303667031176447D+03 -.417671594837232D+02 -.289534102894573D+03 -.131132573696529D+02
 0.231058748706138D+03 0.165258444695414D+03 -.145430682799834D+02 0.160830006452473D+03
0.281270078003D-04 0.000000000000D+00 0.000000000000D+00 0.198417102090D-05 0.000000000000D+00  7 -2 2 24 -13 13 -24 21 0 0.10891890D-01 0.29432551D+00 0.13237535D+06 0.13237535D+06 0.13237535D+06 0.11118613D+01  1  2  2  2  7  2        2 0.147724387468D-02 0.100000000000D+01
-.156236219276D-05 0.000000000000D+00 -.108015115964D-06 0.198417102090D-05 0.000000000000D+00  7 -2 2 24 -13 13 -24 21 2 0.10891890D-01 0.29432551D+00 0.13237535D+06 0.13237535D+06 0.13237535D+06 0.11118613D+01  1  2  3  2  7  2        2 -.101440559818D-03 0.100000000000D+01
0.178428074738D-05 0.000000000000D+00 0.000000000000D+00 0.198417102090D-05 0.000000000000D+00  7 -2 2 24 -13 13 -24 21 2 0.10891890D-01 0.29432551D+00 0.13237535D+06 0.13237535D+06 0.13237535D+06 0.11118613D+01  1  2 15  2  7  2        2 0.115849217759D-03 0.100000000000D+01
-.319891877322D-05 0.000000000000D+00 0.000000000000D+00 0.198417102090D-05 0.000000000000D+00  7 -2 2 24 -13 13 -24 21 2 0.10891890D-01 0.29432551D+00 0.13237535D+06 0.13237535D+06 0.13237535D+06 0.11118613D+01  1  2  4  2  7  2        2 -.207698389447D-03 0.100000000000D+01
  </mgrwgt>
  </event>
  <event>
  8     66 0.27011060E-05 0.62976672E+03 0.75467711E-02 0.90902963E-01
       -2 -1    0    0    0  501 0.00000000E+00 0.00000000E+00 0.11577084E+04 0.11577084E+04 0.32000000E+00 0.0000E+00 0.9000E+01
        2 -1    0    0  501    0 0.00000000E+00 0.00000000E+00 -.96518245E+03 0.96518250E+03 0.32000000E+00 0.0000E+00 0.9000E+01
       25  2    1    2    0    0 -.54280176E+03 0.24968256E+03 0.94510418E+03 0.11577151E+04 0.30017848E+03 0.0000E+00 0.0000E+00
       23  2    1    2    0    0 0.54280176E+03 -.24968256E+03 -.75257827E+03 0.96517585E+03 0.90638045E+02 0.0000E+00 0.0000E+00
       24  1    3    3    0    0 -.17758303E+03 -.19513525E+02 0.38872138E+03 0.43530224E+03 0.80419002E+02 0.0000E+00 0.9000E+01
      -13  1    4    4    0    0 0.11853837E+03 -.92623142E+02 -.15953820E+03 0.21927800E+03 0.10565837E+00 0.0000E+00 0.9000E+01
       13  1    4    4    0    0 0.42426339E+03 -.15705941E+03 -.59304006E+03 0.74589785E+03 0.10565837E+00 0.0000E+00 0.9000E+01
      -24  1    3    3    0    0 -.36521873E+03 0.26919608E+03 0.55638280E+03 0.72241282E+03 0.80419002E+02 0.0000E+00 0.9000E+01
#aMCatNLO 1  0  0  2  1 0.14864714D+03 0.00000000D+00  -5  7  0 0.00000000D+00 0.00000000D+00 0.00000000D+00 0.00000000D+00 0.00000000D+00
  <mgrwgt>
 0.6333059357D-03    4    2    0
 0.105707137829736D+04 0.000000000000000D+00 0.000000000000000D+00 0.105707137829736D+04
 0.105707137829736D+04 0.000000000000000D+00 0.000000000000000D+00 -.105707137829736D+04
 0.401704297397416D+03 -.177583031958008D+03 -.195135254882954D+02 0.350688773240318D+03
 0.234713041364332D+03 0.118537953999281D+03 -.926230544168117D+02 -.180166409296126D+03
 0.802990707913427D+03 0.424263803959590D+03 -.157059501800193D+03 -.663420390506141D+03
 0.674734709919545D+03 -.365218726000862D+03 0.269196081705300D+03 0.492898026561948D+03
 0.000000000000000D+00 0.000000000000000D+00 -.000000000000000D+00 0.000000000000000D+00
 0.121297479796340D+04 0.000000000000000D+00 0.000000000000000D+00 0.121297479796340D+04
 0.109571637282661D+04 0.000000000000000D+00 0.000000000000000D+00 -.109571637282661D+04
 0.409528831755929D+03 -.195595291629433D+03 0.255231279496516D+01 0.350688773240318D+03
 0.224977083858632D+03 0.108331198867685D+03 -.801193146174176D+02 -.180166409296126D+03
 0.777554814124234D+03 0.389170074004105D+03 -.114068084616561D+03 -.663420390506141D+03
 0.707301336286577D+03 -.395904839825522D+03 0.306787968428477D+03 0.492898026561948D+03
 0.189329104764638D+03 0.939988585831647D+02 -.115152881989464D+03 0.117258425136797D+03
0.155942232403D-02 0.000000000000D+00 0.000000000000D+00 0.280660123158D-04 0.000000000000D+00  7 -2 2 24 -13 13 -24 21 0 0.17810899D+00 0.14848962D+00 0.39660612D+06 0.39660612D+06 0.39660612D+06 0.10756945D+01  1  2  2  2  7  2        2 0.919837924637D-03 0.100000000000D+01
-.583806959439D-04 0.000000000000D+00 -.598859232962D-05 0.280660123158D-04 0.000000000000D+00  7 -2 2 24 -13 13 -24 21 2 0.17810899D+00 0.14848962D+00 0.39660612D+06 0.39660612D+06 0.39660612D+06 0.10756945D+01  1  2  3  2  7  2        2 -.398469169158D-04 0.100000000000D+01
0.950511395976D-04 0.000000000000D+00 0.000000000000D+00 0.280660123158D-04 0.000000000000D+00  7 -2 2 24 -13 13 -24 21 2 0.17810899D+00 0.14848962D+00 0.39660612D+06 0.39660612D+06 0.39660612D+06 0.10756945D+01  1  2 15  2  7  2        2 0.648758087080D-04 0.100000000000D+01
-.456475493106D-03 0.000000000000D+00 0.000000000000D+00 0.280660123158D-04 0.000000000000D+00  7 -2 2 24 -13 13 -24 21 2 0.17810899D+00 0.14848962D+00 0.39660612D+06 0.39660612D+06 0.39660612D+06 0.10756945D+01  1  2  4  2  7  2        2 -.311560880764D-03 0.100000000000D+01
  </mgrwgt>
  </event>
  <event>
  9     66 0.27011060E-05 0.34471478E+03 0.75467711E-02 0.92186032E-01
       21 -1    0    0  502  501 0.00000000E+00 0.00000000E+00 0.31928033E+03 0.31928121E+03 0.75000000E+00 0.0000E+00 0.9000E+01
        2 -1    0    0  501    0 0.00000000E+00 0.00000000E+00 -.15715299E+04 0.15715299E+04 0.32000000E+00 0.0000E+00 0.9000E+01
       25  2    1    2    0    0 -.57010886E+03 0.24273646E+02 -.51631718E+03 0.82595652E+03 0.30001236E+03 0.0000E+00 0.0000E+00
       23  2    1    2    0    0 0.11680695E+03 0.76842575E+01 -.55672688E+03 0.57636856E+03 0.92482345E+02 0.0000E+00 0.0000E+00
       24  1    3    3    0    0 -.40686268E+03 0.12820412E+03 -.36972205E+03 0.57020624E+03 0.80419002E+02 0.0000E+00 0.9000E+01
      -11  1    4    4    0    0 0.35509507E+02 0.46939239E+02 -.22689100E+03 0.23440082E+03 0.51099893E-03 0.0000E+00 0.9000E+01
       11  1    4    4    0    0 0.81297444E+02 -.39254982E+02 -.32983588E+03 0.34196774E+03 0.51099893E-03 0.0000E+00 0.9000E+01
      -24  1    3    3    0    0 -.16324618E+03 -.10393048E+03 -.14659513E+03 0.25575028E+03 0.80419002E+02 0.0000E+00 0.9000E+01
        2  1    1    2  502    0 0.45330191E+03 -.31957904E+02 -.17920552E+03 0.48848608E+03 0.32000000E+00 0.0000E+00 0.9000E+01
#aMCatNLO 2  0  0  1  1 0.45442703D+03 0.00000000D+00  -5  7  0 0.00000000D+00 0.00000000D+00 0.00000000D+00 0.00000000D+00 0.00000000D+00
  <mgrwgt>
 0.9919585756D-04    1    2    0
 0.390060293493808D+03 0.000000000000000D+00 0.000000000000000D+00 0.390060293493808D+03
 0.390060293493808D+03 0.000000000000000D+00 0.000000000000000D+00 -.390060293493808D+03
 0.274775063646345D+03 -.212653997158605D+03 0.114512358846066D+03 0.103437501958719D+03
 0.127978356776477D+03 0.954118196799858D+02 0.427161105900222D+02 -.738266778652691D+02
 0.209875630070726D+03 0.175305686824932D+03 -.458825877871605D+02 -.105879575000925D+03
 0.167491536494067D+03 -.580635093463132D+02 -.111345881648928D+03 0.762687509074751D+02
 0.000000000000000D+00 0.000000000000000D+00 -.000000000000000D+00 0.000000000000000D+00
 0.875405745133355D+03 0.000000000000000D+00 0.000000000000000D+00 0.875405745133355D+03
 0.573173502422212D+03 0.000000000000000D+00 0.000000000000000D+00 -.573173502422212D+03
 0.446251130885295D+03 -.406862682095793D+03 0.128204122275346D+03 0.103437501958719D+03
 0.944171365362952D+02 0.355095073648465D+02 0.469392393823878D+02 -.738266778652691D+02
 0.139142776852636D+03 0.812974436549484D+02 -.392549818883724D+02 -.105879575000925D+03
 0.223013444814008D+03 -.163246177405309D+03 -.103930475852890D+03 0.762687509074751D+02
 0.545754758467333D+03 0.453301908481307D+03 -.319579039164715D+02 0.302232242711143D+03
0.142351375401D-05 0.000000000000D+00 0.000000000000D+00 0.762022629551D-06 0.705946016809D-11  7 21 2 24 -11 11 -24 2 2 0.49120117D-01 0.24177389D+00 0.38889397D+06 0.38889397D+06 0.38889397D+06 0.10763103D+01  1  2  1  3  7  1       -2 0.991958575578D-04 0.100000000000D+01
  </mgrwgt>
  </event>
  <event>
  8     66 0.27011060E-05 0.58337215E+03 0.75467711E-02 0.90432037E-01
       -2 -1    0    0    0  501 0.00000000E+00 0.00000000E+00 0.51804655E+03 0.51804665E+03 0.32000000E+00 0.0000E+00 0.9000E+01
        2 -1    0    0  501    0 0.00000000E+00 0.00000000E+00 -.11037245E+04 0.11037246E+04 0.32000000E+00 0.0000E+00 0.9000E+01
       25  2    1    2    0    0 -.28042835E+02 -.55818687E+03 -.79604011E+03 0.10176622E+04 0.29932835E+03 0.0000E+00 0.0000E+00
       23  2    1    2    0    0 0.28042835E+02 0.55818687E+03 0.21036214E+03 0.60410904E+03 0.91304585E+02 0.0000E+00 0.0000E+00
       24  1    3    3    0    0 -.66508611E+02 -.13956522E+03 -.39235359E+03 0.42931387E+03 0.80419002E+02 0.0000E+00 0.9000E+01
      -13  1    4    4    0    0 -.27146253E+02 0.13533099E+03 0.72671234E+02 0.15598883E+03 0.10565837E+00 0.0000E+00 0.9000E+01
       13  1    4    4    0    0 0.55189088E+02 0.42285588E+03 0.13769090E+03 0.44812021E+03 0.10565837E+00 0.0000E+00 0.9000E+01
      -24  1    3    3    0    0 0.38465776E+02 -.41862164E+03 -.40368652E+03 0.58834829E+03 0.80419002E+02 0.0000E+00 0.9000E+01
#aMCatNLO 1  0  0  2  1 0.28444328D+03 0.00000000D+00  -5  7  0 0.00000000D+00 0.00000000D+00 0.00000000D+00 0.00000000D+00 0.00000000D+00
  <mgrwgt>
 0.9908787836D-03    3    2    0
 0.756161883463328D+03 0.000000000000000D+00 0.000000000000000D+00 0.756161883463328D+03
 0.756161883463328D+03 0.000000000000000D+00 0.000000000000000D+00 -.756161883463328D+03
 0.308436617390941D+03 -.665086109119903D+02 -.139565224838130D+03 -.254487885141189D+03
 0.195420754002011D+03 -.271463628371437D+02 0.135330605159568D+03 0.138340064285708D+03
 0.533874881423491D+03 0.551891977728564D+02 0.422856262241766D+03 0.321199506455190D+03
 0.474591514110213D+03 0.384657759762777D+02 -.418621642563204D+03 -.205051685599709D+03
 0.000000000000000D+00 -.000000000000000D+00 0.000000000000000D+00 0.000000000000000D+00
 0.234721604157459D+04 0.000000000000000D+00 0.000000000000000D+00 0.234721604157459D+04
 0.782240206266935D+03 0.000000000000000D+00 0.000000000000000D+00 -.782240206266935D+03
 0.328678188422239D+03 -.334260799749688D+02 -.188893486081513D+03 -.254487885141189D+03
 0.174863852383315D+03 -.791913434633794D+01 0.106661524435781D+03 0.138340064285708D+03
 0.482964671180063D+03 0.107989141597829D+03 0.344128022628167D+03 0.321199506455190D+03
 0.552334136917734D+03 0.917894459179789D+02 -.498130792765391D+03 -.205051685599709D+03
 0.159061539893817D+04 -.158433373194501D+03 0.236234731782956D+03 0.156497583530765D+04
0.252772825583D-03 0.000000000000D+00 0.000000000000D+00 0.403735331100D-05 0.000000000000D+00  7 -2 2 24 -13 13 -24 21 0 0.79699480D-01 0.16980378D+00 0.34032307D+06 0.34032307D+06 0.34032307D+06 0.10805228D+01  1  2  2  2  7  2        2 0.977852282829D-03 0.100000000000D+01
-.128937752269D-04 0.000000000000D+00 -.970714206852D-06 0.403735331100D-05 0.000000000000D+00  7 -2 2 24 -13 13 -24 21 2 0.79699480D-01 0.16980378D+00 0.34032307D+06 0.34032307D+06 0.34032307D+06 0.10805228D+01  1  2  3  2  7  2        2 -.582359105439D-04 0.100000000000D+01
0.157779195836D-04 0.000000000000D+00 0.000000000000D+00 0.403735331100D-05 0.000000000000D+00  7 -2 2 24 -13 13 -24 21 2 0.79699480D-01 0.16980378D+00 0.34032307D+06 0.34032307D+06 0.34032307D+06 0.10805228D+01  1  2 15  2  7  2        2 0.712624113010D-04 0.100000000000D+01
  </mgrwgt>
  </event>
  <event>
  8     66 0.27011060E-05 0.44500843E+03 0.75467711E-02 0.90551168E-01
       -2 -1    0    0    0  501 0.00000000E+00 0.00000000E+00 0.37884213E+03 0.37884226E+03 0.32000000E+00 0.0000E+00 0.9000E+01
        2 -1    0    0  501    0 0.00000000E+00 0.00000000E+00 -.10801098E+04 0.10801098E+04 0.32000000E+00 0.0000E+00 0.9000E+01
       25  2    1    2    0    0 -.14332428E+03 -.36728649E+03 0.14918977E+03 0.51697157E+03 0.29926711E+03 0.0000E+00 0.0000E+00
       23  2    1    2    0    0 0.14332428E+03 0.36728649E+03 -.85045742E+03 0.94198051E+03 0.92780582E+02 0.0000E+00 0.0000E+00
       24  1    3    3    0    0 0.63942289E+02 -.14173042E+03 0.25184798E+02 0.17685480E+03 0.80419002E+02 0.0000E+00 0.9000E+01
      -13  1    4    4    0    0 0.22729929E+02 0.13121478E+03 -.37012735E+03 0.39335510E+03 0.10565837E+00 0.0000E+00 0.9000E+01
       13  1    4    4    0    0 0.12059435E+03 0.23607171E+03 -.48033007E+03 0.54862541E+03 0.10565837E+00 0.0000E+00 0.9000E+01
      -24  1    3    3    0    0 -.20726657E+03 -.22555607E+03 0.12400498E+03 0.34011678E+03 0.80419002E+02 0.0000E+00 0.9000E+01
#aMCatNLO 1  0  0  1  1 0.47730724D+03 0.00000000D+00  -5  7  0 0.00000000D+00 0.00000000D+00 0.00000000D+00 0.00000000D+00 0.00000000D+00
  <mgrwgt>
 0.7897298728D-03    5    2    0
 0.639680557369447D+03 0.000000000000000D+00 0.000000000000000D+00 0.639680557369447D+03
 0.639680557369447D+03 0.000000000000000D+00 0.000000000000000D+00 -.639680557369447D+03
 0.215485647755976D+03 0.639422885865101D+02 -.141730423581126D+03 0.125661128421943D+03
 0.245691155288763D+03 0.227298022575469D+02 0.131214645251623D+03 -.206470861740709D+03
 0.362351514872300D+03 0.120594479531745D+03 0.236071845980301D+03 -.247033753507837D+03
 0.455832796821854D+03 -.207266570375802D+03 -.225556067650798D+03 0.327843486826603D+03
 0.000000000000000D+00 -.000000000000000D+00 -.000000000000000D+00 0.000000000000000D+00
 0.132225142828303D+04 0.000000000000000D+00 0.000000000000000D+00 0.132225142828303D+04
 0.771811761565966D+03 0.000000000000000D+00 0.000000000000000D+00 -.771811761565966D+03
 0.201085138878745D+03 0.107945759172457D+03 -.807775402195404D+02 0.125661128421943D+03
 0.306888374896980D+03 0.811002350460709D+02 0.212068408242319D+03 -.206470861740709D+03
 0.484493299973952D+03 0.210048930243442D+03 0.359982679098682D+03 -.247033753507837D+03
 0.373032017902890D+03 -.119711394485736D+03 -.104276078762040D+03 0.327843486826603D+03
 0.728564358196429D+03 -.279383529976234D+03 -.386997468359420D+03 0.550439666717065D+03
0.105165456875D-03 0.000000000000D+00 0.000000000000D+00 0.128961032793D-05 0.000000000000D+00  7 -2 2 24 -13 13 -24 21 0 0.58283418D-01 0.16617075D+00 0.19803250D+06 0.19803250D+06 0.19803250D+06 0.10981553D+01  1  2  2  1  7  1       -2 0.840905482385D-03 0.100000000000D+01
-.490712422971D-05 0.000000000000D+00 -.403863045101D-06 0.128961032793D-05 0.000000000000D+00  7 -2 2 24 -13 13 -24 21 2 0.58283418D-01 0.16617075D+00 0.19803250D+06 0.19803250D+06 0.19803250D+06 0.10981553D+01  1  2  3  1  7  1       -2 -.473182461797D-04 0.100000000000D+01
0.622183882754D-05 0.000000000000D+00 0.000000000000D+00 0.128961032793D-05 0.000000000000D+00  7 -2 2 24 -13 13 -24 21 2 0.58283418D-01 0.16617075D+00 0.19803250D+06 0.19803250D+06 0.19803250D+06 0.10981553D+01  1  2 15  1  7  1       -2 0.599957301976D-04 0.100000000000D+01
-.357062931014D-04 0.000000000000D+00 -.305230867626D-04 0.128961032793D-05 0.000000000000D+00  7 -2 2 24 -13 13 -24 21 2 0.13613047D+00 0.16617075D+00 0.19803250D+06 0.19803250D+06 0.19803250D+06 0.10981553D+01  1  2  5  1  7  1       -2 -.476779239524D-04 0.100000000000D+01
-.137375286794D-05 0.000000000000D+00 -.282291171956D-05 0.128961032793D-05 0.000000000000D+00  7 21 2 24 -13 13 -24 2 2 0.13613047D+00 0.16617075D+00 0.19803250D+06 0.19803250D+06 0.19803250D+06 0.10981553D+01  1  2  5  3  7  1       -2 -.161751696536D-04 0.100000000000D+01
  </mgrwgt>
  </event>
  <event>
  8     66 0.27011060E-05 0.19772294E+03 0.75467711E-02 0.91820003E-01
       -2 -1    0    0    0  501 0.00000000E+00 0.00000000E+00 0.83647180E+02 0.83647792E+02 0.32000000E+00 0.0000E+00 0.9000E+01
        2 -1    0    0  501    0 0.00000000E+00 0.00000000E+00 -.30302008E+04 0.30302009E+04 0.32000000E+00 0.0000E+00 0.9000E+01
       25  2    1    2    0    0 0.21150873E+01 0.89626721E+02 -.29654263E+04 0.29818079E+04 0.29897718E+03 0.0000E+00 0.0000E+00
       23  2    1    2    0    0 -.21150873E+01 -.89626721E+02 0.18872681E+02 0.13204078E+03 0.95085052E+02 0.0000E+00 0.0000E+00
       24  1    3    3    0    0 0.28772450E+02 0.15826812E+03 -.12441347E+04 0.12570661E+04 0.80419002E+02 0.0000E+00 0.9000E+01
      -11  1    4    4    0    0 -.27997248E+02 -.65274842E+02 0.48307097E+02 0.85896604E+02 0.51099893E-03 0.0000E+00 0.9000E+01
       11  1    4    4    0    0 0.25882161E+02 -.24351879E+02 -.29434416E+02 0.46144178E+02 0.51099893E-03 0.0000E+00 0.9000E+01
      -24  1    3    3    0    0 -.26657363E+02 -.68641398E+02 -.17212916E+04 0.17247418E+04 0.80419002E+02 0.0000E+00 0.9000E+01
#aMCatNLO 1  0  0  2  1 0.57950749D+03 0.00000000D+00  -5  7  0 0.00000000D+00 0.00000000D+00 0.00000000D+00 0.00000000D+00 0.00000000D+00
  <mgrwgt>
 0.1049244711D-02    5    2    0
 0.503456785111887D+03 0.000000000000000D+00 0.000000000000000D+00 0.503456785111887D+03
 0.503456785111887D+03 0.000000000000000D+00 0.000000000000000D+00 -.503456785111887D+03
 0.246698163451204D+03 0.287724498744210D+02 0.158268119395583D+03 -.168867156093290D+03
 0.406994691589778D+03 -.279972483650541D+02 -.652748420964316D+02 0.400749333194118D+03
 0.565648334727270D+02 0.258821610214775D+02 -.243518790582793D+02 0.440077278780283D+02
 0.296655881710064D+03 -.266573625308444D+02 -.686413982408725D+02 -.275889904978856D+03
 0.000000000000000D+00 -.000000000000000D+00 0.000000000000000D+00 -.000000000000000D+00
 0.768066626978654D+03 0.000000000000000D+00 0.000000000000000D+00 0.768066626978654D+03
 0.102941436879326D+04 0.000000000000000D+00 0.000000000000000D+00 -.102941436879326D+04
 0.290099808680619D+03 0.171168378814098D+03 0.140982100740765D+03 -.168867156093290D+03
 0.458118163686148D+03 0.201490482699660D+03 -.931332874169939D+02 0.400749333194118D+03
 0.817403078541497D+02 0.625702449912462D+02 -.288055941934896D+02 0.440077278780283D+02
 0.331809281086960D+03 0.140055041965220D+03 -.888792923686566D+02 -.275889904978856D+03
 0.635713434464036D+03 -.575284148470224D+03 0.698360732383754D+02 -.261347741814605D+03
0.987247954068D-04 0.000000000000D+00 0.000000000000D+00 0.232037751119D-06 0.000000000000D+00  7 -2 2 24 -11 11 -24 21 0 0.12868845D-01 0.46618479D+00 0.39094361D+05 0.39094361D+05 0.39094361D+05 0.11568147D+01  1  2  2  2  7  2        2 0.969000212295D-03 0.100000000000D+01
0.340554494435D-06 0.000000000000D+00 -.379129209198D-06 0.232037751119D-06 0.000000000000D+00  7 -2 2 24 -11 11 -24 21 2 0.12868845D-01 0.46618479D+00 0.39094361D+05 0.39094361D+05 0.39094361D+05 0.11568147D+01  1  2  3  2  7  2        2 0.447313328786D-05 0.100000000000D+01
0.576851830809D-05 0.000000000000D+00 0.000000000000D+00 0.232037751119D-06 0.000000000000D+00  7 -2 2 24 -11 11 -24 21 2 0.12868845D-01 0.46618479D+00 0.39094361D+05 0.39094361D+05 0.39094361D+05 0.11568147D+01  1  2 15  2  7  2        2 0.757686411050D-04 0.100000000000D+01
0.146219007089D-04 0.000000000000D+00 -.187096874514D-04 0.232037751119D-06 0.000000000000D+00  7 -2 2 24 -11 11 -24 21 2 0.12868845D-01 0.96174529D+00 0.39094361D+05 0.39094361D+05 0.39094361D+05 0.11568147D+01  1  2  5  2  7  2        2 0.272243357692D-08 0.100000000000D+01
0.229232442614D-05 0.000000000000D+00 -.146506234673D-05 0.232037751119D-06 0.000000000000D+00  7 -2 21 24 -11 11 -24 -2 2 0.12868845D-01 0.96174529D+00 0.39094361D+05 0.39094361D+05 0.39094361D+05 0.11568147D+01  1  2  5  4  7  2        2 0.163731466912D-11 0.100000000000D+01
  </mgrwgt>
  </event>
  <event>
  9     66 -.27011060E-05 0.59549547E+03 0.75467711E-02 0.92496755E-01
       -2 -1    0    0    0  502 0.00000000E+00 0.00000000E+00 0.16268651E+04 0.16268651E+04 0.32000000E+00 0.0000E+00 0.9000E+01
        2 -1    0    0  501    0 0.00000000E+00 0.00000000E+00 -.38664515E+03 0.38664528E+03 0.32000000E+00 0.0000E+00 0.9000E+01
       25  2    1    2    0    0 0.48445275E+03 0.29515942E+03 -.33060517E+01 0.64178641E+03 0.30010884E+03 0.0000E+00 0.0000E+00
       23  2    1    2    0    0 -.46352151E+03 -.29612838E+03 0.11831756E+04 0.13078351E+04 0.89353254E+02 0.0000E+00 0.0000E+00
       24  1    3    3    0    0 0.80995245E+01 0.70982368E+02 0.16585636E+02 0.10884116E+03 0.80419002E+02 0.0000E+00 0.9000E+01
      -13  1    4    4    0    0 -.44175714E+03 -.27480998E+03 0.10578871E+04 0.11788957E+04 0.10565837E+00 0.0000E+00 0.9000E+01
       13  1    4    4    0    0 -.21764376E+02 -.21318403E+02 0.12528847E+03 0.12893942E+03 0.10565837E+00 0.0000E+00 0.9000E+01
      -24  1    3    3    0    0 0.47635322E+03 0.22417705E+03 -.19891688E+02 0.53294525E+03 0.80419002E+02 0.0000E+00 0.9000E+01
       21  1    1    2  501  502 -.20931234E+02 0.96896175E+00 0.60350363E+02 0.63888843E+02 0.75000000E+00 0.0000E+00 0.9000E+01
#aMCatNLO 2  0  0  1  2 0.20953650D+02 0.00000000D+00  -5  7  0 0.00000000D+00 0.00000000D+00 0.00000000D+00 0.00000000D+00 0.00000000D+00
  <mgrwgt>
 -.9253645177D-03    3    2    0
 0.775965996387024D+03 0.000000000000000D+00 0.000000000000000D+00 0.775965996387024D+03
 0.775965996387024D+03 0.000000000000000D+00 0.000000000000000D+00 -.775965996387024D+03
 0.124057902158145D+03 0.642604419343080D+01 0.710598373980828D+02 -.619059980817005D+02
 0.682512650001148D+03 -.450923060422005D+03 -.274386046612868D+03 0.432671016380118D+03
 0.670084654322425D+02 -.226655746210019D+02 -.212763025977398D+02 0.593609729911265D+02
 0.678352975182513D+03 0.467162590849576D+03 0.224602511812524D+03 -.430125991289544D+03
 0.000000000000000D+00 -.000000000000000D+00 0.000000000000000D+00 0.000000000000000D+00
 0.806840765302381D+03 0.000000000000000D+00 0.000000000000000D+00 0.806840765302381D+03
 0.779600014075904D+03 0.000000000000000D+00 0.000000000000000D+00 -.779600014075904D+03
 0.124111511797227D+03 0.809952451672352D+01 0.709823676016378D+02 -.619059980817005D+02
 0.676664477284405D+03 -.441757723960393D+03 -.274810334093364D+03 0.432671016380118D+03
 0.667221614546861D+02 -.217637891465150D+02 -.213180486142140D+02 0.593609729911265D+02
 0.684575290261302D+03 0.476353222353786D+03 0.224177053358116D+03 -.430125991289544D+03
 0.343673385806649D+02 -.209312337636015D+02 0.968961747824751D+00 0.272407512264764D+02
-.495635708568D-02 0.000000000000D+00 0.000000000000D+00 0.683684427039D-05 0.000000000000D+00  7 -2 2 24 -13 13 -24 21 2 0.25083618D+00 0.59206295D-01 0.36712864D+06 0.36712864D+06 0.36712864D+06 0.10781227D+01  1  2 13  1  7  1       -2 -.335827818195D-02 0.100000000000D+01
-.906091669271D-02 0.000000000000D+00 0.000000000000D+00 0.683684427039D-05 0.000000000000D+00  7 -2 2 24 -13 13 -24 21 2 0.24070814D+00 0.59206295D-01 0.35461486D+06 0.35461486D+06 0.35461486D+06 0.10792185D+01  1  2  8  1  7  1       -2 -.716783043703D-02 0.100000000000D+01
0.141268837933D-01 0.000000000000D+00 0.000000000000D+00 0.683684427039D-05 0.966272540970D-07  7 -2 2 24 -13 13 -24 21 2 0.25028563D+00 0.59483571D-01 0.36712864D+06 0.36712864D+06 0.36712864D+06 0.10781227D+01  1  2  1  1  7  1       -2 0.960074410127D-02 0.100000000000D+01
  </mgrwgt>
  </event>
  <event>
  8     66 0.27011060E-05 0.32162934E+03 0.75467711E-02 0.98495653E-01
       -2 -1    0    0    0  501 0.00000000E+00 0.00000000E+00 0.38030490E+02 0.38031836E+02 0.32000000E+00 0.0000E+00 0.9000E+01
        2 -1    0    0  501    0 0.00000000E+00 0.00000000E+00 -.36206762E+04 0.36206763E+04 0.32000000E+00 0.0000E+00 0.9000E+01
       25  2    1    2    0    0 -.13502092E+03 -.21033471E+03 -.28975463E+04 0.29237041E+04 0.29966676E+03 0.0000E+00 0.0000E+00
       23  2    1    2    0    0 0.13502092E+03 0.21033471E+03 -.68509951E+03 0.73500398E+03 0.91641566E+02 0.0000E+00 0.0000E+00
       24  1    3    3    0    0 -.64348612E+02 -.25065118E+03 -.22330324E+04 0.22494150E+04 0.80419002E+02 0.0000E+00 0.9000E+01
      -11  1    4    4    0    0 0.31064495E+02 0.10651460E+03 -.20728230E+03 0.23510916E+03 0.51099893E-03 0.0000E+00 0.9000E+01
       11  1    4    4    0    0 0.10395642E+03 0.10382011E+03 -.47781720E+03 0.49989482E+03 0.51099893E-03 0.0000E+00 0.9000E+01
      -24  1    3    3    0    0 -.70672306E+02 0.40316474E+02 -.66451385E+03 0.67428915E+03 0.80419002E+02 0.0000E+00 0.9000E+01
#aMCatNLO 1  0  0  1  2 0.75693758D+02 0.00000000D+00  -5  7  0 0.00000000D+00 0.00000000D+00 0.00000000D+00 0.00000000D+00 0.00000000D+00
  <mgrwgt>
 0.8298773500D-03    4    2    0
 0.371077594353922D+03 0.000000000000000D+00 0.000000000000000D+00 0.371077594353922D+03
 0.371077594353922D+03 0.000000000000000D+00 0.000000000000000D+00 -.371077594353922D+03
 0.309623499108273D+03 -.643486118045117D+02 -.250651183082569D+03 -.149775618255512D+03
 0.158426042159295D+03 0.310644946436798D+02 0.106514596573945D+03 0.113086023554996D+03
 0.157809930618606D+03 0.103956423567453D+03 0.103820112512694D+03 0.576057326901152D+02
 0.116295716821672D+03 -.706723064066215D+02 0.403164739959304D+02 -.209161379895997D+02
 0.000000000000000D+00 0.000000000000000D+00 0.000000000000000D+00 -.000000000000000D+00
 0.400963177573765D+03 0.000000000000000D+00 0.000000000000000D+00 0.400963177573765D+03
 0.424231483689677D+03 0.000000000000000D+00 0.000000000000000D+00 -.424231483689677D+03
 0.332689102088084D+03 -.893766357426327D+02 -.271650333799378D+03 -.149775618255512D+03
 0.149838107878213D+03 0.190528316122632D+02 0.964365047925141D+02 0.113086023554996D+03
 0.143700165209863D+03 0.922079355541018D+02 0.939628312867788D+02 0.576057326901152D+02
 0.119777898990962D+03 -.798710300447883D+02 0.325985101423830D+02 -.209161379895997D+02
 0.791893870963202D+02 0.579868986210559D+02 0.486524875777017D+02 -.232683061159124D+02
0.986978163376D-04 0.000000000000D+00 0.000000000000D+00 0.150144042677D-05 0.000000000000D+00  7 -2 2 24 -11 11 -24 21 0 0.58509493D-02 0.55702722D+00 0.10344543D+06 0.10344543D+06 0.10344543D+06 0.11205168D+01  1  2  2  1  7  1       -2 0.123741012650D-02 0.100000000000D+01
-.534686111617D-05 0.000000000000D+00 -.379025602468D-06 0.150144042677D-05 0.000000000000D+00  7 -2 2 24 -11 11 -24 21 2 0.58509493D-02 0.55702722D+00 0.10344543D+06 0.10344543D+06 0.10344543D+06 0.11205168D+01  1  2  3  1  7  1       -2 -.841669858729D-04 0.100000000000D+01
0.584143018233D-05 0.000000000000D+00 0.000000000000D+00 0.150144042677D-05 0.000000000000D+00  7 -2 2 24 -11 11 -24 21 2 0.58509493D-02 0.55702722D+00 0.10344543D+06 0.10344543D+06 0.10344543D+06 0.11205168D+01  1  2 15  1  7  1       -2 0.919521867039D-04 0.100000000000D+01
-.263838311542D-04 0.000000000000D+00 0.000000000000D+00 0.150144042677D-05 0.000000000000D+00  7 -2 2 24 -11 11 -24 21 2 0.58509493D-02 0.55702722D+00 0.10344543D+06 0.10344543D+06 0.10344543D+06 0.11205168D+01  1  2  4  1  7  1       -2 -.415317977366D-03 0.100000000000D+01
  </mgrwgt>
  </event>
  <event>
  8     66 0.27011060E-05 0.39413441E+03 0.75467711E-02 0.88331099E-01
       -2 -1    0    0    0  501 0.00000000E+00 0.00000000E+00 0.19119937E+03 0.19119963E+03 0.32000000E+00 0.0000E+00 0.9000E+01
        2 -1    0    0  501    0 0.00000000E+00 0.00000000E+00 -.14803807E+04 0.14803807E+04 0.32000000E+00 0.0000E+00 0.9000E+01
       25  2    1    2    0    0 -.26274526E+03 -.26380142E+03 -.11812167E+04 0.12742150E+04 0.29954106E+03 0.0000E+00 0.0000E+00
       23  2    1    2    0    0 0.26274526E+03 0.26380142E+03 -.10796464E+03 0.39736532E+03 0.87272995E+02 0.0000E+00 0.0000E+00
       24  1    3    3    0    0 -.14359991E+03 -.13586165E+03 -.94863365E+03 0.97234373E+03 0.80419002E+02 0.0000E+00 0.9000E+01
      -13  1    4    4    0    0 0.12516376E+03 0.66073933E+02 -.40097385E+02 0.14710385E+03 0.10565837E+00 0.0000E+00 0.9000E+01
       13  1    4    4    0    0 0.13758149E+03 0.19772749E+03 -.67867255E+02 0.25026147E+03 0.10565837E+00 0.0000E+00 0.9000E+01
      -24  1    3    3    0    0 -.11914535E+03 -.12793977E+03 -.23258304E+03 0.30187130E+03 0.80419002E+02 0.0000E+00 0.9000E+01
#aMCatNLO 1  0  0  1  2 0.73383527D+03 0.00000000D+00  -5  7  0 0.00000000D+00 0.00000000D+00 0.00000000D+00 0.00000000D+00 0.00000000D+00
  <mgrwgt>
 0.6270415153D-03    3    2    0
 0.532022651657411D+03 0.000000000000000D+00 0.000000000000000D+00 0.532022651657411D+03
 0.532022651657411D+03 0.000000000000000D+00 0.000000000000000D+00 -.532022651657411D+03
 0.378169897273677D+03 -.143599907711268D+03 -.135861649859215D+03 -.312195345661110D+03
 0.182513764301213D+03 0.125163745933816D+03 0.660737401635051D+02 0.115237024102584D+03
 0.310925817351324D+03 0.137581511468621D+03 0.197727680159981D+03 0.196595920853284D+03
 0.192435824388608D+03 -.119145349691170D+03 -.127939770464271D+03 0.362400705242038D+00
 0.000000000000000D+00 -.000000000000000D+00 0.000000000000000D+00 -.000000000000000D+00
 0.857629762183594D+03 0.000000000000000D+00 0.000000000000000D+00 0.857629762183594D+03
 0.128327042230129D+04 0.000000000000000D+00 0.000000000000000D+00 -.128327042230129D+04
 0.470618608029289D+03 0.216126748857513D+02 -.342171911034318D+03 -.312195345661110D+03
 0.240097852217785D+03 0.207423055719925D+03 -.366480950580331D+02 0.115237024102584D+03
 0.330567569335671D+03 0.262445100538595D+03 0.418034807597363D+02 0.196595920853284D+03
 0.251274137303478D+03 -.327793489298756D+02 -.235789862107553D+03 0.362400705242038D+00
 0.848342017598661D+03 -.458701482214395D+03 0.572806387440168D+03 -.425640660117695D+03
0.353065856617D-04 0.000000000000D+00 0.000000000000D+00 0.157714729317D-06 0.000000000000D+00  7 -2 2 24 -13 13 -24 21 0 0.29415310D-01 0.22775090D+00 0.15534194D+06 0.15534194D+06 0.15534194D+06 0.11063546D+01  1  2  2  1  7  1       -2 0.616265816742D-03 0.100000000000D+01
-.174684716851D-05 0.000000000000D+00 -.135586585378D-06 0.157714729317D-06 0.000000000000D+00  7 -2 2 24 -13 13 -24 21 2 0.29415310D-01 0.22775090D+00 0.15534194D+06 0.15534194D+06 0.15534194D+06 0.11063546D+01  1  2  3  1  7  1       -2 -.373212308157D-04 0.100000000000D+01
0.225121152156D-05 0.000000000000D+00 0.000000000000D+00 0.157714729317D-06 0.000000000000D+00  7 -2 2 24 -13 13 -24 21 2 0.29415310D-01 0.22775090D+00 0.15534194D+06 0.15534194D+06 0.15534194D+06 0.11063546D+01  1  2 15  1  7  1       -2 0.480969293284D-04 0.100000000000D+01
  </mgrwgt>
  </event>
  <event>
  8     66 0.27011060E-05 0.15783401E+03 0.75467711E-02 0.97231577E-01
       -2 -1    0    0    0  501 0.00000000E+00 0.00000000E+00 0.52406762E+02 0.52407739E+02 0.32000000E+00 0.0000E+00 0.9000E+01
        2 -1    0    0  501    0 0.00000000E+00 0.00000000E+00 -.28113851E+04 0.28113851E+04 0.32000000E+00 0.0000E+00 0.9000E+01
       25  2    1    2    0    0 0.23059273E+03 -.93912850E+02 -.84857966E+03 0.93388178E+03 0.30009184E+03 0.0000E+00 0.0000E+00
       23  2    1    2    0    0 -.23059273E+03 0.93912850E+02 -.19103987E+04 0.19299111E+04 0.11375864E+03 0.0000E+00 0.0000E+00
       24  1    3    3    0    0 -.34648027E+02 -.65633671E+02 -.19965560E+03 0.22767925E+03 0.80419002E+02 0.0000E+00 0.9000E+01
      -11  1    4    4    0    0 -.87374391E+02 -.21240315E+02 -.61041340E+03 0.61700078E+03 0.51099893E-03 0.0000E+00 0.9000E+01
       11  1    4    4    0    0 -.14321833E+03 0.11515317E+03 -.12999853E+04 0.13129103E+04 0.51099893E-03 0.0000E+00 0.9000E+01
      -24  1    3    3    0    0 0.26524075E+03 -.28279179E+02 -.64892406E+03 0.70620254E+03 0.80419002E+02 0.0000E+00 0.9000E+01
#aMCatNLO 1  0  0  1  2 0.13250968D+03 0.00000000D+00  -5  7  0 0.00000000D+00 0.00000000D+00 0.00000000D+00 0.00000000D+00 0.00000000D+00
  <mgrwgt>
 0.9472126855D-03    9    2    0
 0.383845041391626D+03 0.000000000000000D+00 0.000000000000000D+00 0.383845041391626D+03
 0.383845041391626D+03 0.000000000000000D+00 0.000000000000000D+00 -.383845041391626D+03
 0.131798919975270D+03 -.346480264913524D+02 -.656336714471192D+02 0.734538956414379D+02
 0.107914719451297D+03 -.873743913246000D+02 -.212403141481766D+02 -.596670048669662D+02
 0.225705571406675D+03 -.143218334434846D+03 0.115153164372716D+03 -.131039163537749D+03
 0.302270871950009D+03 0.265240752250798D+03 -.282791787774198D+02 0.117252272763277D+03
 0.000000000000000D+00 -.000000000000000D+00 0.000000000000000D+00 0.000000000000000D+00
 0.458029274760632D+03 0.000000000000000D+00 0.000000000000000D+00 0.458029274760632D+03
 0.453596802166077D+03 0.000000000000000D+00 0.000000000000000D+00 -.453596802166077D+03
 0.135051378267805D+03 -.156217735658579D+02 -.783080086799363D+02 0.734538956414379D+02
 0.989914896578583D+02 -.726221130161825D+02 -.310675434489453D+02 -.596670048669662D+02
 0.197449918486591D+03 -.113047622876611D+03 0.950549466973514D+02 -.131039163537749D+03
 0.347549496642923D+03 0.311572522424520D+03 -.591430846696969D+02 0.117252272763277D+03
 0.132583793871531D+03 -.110281012965869D+03 0.734636901012272D+02 0.443247259455509D+01
0.261812131071D-04 0.000000000000D+00 0.000000000000D+00 0.746854943471D-08 0.000000000000D+00  7 -2 2 24 -11 11 -24 21 0 0.80626554D-02 0.43252086D+00 0.10947013D+06 0.10947013D+06 0.10947013D+06 0.11185116D+01  1  2  2  1  7  1       -2 0.685675333093D-03 0.100000000000D+01
-.141549438009D-05 0.000000000000D+00 -.100542752003D-06 0.746854943471D-08 0.000000000000D+00  7 -2 2 24 -11 11 -24 21 2 0.80626554D-02 0.43252086D+00 0.10947013D+06 0.10947013D+06 0.10947013D+06 0.11185116D+01  1  2  3  1  7  1       -2 -.463786259940D-04 0.100000000000D+01
0.157724093240D-05 0.000000000000D+00 0.000000000000D+00 0.746854943471D-08 0.000000000000D+00  7 -2 2 24 -11 11 -24 21 2 0.80626554D-02 0.43252086D+00 0.10947013D+06 0.10947013D+06 0.10947013D+06 0.11185116D+01  1  2 15  1  7  1       -2 0.516782463676D-04 0.100000000000D+01
0.946886097371D-05 0.000000000000D+00 0.000000000000D+00 0.746854943471D-08 0.000000000000D+00  7 -2 2 24 -11 11 -24 21 2 0.10225240D-01 0.43252086D+00 0.15988006D+06 0.15988006D+06 0.15988006D+06 0.11053723D+01  1  2 12  1  7  1       -2 0.207193432715D-03 0.100000000000D+01
-.982861914801D-05 0.000000000000D+00 0.000000000000D+00 0.746854943471D-08 0.000000000000D+00  7 -2 2 24 -11 11 -24 21 2 0.80626554D-02 0.43252086D+00 0.10947013D+06 0.10947013D+06 0.10947013D+06 0.11185116D+01  1  2  4  1  7  1       -2 -.322034377469D-03 0.100000000000D+01
-.165924723102D-04 0.000000000000D+00 -.103156264993D-04 0.746854943471D-08 0.000000000000D+00  7 -2 2 24 -11 11 -24 21 2 0.12437052D-01 0.43252086D+00 0.10947013D+06 0.10947013D+06 0.10947013D+06 0.11185116D+01  1  2  5  1  7  1       -2 -.278161630755D-03 0.100000000000D+01
0.200492002231D-04 0.000000000000D+00 0.941710557294D-05 0.746854943471D-08 0.000000000000D+00  7 -2 2 24 -11 11 -24 21 2 0.80626554D-02 0.43252086D+00 0.10947013D+06 0.10947013D+06 0.10947013D+06 0.11185116D+01  1  2  6  1  7  1       -2 0.656911374363D-03 0.100000000000D+01
0.308622938018D-06 0.000000000000D+00 0.000000000000D+00 0.746854943471D-08 0.000000000000D+00  7 21 2 24 -11 11 -24 2 2 0.10225240D-01 0.43252086D+00 0.15988006D+06 0.15988006D+06 0.15988006D+06 0.11053723D+01  1  2 12  3  7  1       -2 0.971550793005D-04 0.100000000000D+01
-.446729275509D-06 0.000000000000D+00 -.521117243251D-06 0.746854943471D-08 0.000000000000D+00  7 21 2 24 -11 11 -24 2 2 0.12437052D-01 0.43252086D+00 0.10947013D+06 0.10947013D+06 0.10947013D+06 0.11185116D+01  1  2  5  3  7  1       -2 -.104826146134D-03 0.100000000000D+01
  </mgrwgt>
  </event>
  <event>
  8     66 0.27011060E-05 0.18263038E+03 0.75467711E-02 0.97855311E-01
       -2 -1    0    0    0  501 0.00000000E+00 0.00000000E+00 0.37918803E+03 0.37918817E+03 0.32000000E+00 0.0000E+00 0.9000E+01
        2 -1    0    0  501    0 0.00000000E+00 0.00000000E+00 -.26828708E+03 0.26828727E+03 0.32000000E+00 0.0000E+00 0.9000E+01
       25  2    1    2    0    0 0.13556611E+03 -.19415850E+03 0.92428666E+02 0.39319152E+03 0.29996804E+03 0.0000E+00 0.0000E+00
       23  2    1    2    0    0 -.13556611E+03 0.19415850E+03 0.18472287E+02 0.25428391E+03 0.90793110E+02 0.0000E+00 0.0000E+00
       24  1    3    3    0    0 0.84223780E+02 -.23635870E+03 0.11326914E+03 0.28680340E+03 0.80419002E+02 0.0000E+00 0.9000E+01
      -11  1    4    4    0    0 -.61046319E+02 0.61736869E+02 -.34413795E+02 0.93393808E+02 0.51099893E-03 0.0000E+00 0.9000E+01
       11  1    4    4    0    0 -.74519788E+02 0.13242163E+03 0.52886082E+02 0.16089010E+03 0.51099893E-03 0.0000E+00 0.9000E+01
      -24  1    3    3    0    0 0.51342327E+02 0.42200193E+02 -.20840475E+02 0.10638812E+03 0.80419002E+02 0.0000E+00 0.9000E+01
#aMCatNLO 1  0  0  2  1 0.13830382D+03 0.00000000D+00  -5  7  0 0.00000000D+00 0.00000000D+00 0.00000000D+00 0.00000000D+00 0.00000000D+00
  <mgrwgt>
 0.3525899703D-03    7    2    0
 0.318953530223994D+03 0.000000000000000D+00 0.000000000000000D+00 0.318953530223994D+03
 0.318953530223994D+03 0.000000000000000D+00 0.000000000000000D+00 -.318953530223994D+03
 0.271413366402485D+03 0.842237798668031D+02 -.236358695332231D+03 0.651070008013941D+02
 0.100777563195544D+03 -.610463190886588D+02 0.617368692015491D+02 -.511666214494209D+02
 0.154109084137491D+03 -.745197877786283D+02 0.132421633259168D+03 0.257084050088479D+02
 0.111607046712468D+03 0.513423270004841D+02 0.422001928715140D+02 -.396487843608211D+02
 0.000000000000000D+00 0.000000000000000D+00 0.000000000000000D+00 -.000000000000000D+00
 0.332817949699161D+03 0.000000000000000D+00 0.000000000000000D+00 0.332817949699161D+03
 0.106728234189869D+04 0.000000000000000D+00 0.000000000000000D+00 -.106728234189869D+04
 0.310838863254930D+03 0.503479718299702D+02 -.288755507539688D+03 0.651070008013941D+02
 0.990644222669913D+02 -.726732539330502D+02 0.437531115616571D+02 -.511666214494209D+02
 0.142351391711413D+03 -.917680483413652D+02 0.105743188611343D+03 0.257084050088479D+02
 0.100472956587394D+03 0.390033764318205D+02 0.231151373923828D+02 -.396487843608211D+02
 0.747372657777122D+03 0.750899540126248D+02 0.116144069974305D+03 -.734464392199530D+03
0.167753963989D-04 0.000000000000D+00 0.000000000000D+00 0.160048667065D-05 0.000000000000D+00  7 -2 2 24 -11 11 -24 21 0 0.58336645D-01 0.41274960D-01 0.91987081D+05 0.91987081D+05 0.91987081D+05 0.11247109D+01  1  2  2  2  7  2        2 0.708115995815D-03 0.100000000000D+01
-.929094547558D-06 0.000000000000D+00 -.644219392350D-07 0.160048667065D-05 0.000000000000D+00  7 -2 2 24 -11 11 -24 21 2 0.58336645D-01 0.41274960D-01 0.91987081D+05 0.91987081D+05 0.91987081D+05 0.11247109D+01  1  2  3  2  7  2        2 -.496104677048D-04 0.100000000000D+01
0.106452713766D-05 0.000000000000D+00 0.000000000000D+00 0.160048667065D-05 0.000000000000D+00  7 -2 2 24 -11 11 -24 21 2 0.58336645D-01 0.41274960D-01 0.91987081D+05 0.91987081D+05 0.91987081D+05 0.11247109D+01  1  2 15  2  7  2        2 0.568421043072D-04 0.100000000000D+01
0.763070024886D-04 0.000000000000D+00 0.000000000000D+00 0.160048667065D-05 0.000000000000D+00  7 -2 2 24 -11 11 -24 21 2 0.58336645D-01 0.13636153D+00 0.14417400D+06 0.14417400D+06 0.14417400D+06 0.11089121D+01  1  2 12  2  7  2        2 0.998484655546D-03 0.100000000000D+01
-.100354362973D-03 0.000000000000D+00 -.603597124140D-05 0.160048667065D-05 0.000000000000D+00  7 -2 2 24 -11 11 -24 21 2 0.58336645D-01 0.13993133D+00 0.91987081D+05 0.91987081D+05 0.91987081D+05 0.11247109D+01  1  2  5  2  7  2        2 -.132353978072D-02 0.100000000000D+01
0.105627595329D-04 0.000000000000D+00 0.000000000000D+00 0.160048667065D-05 0.000000000000D+00  7 -2 21 24 -11 11 -24 -2 2 0.58336645D-01 0.13636153D+00 0.14417400D+06 0.14417400D+06 0.14417400D+06 0.11089121D+01  1  2 12  4  7  2        2 0.119985409033D-03 0.100000000000D+01
-.140381373743D-04 0.000000000000D+00 -.857487857479D-06 0.160048667065D-05 0.000000000000D+00  7 -2 21 24 -11 11 -24 -2 2 0.58336645D-01 0.13993133D+00 0.91987081D+05 0.91987081D+05 0.91987081D+05 0.11247109D+01  1  2  5  4  7  2        2 -.157687945968D-03 0.100000000000D+01
  </mgrwgt>
  </event>
  <event>
  8     66 0.27011060E-05 0.16515300E+03 0.75467711E-02 0.10341803E+00
       -2 -1    0    0    0  501 0.00000000E+00 0.00000000E+00 0.65449344E+02 0.65450126E+02 0.32000000E+00 0.0000E+00 0.9000E+01
        2 -1    0    0  501    0 0.00000000E+00 0.00000000E+00 -.14575969E+04 0.14575969E+04 0.32000000E+00 0.0000E+00 0.9000E+01
       25  2    1    2    0    0 -.11672291E+03 0.13814729E+02 -.13197633E+04 0.13579607E+04 0.29743424E+03 0.0000E+00 0.0000E+00
       23  2    1    2    0    0 0.11672291E+03 -.13814729E+02 -.72384237E+02 0.16508630E+03 0.90547905E+02 0.0000E+00 0.0000E+00
       24  1    3    3    0    0 0.39537779E+02 0.82695262E+02 -.36850157E+03 0.38815251E+03 0.80419002E+02 0.0000E+00 0.9000E+01
      -13  1    4    4    0    0 -.47513114E+01 -.23523202E+02 -.13583078E+01 0.24036892E+02 0.10565837E+00 0.0000E+00 0.9000E+01
       13  1    4    4    0    0 0.12147422E+03 0.97084732E+01 -.71025929E+02 0.14104941E+03 0.10565837E+00 0.0000E+00 0.9000E+01
      -24  1    3    3    0    0 -.15626069E+03 -.68880533E+02 -.95126170E+03 0.96980821E+03 0.80419002E+02 0.0000E+00 0.9000E+01
#aMCatNLO 1  0  0  2  1 0.37319810D+02 0.00000000D+00  -5  7  0 0.00000000D+00 0.00000000D+00 0.00000000D+00 0.00000000D+00 0.00000000D+00
  <mgrwgt>
 0.1442891832D-02    9    2    0
 0.308867900937309D+03 0.000000000000000D+00 0.000000000000000D+00 0.308867900937309D+03
 0.308867900937309D+03 0.000000000000000D+00 0.000000000000000D+00 -.308867900937309D+03
 0.126536243321374D+03 0.395377786622000D+02 0.826952618073143D+02 -.338003350958854D+02
 0.562024091500753D+02 -.475148256583401D+01 -.235232468029365D+02 0.508211675146015D+02
 0.187695801902014D+03 0.121474393716773D+03 0.970851805452748D+01 0.142756542406880D+03
 0.247301347501155D+03 -.156260689813139D+03 -.688805330589053D+02 -.159777374825596D+03
 0.000000000000000D+00 0.000000000000000D+00 -.000000000000000D+00 -.000000000000000D+00
 0.323743438049486D+03 0.000000000000000D+00 0.000000000000000D+00 0.323743438049486D+03
 0.333759058784679D+03 0.000000000000000D+00 0.000000000000000D+00 -.333759058784679D+03
 0.130878498240826D+03 0.373308631334565D+02 0.901438259256857D+02 -.338003350958854D+02
 0.550238469437286D+02 -.570506801431190D+01 -.203047990359856D+02 0.508211675146015D+02
 0.186515591567786D+03 0.118266135595000D+03 0.205367151545425D+02 0.142756542406880D+03
 0.246444155422639D+03 -.160493759803758D+03 -.545934917870411D+02 -.159777374825596D+03
 0.386404046591855D+02 0.106018290896136D+02 -.357822502572015D+02 -.100156207351933D+02
0.648031749116D-05 0.000000000000D+00 0.000000000000D+00 0.542705381976D-07 0.000000000000D+00  7 -2 2 24 -13 13 -24 21 0 0.10069193D-01 0.22424573D+00 0.52110674D+05 0.52110674D+05 0.52110674D+05 0.11457193D+01  1  2  2  2  7  2        2 0.682325574671D-03 0.100000000000D+01
-.320002116304D-06 0.000000000000D+00 -.248861254728D-07 0.542705381976D-07 0.000000000000D+00  7 -2 2 24 -13 13 -24 21 2 0.10069193D-01 0.22424573D+00 0.52110674D+05 0.52110674D+05 0.52110674D+05 0.11457193D+01  1  2  3  2  7  2        2 -.442287484695D-04 0.100000000000D+01
0.397019278931D-06 0.000000000000D+00 0.000000000000D+00 0.542705381976D-07 0.000000000000D+00  7 -2 2 24 -13 13 -24 21 2 0.10069193D-01 0.22424573D+00 0.52110674D+05 0.52110674D+05 0.52110674D+05 0.11457193D+01  1  2 15  2  7  2        2 0.548735928005D-04 0.100000000000D+01
0.116314148907D-04 0.000000000000D+00 0.000000000000D+00 0.542705381976D-07 0.000000000000D+00  7 -2 2 24 -13 13 -24 21 2 0.10069193D-01 0.24736601D+00 0.60643452D+05 0.60643452D+05 0.60643452D+05 0.11399953D+01  1  2 12  2  7  2        2 0.132194623074D-02 0.100000000000D+01
-.105995952179D-04 0.000000000000D+00 0.000000000000D+00 0.542705381976D-07 0.000000000000D+00  7 -2 2 24 -13 13 -24 21 2 0.10069193D-01 0.22424573D+00 0.52110674D+05 0.52110674D+05 0.52110674D+05 0.11457193D+01  1  2  4  2  7  2        2 -.146501165738D-02 0.100000000000D+01
-.335875045933D-04 0.000000000000D+00 -.737438389153D-05 0.542705381976D-07 0.000000000000D+00  7 -2 2 24 -13 13 -24 21 2 0.10069193D-01 0.24872520D+00 0.52110674D+05 0.52110674D+05 0.52110674D+05 0.11457193D+01  1  2  5  2  7  2        2 -.382162229673D-02 0.100000000000D+01
0.342071810311D-04 0.000000000000D+00 0.733498092526D-05 0.542705381976D-07 0.000000000000D+00  7 -2 2 24 -13 13 -24 21 2 0.10069193D-01 0.22424573D+00 0.52110674D+05 0.52110674D+05 0.52110674D+05 0.11457193D+01  1  2  6  2  7  2        2 0.472790874995D-02 0.100000000000D+01
0.185855617538D-06 0.000000000000D+00 0.000000000000D+00 0.542705381976D-07 0.000000000000D+00  7 -2 21 24 -13 13 -24 -2 2 0.10069193D-01 0.24736601D+00 0.60643452D+05 0.60643452D+05 0.60643452D+05 0.11399953D+01  1  2 12  4  7  2        2 0.705869172714D-05 0.100000000000D+01
-.536465685601D-06 0.000000000000D+00 -.123489940175D-06 0.542705381976D-07 0.000000000000D+00  7 -2 21 24 -13 13 -24 -2 2 0.10069193D-01 0.24872520D+00 0.52110674D+05 0.52110674D+05 0.52110674D+05 0.11457193D+01  1  2  5  4  7  2        2 -.203583051099D-04 0.100000000000D+01
  </mgrwgt>
  </event>
  <event>
  8     66 0.27011060E-05 0.24556583E+03 0.75467711E-02 0.97116859E-01
       -2 -1    0    0    0  501 0.00000000E+00 0.00000000E+00 0.58378183E+03 0.58378192E+03 0.32000000E+00 0.0000E+00 0.9000E+01
        2 -1    0    0  501    0 0.00000000E+00 0.00000000E+00 -.45258131E+03 0.45258142E+03 0.32000000E+00 0.0000E+00 0.9000E+01
       25  2    1    2    0    0 0.22639156E+03 0.24959399E+03 -.25291340E+03 0.51745616E+03 0.30040871E+03 0.0000E+00 0.0000E+00
       23  2    1    2    0    0 -.22639156E+03 -.24959399E+03 0.38411393E+03 0.51890719E+03 0.90392827E+02 0.0000E+00 0.0000E+00
       24  1    3    3    0    0 0.57654351E+02 0.20992063E+03 -.47458183E+02 0.23687590E+03 0.80419002E+02 0.0000E+00 0.9000E+01
      -11  1    4    4    0    0 -.15300698E+03 -.11581069E+03 0.25424991E+03 0.31853770E+03 0.51099893E-03 0.0000E+00 0.9000E+01
       11  1    4    4    0    0 -.73384582E+02 -.13378330E+03 0.12986402E+03 0.20036949E+03 0.51099893E-03 0.0000E+00 0.9000E+01
      -24  1    3    3    0    0 0.16873721E+03 0.39673355E+02 -.20545522E+03 0.28058026E+03 0.80419002E+02 0.0000E+00 0.9000E+01
#aMCatNLO 1  0  0  1  2 0.39001598D+02 0.00000000D+00  -5  7  0 0.00000000D+00 0.00000000D+00 0.00000000D+00 0.00000000D+00 0.00000000D+00
  <mgrwgt>
 0.6367030651D-03    9    2    0
 0.514012502407644D+03 0.000000000000000D+00 0.000000000000000D+00 0.514012502407644D+03
 0.514012502407644D+03 0.000000000000000D+00 0.000000000000000D+00 -.514012502407644D+03
 0.244854001846734D+03 0.576543510460116D+02 0.209920631361061D+03 -.780741352845286D+02
 0.288673013171020D+03 -.153006977150883D+03 -.115810688020313D+03 0.215659124584719D+03
 0.185420942113908D+03 -.733845815112301D+02 -.133783298137520D+03 0.105345422825476D+03
 0.309077047683626D+03 0.168737207616101D+03 0.396733547967714D+02 -.242930412125666D+03
 0.000000000000000D+00 0.000000000000000D+00 0.000000000000000D+00 0.000000000000000D+00
 0.538485227833584D+03 0.000000000000000D+00 0.000000000000000D+00 0.538485227833584D+03
 0.530159658014161D+03 0.000000000000000D+00 0.000000000000000D+00 -.530159658014161D+03
 0.240387272008445D+03 0.489464114247594D+02 0.206948067875742D+03 -.780741352845286D+02
 0.295793671596843D+03 -.163495575041900D+03 -.119391101351032D+03 0.215659124584719D+03
 0.189828829432766D+03 -.801186590301436D+02 -.136082059246425D+03 0.105345422825476D+03
 0.302754794396775D+03 0.157757525906697D+03 0.359253038973209D+02 -.242930412125666D+03
 0.398803184129162D+02 0.369102967405871D+02 0.125997888243931D+02 0.832556981942287D+01
0.342897854640D-04 0.000000000000D+00 0.000000000000D+00 0.239881594653D-05 0.000000000000D+00  7 -2 2 24 -11 11 -24 21 0 0.89812605D-01 0.69627910D-01 0.14731794D+06 0.14731794D+06 0.14731794D+06 0.11081708D+01  1  2  2  1  7  1       -2 0.317473784172D-03 0.100000000000D+01
-.170740134117D-05 0.000000000000D+00 -.131681804890D-06 0.239881594653D-05 0.000000000000D+00  7 -2 2 24 -11 11 -24 21 2 0.89812605D-01 0.69627910D-01 0.14731794D+06 0.14731794D+06 0.14731794D+06 0.11081708D+01  1  2  3  1  7  1       -2 -.194129752521D-04 0.100000000000D+01
0.203396643385D-05 0.000000000000D+00 0.000000000000D+00 0.239881594653D-05 0.000000000000D+00  7 -2 2 24 -11 11 -24 21 2 0.89812605D-01 0.69627910D-01 0.14731794D+06 0.14731794D+06 0.14731794D+06 0.11081708D+01  1  2 15  1  7  1       -2 0.231259863114D-04 0.100000000000D+01
0.798328596515D-04 0.000000000000D+00 0.000000000000D+00 0.239881594653D-05 0.000000000000D+00  7 -2 2 24 -11 11 -24 21 2 0.95443531D-01 0.69627910D-01 0.16297378D+06 0.16297378D+06 0.16297378D+06 0.11047201D+01  1  2 12  1  7  1       -2 0.780257293987D-03 0.100000000000D+01
-.701689509690D-04 0.000000000000D+00 0.000000000000D+00 0.239881594653D-05 0.000000000000D+00  7 -2 2 24 -11 11 -24 21 2 0.89812605D-01 0.69627910D-01 0.14731794D+06 0.14731794D+06 0.14731794D+06 0.11081708D+01  1  2  4  1  7  1       -2 -.797813657388D-03 0.100000000000D+01
-.305664783895D-03 0.000000000000D+00 -.581277290983D-04 0.239881594653D-05 0.000000000000D+00  7 -2 2 24 -11 11 -24 21 2 0.96432929D-01 0.69627910D-01 0.14731794D+06 0.14731794D+06 0.14731794D+06 0.11081708D+01  1  2  5  1  7  1       -2 -.294188408938D-02 0.100000000000D+01
0.309163409364D-03 0.000000000000D+00 0.579810218273D-04 0.239881594653D-05 0.000000000000D+00  7 -2 2 24 -11 11 -24 21 2 0.89812605D-01 0.69627910D-01 0.14731794D+06 0.14731794D+06 0.14731794D+06 0.11081708D+01  1  2  6  1  7  1       -2 0.351515573410D-02 0.100000000000D+01
0.930090509772D-06 0.000000000000D+00 0.000000000000D+00 0.239881594653D-05 0.000000000000D+00  7 21 2 24 -11 11 -24 2 2 0.95443531D-01 0.69627910D-01 0.16297378D+06 0.16297378D+06 0.16297378D+06 0.11047201D+01  1  2 12  3  7  1       -2 0.860902933296D-04 0.100000000000D+01
-.357438042190D-05 0.000000000000D+00 -.698885937531D-06 0.239881594653D-05 0.000000000000D+00  7 21 2 24 -11 11 -24 2 2 0.96432929D-01 0.69627910D-01 0.14731794D+06 0.14731794D+06 0.14731794D+06 0.11081708D+01  1  2  5  3  7  1       -2 -.326289304816D-03 0.100000000000D+01
  </mgrwgt>
  </event>
  <event>
  8     66 0.27011060E-05 0.20008751E+03 0.75467711E-02 0.98886458E-01
       -2 -1    0    0    0  501 0.00000000E+00 0.00000000E+00 0.38826620E+03 0.38826634E+03 0.32000000E+00 0.0000E+00 0.9000E+01
        2 -1    0    0  501    0 0.00000000E+00 0.00000000E+00 -.12480988E+03 0.12481029E+03 0.32000000E+00 0.0000E+00 0.9000E+01
       25  2    1    2    0    0 0.54787793E+02 -.58583266E+02 0.14326692E+03 0.34178222E+03 0.29975985E+03 0.0000E+00 0.0000E+00
       23  2    1    2    0    0 -.54787793E+02 0.58583266E+02 0.12018940E+03 0.17129441E+03 0.91992295E+02 0.0000E+00 0.0000E+00
       24  1    3    3    0    0 -.18519839E+02 0.90625173E+02 0.80906191E+02 0.14686366E+03 0.80419002E+02 0.0000E+00 0.9000E+01
      -13  1    4    4    0    0 -.44979891E+02 0.66530508E+02 0.13167132E+03 0.15422985E+03 0.10565837E+00 0.0000E+00 0.9000E+01
       13  1    4    4    0    0 -.98079015E+01 -.79472417E+01 -.11481921E+02 0.17064561E+02 0.10565837E+00 0.0000E+00 0.9000E+01
      -24  1    3    3    0    0 0.73307632E+02 -.14920844E+03 0.62360733E+02 0.19491856E+03 0.80419002E+02 0.0000E+00 0.9000E+01
#aMCatNLO 1  0  0  1  1 0.24313360D+03 0.00000000D+00  -5  7  0 0.00000000D+00 0.00000000D+00 0.00000000D+00 0.00000000D+00 0.00000000D+00
  <mgrwgt>
 0.1188555533D-02    3    2    0
 0.220135408082139D+03 0.000000000000000D+00 0.000000000000000D+00 0.220135408082139D+03
 0.220135408082139D+03 0.000000000000000D+00 0.000000000000000D+00 -.220135408082139D+03
 0.122735955217299D+03 -.185198327353739D+02 0.906251631301590D+02 0.640268317333452D+01
 0.100942727389122D+03 -.449799453013617D+02 0.665306131161181D+02 0.611548546873790D+02
 0.267570936682464D+02 -.980785726425830D+01 -.794733638922488D+01 -.235921139742022D+02
 0.189835039889611D+03 0.733076353009939D+02 -.149208439857052D+03 -.439654238865113D+02
 0.000000000000000D+00 -.000000000000000D+00 0.000000000000000D+00 -.000000000000000D+00
 0.317808516016598D+03 0.000000000000000D+00 0.000000000000000D+00 0.317808516016598D+03
 0.474251870699760D+03 0.000000000000000D+00 0.000000000000000D+00 -.474251870699760D+03
 0.105218733400342D+03 0.314829168007358D+02 0.597628438237465D+02 0.640268317333452D+01
 0.748773324786175D+02 -.641312980700373D+01 0.427266946224196D+02 0.611548546873790D+02
 0.282620620121012D+02 0.226080900383157D+01 -.153962674064951D+02 -.235921139742022D+02
 0.294585547811292D+03 0.179567179528104D+03 -.214793152972132D+03 -.439654238865113D+02
 0.289116711014005D+03 -.206897775525668D+03 0.127699881932461D+03 -.156443354683162D+03
0.122787707669D-04 0.000000000000D+00 0.000000000000D+00 0.465505801149D-06 0.000000000000D+00  7 -2 2 24 -13 13 -24 21 0 0.59733304D-01 0.19201562D-01 0.40035010D+05 0.40035010D+05 0.40035010D+05 0.11558842D+01  1  2  2  1  7  1       -2 0.117808922762D-02 0.100000000000D+01
-.674591491618D-06 0.000000000000D+00 -.471537128196D-07 0.465505801149D-06 0.000000000000D+00  7 -2 2 24 -13 13 -24 21 2 0.59733304D-01 0.19201562D-01 0.40035010D+05 0.40035010D+05 0.40035010D+05 0.11558842D+01  1  2  3  1  7  1       -2 -.864754413832D-04 0.100000000000D+01
0.756238722534D-06 0.000000000000D+00 0.000000000000D+00 0.465505801149D-06 0.000000000000D+00  7 -2 2 24 -13 13 -24 21 2 0.59733304D-01 0.19201562D-01 0.40035010D+05 0.40035010D+05 0.40035010D+05 0.11558842D+01  1  2 15  1  7  1       -2 0.969417464269D-04 0.100000000000D+01
  </mgrwgt>
  </event>
  <event>
  7     66 0.27011060E-05 0.84369441E+02 0.75467711E-02 0.10163887E+00
       -2 -1    0    0    0  501 0.00000000E+00 0.00000000E+00 0.41224527E+02 0.41225769E+02 0.32000000E+00 0.0000E+00 0.9000E+01
        2 -1    0    0  501    0 0.00000000E+00 0.00000000E+00 -.13458678E+04 0.13458678E+04 0.32000000E+00 0.0000E+00 0.9000E+01
       25  2    1    2    0    0 0.50078856E+02 -.44831899E+02 -.94110883E+03 0.99007967E+03 0.30009018E+03 0.0000E+00 0.0000E+00
       24  1    3    3    0    0 0.86143655E+02 0.88209180E+02 -.48584847E+03 0.50765888E+03 0.80419002E+02 0.0000E+00 0.9000E+01
      -13  1    1    2    0    0 0.28936860E+02 0.46038905E+02 -.50679285E+02 0.74332522E+02 0.10565837E+00 0.0000E+00 0.9000E+01
       13  1    1    2    0    0 -.79015716E+02 -.12070066E+01 -.31285516E+03 0.32268142E+03 0.10565837E+00 0.0000E+00 0.9000E+01
      -24  1    3    3    0    0 -.36064799E+02 -.13304108E+03 -.45526036E+03 0.48242078E+03 0.80419002E+02 0.0000E+00 0.9000E+01
#aMCatNLO 1  0  0  2  1 0.10592196D+03 0.00000000D+00  -5  7  0 0.00000000D+00 0.00000000D+00 0.00000000D+00 0.00000000D+00 0.00000000D+00
  <mgrwgt>
 0.2066805316D-02    8    2    0
 0.235549680441543D+03 0.000000000000000D+00 0.000000000000000D+00 0.235549680441543D+03
 0.235549680441543D+03 0.000000000000000D+00 0.000000000000000D+00 -.235549680441543D+03
 0.149255300323509D+03 0.861822771608960D+02 0.881746050462214D+02 -.246532522924624D+02
 0.784957472854015D+02 0.288650352759542D+02 0.460583787348526D+02 0.566305379519603D+02
 0.836774121873104D+02 -.790238286501561D+02 -.115491829254424D+01 -.274919984645234D+02
 0.159670901086865D+03 -.360234837866942D+02 -.133078065488530D+03 -.448528719497441D+01
 0.000000000000000D+00 -.000000000000000D+00 -.000000000000000D+00 -.000000000000000D+00
 0.254869776348184D+03 0.000000000000000D+00 0.000000000000000D+00 0.254869776348184D+03
 0.450131307381010D+03 0.000000000000000D+00 0.000000000000000D+00 -.450131307381010D+03
 0.177223039691231D+03 0.957631978613738D+02 0.123135766249277D+03 -.246532522924624D+02
 0.921582126611569D+02 0.338730920352378D+02 0.643329772989165D+02 0.566305379519603D+02
 0.808199671104010D+02 -.741964445535063D+02 0.164603985301514D+02 -.274919984645234D+02
 0.132659081106643D+03 -.274446899296755D+02 -.101773705047674D+03 -.448528719497441D+01
 0.222140783159762D+03 -.279951554134298D+02 -.102155437030670D+03 -.195261531032825D+03
0.327133596025D-05 0.000000000000D+00 0.000000000000D+00 0.819996068845D-09 0.000000000000D+00  7 -2 2 24 -13 13 -24 21 0 0.63423335D-02 0.20705668D+00 0.48444282D+05 0.48444282D+05 0.48444282D+05 0.11485048D+01  1  2  2  2  7  2        2 0.794280868838D-03 0.100000000000D+01
-.180724010336D-06 0.000000000000D+00 -.125627914499D-07 0.819996068845D-09 0.000000000000D+00  7 -2 2 24 -13 13 -24 21 2 0.63423335D-02 0.20705668D+00 0.48444282D+05 0.48444282D+05 0.48444282D+05 0.11485048D+01  1  2  3  2  7  2        2 -.578802565682D-04 0.100000000000D+01
0.214211424222D-06 0.000000000000D+00 0.000000000000D+00 0.819996068845D-09 0.000000000000D+00  7 -2 2 24 -13 13 -24 21 2 0.63423335D-02 0.20705668D+00 0.48444282D+05 0.48444282D+05 0.48444282D+05 0.11485048D+01  1  2 15  2  7  2        2 0.686052294367D-04 0.100000000000D+01
0.302661657726D-05 0.000000000000D+00 0.000000000000D+00 0.819996068845D-09 0.000000000000D+00  7 -2 2 24 -13 13 -24 21 2 0.63423335D-02 0.39702017D+00 0.79160971D+05 0.79160971D+05 0.79160971D+05 0.11301468D+01  1  2 12  2  7  2        2 0.200688741670D-03 0.100000000000D+01
-.437737734453D-05 0.000000000000D+00 -.941482791481D-06 0.819996068845D-09 0.000000000000D+00  7 -2 2 24 -13 13 -24 21 2 0.63423335D-02 0.40381877D+00 0.48444282D+05 0.48444282D+05 0.48444282D+05 0.11485048D+01  1  2  5  2  7  2        2 -.286539812047D-03 0.100000000000D+01
0.420884695403D-05 0.000000000000D+00 0.764492208845D-06 0.819996068845D-09 0.000000000000D+00  7 -2 2 24 -13 13 -24 21 2 0.63423335D-02 0.20705668D+00 0.48444282D+05 0.48444282D+05 0.48444282D+05 0.11485048D+01  1  2  6  2  7  2        2 0.134796223868D-02 0.100000000000D+01
0.213863524382D-06 0.000000000000D+00 0.000000000000D+00 0.819996068845D-09 0.000000000000D+00  7 -2 21 24 -13 13 -24 -2 2 0.63423335D-02 0.39702017D+00 0.79160971D+05 0.79160971D+05 0.79160971D+05 0.11301468D+01  1  2 12  4  7  2        2 0.164486910608D-05 0.100000000000D+01
-.261617876230D-06 0.000000000000D+00 -.681520096093D-07 0.819996068845D-09 0.000000000000D+00  7 -2 21 24 -13 13 -24 -2 2 0.63423335D-02 0.40381877D+00 0.48444282D+05 0.48444282D+05 0.48444282D+05 0.11485048D+01  1  2  5  4  7  2        2 -.195656294028D-05 0.100000000000D+01
  </mgrwgt>
  </event>
  <event>
  8     66 0.27011060E-05 0.38781499E+03 0.75467711E-02 0.97504794E-01
       -2 -1    0    0    0  501 0.00000000E+00 0.00000000E+00 0.65428927E+02 0.65429710E+02 0.32000000E+00 0.0000E+00 0.9000E+01
        2 -1    0    0  501    0 0.00000000E+00 0.00000000E+00 -.39402338E+04 0.39402338E+04 0.32000000E+00 0.0000E+00 0.9000E+01
       25  2    1    2    0    0 0.27938124E+03 0.19550263E+03 -.33035313E+04 0.33343355E+04 0.29698295E+03 0.0000E+00 0.0000E+00
       23  2    1    2    0    0 -.27938124E+03 -.19550263E+03 -.57127354E+03 0.67132801E+03 0.89736764E+02 0.0000E+00 0.0000E+00
       24  1    3    3    0    0 0.69455441E+02 -.28751792E+02 -.14168811E+04 0.14211509E+04 0.80419002E+02 0.0000E+00 0.9000E+01
      -13  1    4    4    0    0 -.20921562E+03 -.18038249E+03 -.49307075E+03 0.56517943E+03 0.10565837E+00 0.0000E+00 0.9000E+01
       13  1    4    4    0    0 -.70165619E+02 -.15120140E+02 -.78202788E+02 0.10614858E+03 0.10565837E+00 0.0000E+00 0.9000E+01
      -24  1    3    3    0    0 0.20992580E+03 0.22425442E+03 -.18866502E+04 0.19131846E+04 0.80419002E+02 0.0000E+00 0.9000E+01
#aMCatNLO 1  0  0  1  1 0.63519137D+01 0.00000000D+00  -5  7  0 0.00000000D+00 0.00000000D+00 0.00000000D+00 0.00000000D+00 0.00000000D+00
  <mgrwgt>
 0.1993861651D-02    8    2    0
 0.507746849482082D+03 0.000000000000000D+00 0.000000000000000D+00 0.507746849482082D+03
 0.507746849482082D+03 0.000000000000000D+00 0.000000000000000D+00 -.507746849482082D+03
 0.199424857690542D+03 0.694554413461568D+02 -.287517921967986D+02 -.166289909565809D+03
 0.347974609676759D+03 -.209215814315180D+03 -.180382718212057D+03 0.211606112838355D+03
 0.120310554245196D+03 -.701654265682101D+02 -.151199110395186D+02 0.965548065475992D+02
 0.347783677351669D+03 0.209925799537233D+03 0.224254421448374D+03 -.141871009820145D+03
 0.000000000000000D+00 -.000000000000000D+00 -.000000000000000D+00 -.000000000000000D+00
 0.508402869305613D+03 0.000000000000000D+00 0.000000000000000D+00 0.508402869305613D+03
 0.523368766328733D+03 0.000000000000000D+00 0.000000000000000D+00 -.523368766328733D+03
 0.199777738828590D+03 0.706316440362154D+02 -.283331222146451D+02 -.166289909565809D+03
 0.346370183969015D+03 -.207170010452090D+03 -.179654513223164D+03 0.211606112838355D+03
 0.119867720887798D+03 -.694577700154513D+02 -.148680203077438D+02 0.965548065475992D+02
 0.349497920696222D+03 0.211980256343134D+03 0.224985706456929D+03 -.141871009820145D+03
 0.162580712527215D+02 -.598411991180884D+01 -.213005071137588D+01 -.149658970231200D+02
0.665269970893D-03 0.000000000000D+00 0.000000000000D+00 0.733562641912D-07 0.000000000000D+00  7 -2 2 24 -13 13 -24 21 0 0.10066050D-01 0.60618987D+00 0.15040046D+06 0.15040046D+06 0.15040046D+06 0.11074605D+01  1  2  2  1  7  1       -2 0.204446355007D-02 0.100000000000D+01
-.336967353637D-04 0.000000000000D+00 -.255481185783D-05 0.733562641912D-07 0.000000000000D+00  7 -2 2 24 -13 13 -24 21 2 0.10066050D-01 0.60618987D+00 0.15040046D+06 0.15040046D+06 0.15040046D+06 0.11074605D+01  1  2  3  1  7  1       -2 -.127006455182D-03 0.100000000000D+01
0.407672692846D-04 0.000000000000D+00 0.000000000000D+00 0.733562641912D-07 0.000000000000D+00  7 -2 2 24 -13 13 -24 21 2 0.10066050D-01 0.60618987D+00 0.15040046D+06 0.15040046D+06 0.15040046D+06 0.11074605D+01  1  2 15  1  7  1       -2 0.153656023451D-03 0.100000000000D+01
-.363101788487D-04 0.000000000000D+00 0.000000000000D+00 0.733562641912D-07 0.000000000000D+00  7 -2 2 24 -13 13 -24 21 2 0.10066050D-01 0.60618987D+00 0.15040046D+06 0.15040046D+06 0.15040046D+06 0.11074605D+01  1  2  4  1  7  1       -2 -.136856791995D-03 0.100000000000D+01
0.199683345210D-04 0.000000000000D+00 0.000000000000D+00 0.733562641912D-07 0.000000000000D+00  7 -2 2 24 -13 13 -24 21 2 0.10889517D-01 0.60618987D+00 0.15040046D+06 0.15040046D+06 0.15040046D+06 0.11074605D+01  1  2  5  1  7  1       -2 0.665906526039D-04 0.100000000000D+01
-.199067607760D-04 0.000000000000D+00 0.000000000000D+00 0.733562641912D-07 0.000000000000D+00  7 -2 2 24 -13 13 -24 21 2 0.10066050D-01 0.60618987D+00 0.15040046D+06 0.15040046D+06 0.15040046D+06 0.11074605D+01  1  2  6  1  7  1       -2 -.750306251636D-04 0.100000000000D+01
0.162122427518D-04 0.000000000000D+00 0.000000000000D+00 0.733562641912D-07 0.118848072276D-07  7 -2 2 24 -13 13 -24 21 2 0.10079056D-01 0.62484060D+00 0.15277465D+06 0.15277465D+06 0.15277465D+06 0.11069243D+01  1  2 11  1  7  1       -2 0.484599121648D-04 0.100000000000D+01
0.453871676684D-06 0.000000000000D+00 0.000000000000D+00 0.733562641912D-07 0.290020796092D-11  7 21 2 24 -13 13 -24 2 2 0.10079056D-01 0.62484060D+00 0.15277465D+06 0.15277465D+06 0.15277465D+06 0.11069243D+01  1  2 11  3  7  1       -2 0.195853846571D-04 0.100000000000D+01
  </mgrwgt>
  </event>
  <event>
  8     66 0.27011060E-05 0.98364194E+02 0.75467711E-02 0.10910793E+00
       -2 -1    0    0    0  501 0.00000000E+00 0.00000000E+00 0.24321682E+02 0.24323787E+02 0.32000000E+00 0.0000E+00 0.9000E+01
        2 -1    0    0  501    0 0.00000000E+00 0.00000000E+00 -.18095412E+04 0.18095412E+04 0.32000000E+00 0.0000E+00 0.9000E+01
       25  2    1    2    0    0 0.43502315E+02 0.30203502E+02 -.14609092E+04 0.14923089E+04 0.29987548E+03 0.0000E+00 0.0000E+00
       23  2    1    2    0    0 -.43502315E+02 -.30203502E+02 -.32431025E+03 0.34155610E+03 0.93159693E+02 0.0000E+00 0.0000E+00
       24  1    3    3    0    0 -.25956219E+02 0.59056906E+02 -.12512870E+04 0.12555269E+04 0.80419002E+02 0.0000E+00 0.9000E+01
      -13  1    4    4    0    0 0.22009294E+02 -.35083459E+02 -.13060612E+03 0.13701543E+03 0.10565837E+00 0.0000E+00 0.9000E+01
       13  1    4    4    0    0 -.65511609E+02 0.48799573E+01 -.19370413E+03 0.20454067E+03 0.10565837E+00 0.0000E+00 0.9000E+01
      -24  1    3    3    0    0 0.69458533E+02 -.28853404E+02 -.20962226E+03 0.23678199E+03 0.80419002E+02 0.0000E+00 0.9000E+01
#aMCatNLO 1  0  0  1  2 0.11351717D+02 0.00000000D+00  -5  7  0 0.00000000D+00 0.00000000D+00 0.00000000D+00 0.00000000D+00 0.00000000D+00
  <mgrwgt>
 0.5534736098D-03    9    2    0
 0.209792850644868D+03 0.000000000000000D+00 0.000000000000000D+00 0.209792850644868D+03
 0.209792850644868D+03 0.000000000000000D+00 0.000000000000000D+00 -.209792850644868D+03
 0.163601923799285D+03 -.259557834959739D+02 0.590572078127661D+02 -.127031165565487D+03
 0.431545586215638D+02 0.220086291093699D+02 -.350834422793698D+02 0.121279945736426D+02
 0.698204282628923D+02 -.655117592442097D+02 0.487937459403263D+01 0.236493828061858D+02
 0.143008790605996D+03 0.694589136308136D+02 -.288531401274289D+02 0.912537881856591D+02
 0.000000000000000D+00 -.000000000000000D+00 0.000000000000000D+00 0.000000000000000D+00
 0.217543764515529D+03 0.000000000000000D+00 0.000000000000000D+00 0.217543764515529D+03
 0.214067523182364D+03 0.000000000000000D+00 0.000000000000000D+00 -.214067523182364D+03
 0.161969132573294D+03 -.232551146114427D+02 0.555793718177632D+02 -.127031165565487D+03
 0.442852252162495D+02 0.227339574174572D+02 -.360174971398191D+02 0.121279945736426D+02
 0.686546496706932D+02 -.643630842408940D+02 0.340014724558821D+01 0.236493828061858D+02
 0.144830223728313D+03 0.718465886238794D+02 -.319279124857937D+02 0.912537881856591D+02
 0.118720565093428D+02 -.696234718899997D+01 0.896589056226141D+01 0.347624133316496D+01
0.321901500431D-05 0.000000000000D+00 0.000000000000D+00 0.827055621535D-07 0.000000000000D+00  7 -2 2 24 -13 13 -24 21 0 0.37419613D-02 0.27839111D+00 0.25650296D+05 0.25650296D+05 0.25650296D+05 0.11737009D+01  1  2  2  1  7  1       -2 0.966973158186D-03 0.100000000000D+01
-.162987122775D-06 0.000000000000D+00 -.123618652027D-07 0.827055621535D-07 0.000000000000D+00  7 -2 2 24 -13 13 -24 21 2 0.37419613D-02 0.27839111D+00 0.25650296D+05 0.25650296D+05 0.25650296D+05 0.11737009D+01  1  2  3  1  7  1       -2 -.674465209236D-04 0.100000000000D+01
0.209418999601D-06 0.000000000000D+00 0.000000000000D+00 0.827055621535D-07 0.000000000000D+00  7 -2 2 24 -13 13 -24 21 2 0.37419613D-02 0.27839111D+00 0.25650296D+05 0.25650296D+05 0.25650296D+05 0.11737009D+01  1  2 15  1  7  1       -2 0.866607293748D-04 0.100000000000D+01
0.718047249446D-05 0.000000000000D+00 0.000000000000D+00 0.827055621535D-07 0.000000000000D+00  7 -2 2 24 -13 13 -24 21 2 0.39172309D-02 0.27839111D+00 0.27447657D+05 0.27447657D+05 0.27447657D+05 0.11709358D+01  1  2 12  1  7  1       -2 0.276607567997D-02 0.100000000000D+01
-.655950250058D-05 0.000000000000D+00 0.000000000000D+00 0.827055621535D-07 0.000000000000D+00  7 -2 2 24 -13 13 -24 21 2 0.37419613D-02 0.27839111D+00 0.25650296D+05 0.25650296D+05 0.25650296D+05 0.11737009D+01  1  2  4  1  7  1       -2 -.271442071694D-02 0.100000000000D+01
-.416631234141D-04 0.000000000000D+00 -.715239761976D-05 0.827055621535D-07 0.000000000000D+00  7 -2 2 24 -13 13 -24 21 2 0.39693461D-02 0.27839111D+00 0.25650296D+05 0.25650296D+05 0.25650296D+05 0.11737009D+01  1  2  5  1  7  1       -2 -.158139616381D-01 0.100000000000D+01
0.420243377178D-04 0.000000000000D+00 0.713997047900D-05 0.827055621535D-07 0.000000000000D+00  7 -2 2 24 -13 13 -24 21 2 0.37419613D-02 0.27839111D+00 0.25650296D+05 0.25650296D+05 0.25650296D+05 0.11737009D+01  1  2  6  1  7  1       -2 0.173903025278D-01 0.100000000000D+01
0.965307085628D-07 0.000000000000D+00 0.000000000000D+00 0.827055621535D-07 0.000000000000D+00  7 21 2 24 -13 13 -24 2 2 0.39172309D-02 0.27839111D+00 0.27447657D+05 0.27447657D+05 0.27447657D+05 0.11709358D+01  1  2 12  3  7  1       -2 0.639473520621D-03 0.100000000000D+01
-.414029114705D-06 0.000000000000D+00 -.725640070802D-07 0.827055621535D-07 0.000000000000D+00  7 21 2 24 -13 13 -24 2 2 0.39693461D-02 0.27839111D+00 0.25650296D+05 0.25650296D+05 0.25650296D+05 0.11737009D+01  1  2  5  3  7  1       -2 -.270018313019D-02 0.100000000000D+01
  </mgrwgt>
  </event>
  <event>
  8     66 0.27011060E-05 0.18285741E+03 0.75467711E-02 0.10663225E+00
       -2 -1    0    0    0  501 0.00000000E+00 0.00000000E+00 0.39617829E+02 0.39619121E+02 0.32000000E+00 0.0000E+00 0.9000E+01
        2 -1    0    0  501    0 0.00000000E+00 0.00000000E+00 -.13361825E+04 0.13361825E+04 0.32000000E+00 0.0000E+00 0.9000E+01
       25  2    1    2    0    0 0.92962396E+02 0.35251567E+01 -.74546964E+03 0.80913461E+03 0.30053185E+03 0.0000E+00 0.0000E+00
       23  2    1    2    0    0 -.92962396E+02 -.35251567E+01 -.55109498E+03 0.56666700E+03 0.93548807E+02 0.0000E+00 0.0000E+00
       24  1    3    3    0    0 0.12391614E+03 0.70036142E+02 -.22930746E+03 0.28161924E+03 0.80419002E+02 0.0000E+00 0.9000E+01
      -13  1    4    4    0    0 -.47227011E+02 0.22306269E+01 -.47744965E+03 0.47978490E+03 0.10565837E+00 0.0000E+00 0.9000E+01
       13  1    4    4    0    0 -.45735384E+02 -.57557837E+01 -.73645328E+02 0.86882104E+02 0.10565837E+00 0.0000E+00 0.9000E+01
      -24  1    3    3    0    0 -.30953746E+02 -.66510986E+02 -.51616219E+03 0.52751537E+03 0.80419002E+02 0.0000E+00 0.9000E+01
#aMCatNLO 1  0  0  1  1 0.25411751D+02 0.00000000D+00  -5  7  0 0.00000000D+00 0.00000000D+00 0.00000000D+00 0.00000000D+00 0.00000000D+00
  <mgrwgt>
 0.7850751709D-03    4    2    0
 0.230081644436707D+03 0.000000000000000D+00 0.000000000000000D+00 0.230081644436707D+03
 0.230081644436707D+03 0.000000000000000D+00 0.000000000000000D+00 -.230081644436707D+03
 0.195887652035902D+03 0.123916224156957D+03 0.700361455645930D+02 0.107909517517716D+03
 0.891955748619501D+02 -.472271276257294D+02 0.223062210439230D+01 -.756338106682733D+02
 0.522565932177284D+02 -.457354014581878D+02 -.575578388228195D+01 0.246149454616905D+02
 0.122823468757834D+03 -.309536950730397D+02 -.665109837867033D+02 -.568906523111329D+02
 0.000000000000000D+00 -.000000000000000D+00 -.000000000000000D+00 -.000000000000000D+00
 0.232454045322454D+03 0.000000000000000D+00 0.000000000000000D+00 0.232454045322454D+03
 0.310280003236394D+03 0.000000000000000D+00 0.000000000000000D+00 -.310280003236394D+03
 0.202577001841657D+03 0.128548533426088D+03 0.800064766370817D+02 0.107909517517716D+03
 0.883442865723447D+02 -.451631564861086D+02 0.667300157227762D+01 -.756338106682733D+02
 0.509837590613767D+02 -.445351915119431D+02 -.317251713014652D+01 0.246149454616905D+02
 0.118959368065719D+03 -.281428739243247D+02 -.604611248912714D+02 -.568906523111329D+02
 0.818696330177509D+02 -.107073115037113D+02 -.230458361879414D+02 -.778259579139394D+02
0.312999196654D-05 0.000000000000D+00 0.000000000000D+00 0.842519671216D-07 0.000000000000D+00  7 -2 2 24 -13 13 -24 21 0 0.60951529D-02 0.20556663D+00 0.33436831D+05 0.33436831D+05 0.33436831D+05 0.11629906D+01  1  2  2  1  7  1       -2 0.814469279314D-03 0.100000000000D+01
-.162730645774D-06 0.000000000000D+00 -.120199932973D-07 0.842519671216D-07 0.000000000000D+00  7 -2 2 24 -13 13 -24 21 2 0.60951529D-02 0.20556663D+00 0.33436831D+05 0.33436831D+05 0.33436831D+05 0.11629906D+01  1  2  3  1  7  1       -2 -.572734377539D-04 0.100000000000D+01
0.197877515675D-06 0.000000000000D+00 0.000000000000D+00 0.842519671216D-07 0.000000000000D+00  7 -2 2 24 -13 13 -24 21 2 0.60951529D-02 0.20556663D+00 0.33436831D+05 0.33436831D+05 0.33436831D+05 0.11629906D+01  1  2 15  1  7  1       -2 0.696434621947D-04 0.100000000000D+01
-.118664158710D-06 0.000000000000D+00 0.000000000000D+00 0.842519671216D-07 0.000000000000D+00  7 -2 2 24 -13 13 -24 21 2 0.60951529D-02 0.20556663D+00 0.33436831D+05 0.33436831D+05 0.33436831D+05 0.11629906D+01  1  2  4  1  7  1       -2 -.417641328413D-04 0.100000000000D+01
  </mgrwgt>
  </event>
  <event>
  8     66 0.27011060E-05 0.20187370E+03 0.75467711E-02 0.10236922E+00
       -2 -1    0    0    0  501 0.00000000E+00 0.00000000E+00 0.97195744E+02 0.97196271E+02 0.32000000E+00 0.0000E+00 0.9000E+01
        2 -1    0    0  501    0 0.00000000E+00 0.00000000E+00 -.80951318E+03 0.80951324E+03 0.32000000E+00 0.0000E+00 0.9000E+01
       25  2    1    2    0    0 0.11676059E+03 0.10528465E+03 -.60449554E+03 0.69285405E+03 0.29985662E+03 0.0000E+00 0.0000E+00
       23  2    1    2    0    0 -.11676059E+03 -.10528465E+03 -.10782190E+03 0.21385546E+03 0.96905647E+02 0.0000E+00 0.0000E+00
       24  1    3    3    0    0 0.54049781E+01 0.16788052E+03 -.36488885E+03 0.40966349E+03 0.80419002E+02 0.0000E+00 0.9000E+01
      -11  1    4    4    0    0 -.84065951E+02 -.11079831E+03 -.11436098E+03 0.18006050E+03 0.51099893E-03 0.0000E+00 0.9000E+01
       11  1    4    4    0    0 -.32694640E+02 0.55136654E+01 0.65390788E+01 0.33794963E+02 0.51099893E-03 0.0000E+00 0.9000E+01
      -24  1    3    3    0    0 0.11135561E+03 -.62595875E+02 -.23960669E+03 0.28319057E+03 0.80419002E+02 0.0000E+00 0.9000E+01
#aMCatNLO 1  0  0  2  1 0.22329088D+02 0.00000000D+00  -5  7  0 0.00000000D+00 0.00000000D+00 0.00000000D+00 0.00000000D+00 0.00000000D+00
  <mgrwgt>
 0.8941366838D-03    9    2    0
 0.280502234138522D+03 0.000000000000000D+00 0.000000000000000D+00 0.280502234138522D+03
 0.280502234138522D+03 0.000000000000000D+00 0.000000000000000D+00 -.280502234138522D+03
 0.198802499889249D+03 0.540497813822005D+01 0.167880522025489D+03 -.695854477862952D+02
 0.145812116956066D+03 -.840659508106979D+02 -.110798312440411D+03 0.437929597750581D+02
 0.629230538734769D+02 -.326946398063433D+02 0.551366532507343D+01 0.534786941817116D+02
 0.153466797558251D+03 0.111355612478821D+03 -.625958749101513D+02 -.276862061704745D+02
 0.000000000000000D+00 -.000000000000000D+00 -.000000000000000D+00 -.000000000000000D+00
 0.283930146934280D+03 0.000000000000000D+00 0.000000000000000D+00 0.283930146934280D+03
 0.319605873757640D+03 0.000000000000000D+00 0.000000000000000D+00 -.319605873757640D+03
 0.205616043829243D+03 0.641477531423279D+01 0.175862041497497D+03 -.695854477862952D+02
 0.141132476367499D+03 -.833494756526944D+02 -.105135234189989D+03 0.437929597750581D+02
 0.630272588035748D+02 -.323801530647370D+02 0.799939425306537D+01 0.534786941817116D+02
 0.151672884360418D+03 0.112117519156635D+03 -.565737022112367D+02 -.276862061704745D+02
 0.420873573311854D+02 -.280266575343650D+01 -.221524993493370D+02 -.356757268233602D+02
0.442601567754D-05 0.000000000000D+00 0.000000000000D+00 0.476050891351D-07 0.000000000000D+00  7 -2 2 24 -11 11 -24 21 0 0.14953237D-01 0.12454053D+00 0.64875125D+05 0.64875125D+05 0.64875125D+05 0.11374774D+01  1  2  2  2  7  2        2 0.599427167152D-03 0.100000000000D+01
-.243107332950D-06 0.000000000000D+00 -.169970655984D-07 0.476050891351D-07 0.000000000000D+00  7 -2 2 24 -11 11 -24 21 2 0.14953237D-01 0.12454053D+00 0.64875125D+05 0.64875125D+05 0.64875125D+05 0.11374774D+01  1  2  3  2  7  2        2 -.425997513459D-04 0.100000000000D+01
0.280897609228D-06 0.000000000000D+00 0.000000000000D+00 0.476050891351D-07 0.000000000000D+00  7 -2 2 24 -11 11 -24 21 2 0.14953237D-01 0.12454053D+00 0.64875125D+05 0.64875125D+05 0.64875125D+05 0.11374774D+01  1  2 15  2  7  2        2 0.492217497578D-04 0.100000000000D+01
0.269231280899D-04 0.000000000000D+00 0.000000000000D+00 0.476050891351D-07 0.000000000000D+00  7 -2 2 24 -11 11 -24 21 2 0.14953237D-01 0.14259624D+00 0.70877566D+05 0.70877566D+05 0.70877566D+05 0.11341999D+01  1  2 12  2  7  2        2 0.393638419652D-02 0.100000000000D+01
-.273109945889D-04 0.000000000000D+00 0.000000000000D+00 0.476050891351D-07 0.000000000000D+00  7 -2 2 24 -11 11 -24 21 2 0.14953237D-01 0.12454053D+00 0.64875125D+05 0.64875125D+05 0.64875125D+05 0.11374774D+01  1  2  4  2  7  2        2 -.478571158006D-02 0.100000000000D+01
-.395420592231D-04 0.000000000000D+00 -.440565424322D-05 0.476050891351D-07 0.000000000000D+00  7 -2 2 24 -11 11 -24 21 2 0.14953237D-01 0.14273576D+00 0.64875125D+05 0.64875125D+05 0.64875125D+05 0.11374774D+01  1  2  5  2  7  2        2 -.580837615369D-02 0.100000000000D+01
0.398127430780D-04 0.000000000000D+00 0.436500743411D-05 0.476050891351D-07 0.000000000000D+00  7 -2 2 24 -11 11 -24 21 2 0.14953237D-01 0.12454053D+00 0.64875125D+05 0.64875125D+05 0.64875125D+05 0.11374774D+01  1  2  6  2  7  2        2 0.697639571353D-02 0.100000000000D+01
0.564808956150D-06 0.000000000000D+00 0.000000000000D+00 0.476050891351D-07 0.000000000000D+00  7 -2 21 24 -11 11 -24 -2 2 0.14953237D-01 0.14259624D+00 0.70877566D+05 0.70877566D+05 0.70877566D+05 0.11341999D+01  1  2 12  4  7  2        2 0.691526916807D-04 0.100000000000D+01
-.808727683953D-06 0.000000000000D+00 -.929739527663D-07 0.476050891351D-07 0.000000000000D+00  7 -2 21 24 -11 11 -24 -2 2 0.14953237D-01 0.14273576D+00 0.64875125D+05 0.64875125D+05 0.64875125D+05 0.11374774D+01  1  2  5  4  7  2        2 -.997573497955D-04 0.100000000000D+01
  </mgrwgt>
  </event>
  <event>
  8     66 0.27011060E-05 0.68655203E+02 0.75467711E-02 0.10169694E+00
       -2 -1    0    0    0  501 0.00000000E+00 0.00000000E+00 0.15846275E+03 0.15846307E+03 0.32000000E+00 0.0000E+00 0.9000E+01
        2 -1    0    0  501    0 0.00000000E+00 0.00000000E+00 -.51735134E+03 0.51735143E+03 0.32000000E+00 0.0000E+00 0.9000E+01
       25  2    1    2    0    0 0.15467800E+03 -.10010885E+03 -.14933444E+03 0.38213847E+03 0.29963640E+03 0.0000E+00 0.0000E+00
       23  2    1    2    0    0 -.15467800E+03 0.10010885E+03 -.20955415E+03 0.29367604E+03 0.91572953E+02 0.0000E+00 0.0000E+00
       24  1    3    3    0    0 0.16598024E+03 -.17957582E+02 -.18439422E+03 0.26141989E+03 0.80419002E+02 0.0000E+00 0.9000E+01
      -13  1    4    4    0    0 -.19712759E+02 0.38607302E+00 0.59005773E+01 0.20580814E+02 0.10565837E+00 0.0000E+00 0.9000E+01
       13  1    4    4    0    0 -.13496524E+03 0.99722776E+02 -.21545473E+03 0.27309522E+03 0.10565837E+00 0.0000E+00 0.9000E+01
      -24  1    3    3    0    0 -.11302234E+02 -.82151267E+02 0.35059784E+02 0.12071858E+03 0.80419002E+02 0.0000E+00 0.9000E+01
#aMCatNLO 1  0  0  2  1 0.67241823D+02 0.00000000D+00  -5  7  0 0.00000000D+00 0.00000000D+00 0.00000000D+00 0.00000000D+00 0.00000000D+00
  <mgrwgt>
 0.1036392309D-02    9    2    0
 0.286323342788049D+03 0.000000000000000D+00 0.000000000000000D+00 0.286323342788049D+03
 0.286323342788049D+03 0.000000000000000D+00 0.000000000000000D+00 -.286323342788049D+03
 0.192953830421534D+03 0.165980237016068D+03 -.179575825224011D+02 -.537777916059479D+02
 0.279864374108331D+02 -.197126060872191D+02 0.385941504767281D+00 0.198621471486723D+02
 0.187266587063949D+03 -.134965397581566D+03 0.997229084788896D+02 -.831171318726810D+02
 0.164439830679782D+03 -.113022333472828D+02 -.821512674612557D+02 0.117032776329957D+03
 0.000000000000000D+00 0.000000000000000D+00 -.000000000000000D+00 -.000000000000000D+00
 0.301986236993723D+03 0.000000000000000D+00 0.000000000000000D+00 0.301986236993723D+03
 0.370824747438482D+03 0.000000000000000D+00 0.000000000000000D+00 -.370824747438482D+03
 0.177264345610402D+03 0.148445027375929D+03 -.523977553528160D+01 -.537777916059479D+02
 0.300790956259847D+02 -.224628527271332D+02 0.238062002023477D+01 0.198621471486723D+02
 0.208257198298289D+03 -.153699195495879D+03 0.113310018693105D+03 -.831171318726810D+02
 0.160980394890937D+03 -.267156091509370D+02 -.709723684053749D+02 0.117032776329957D+03
 0.962299500065923D+02 0.544326299980197D+02 -.394784947726836D+02 -.688385104447585D+02
0.806847917278D-05 0.000000000000D+00 0.000000000000D+00 0.116319057087D-05 0.000000000000D+00  7 -2 2 24 -13 13 -24 21 0 0.24378917D-01 0.79592546D-01 0.59621494D+05 0.59621494D+05 0.59621494D+05 0.11406325D+01  1  2  2  2  7  2        2 0.829555521183D-03 0.100000000000D+01
-.434429627943D-06 0.000000000000D+00 -.309850845028D-07 0.116319057087D-05 0.000000000000D+00  7 -2 2 24 -13 13 -24 21 2 0.24378917D-01 0.79592546D-01 0.59621494D+05 0.59621494D+05 0.59621494D+05 0.11406325D+01  1  2  3  2  7  2        2 -.581118458869D-04 0.100000000000D+01
0.481448815569D-06 0.000000000000D+00 0.000000000000D+00 0.116319057087D-05 0.000000000000D+00  7 -2 2 24 -13 13 -24 21 2 0.24378917D-01 0.79592546D-01 0.59621494D+05 0.59621494D+05 0.59621494D+05 0.11406325D+01  1  2 15  2  7  2        2 0.644014072090D-04 0.100000000000D+01
0.129635530103D-04 0.000000000000D+00 0.000000000000D+00 0.116319057087D-05 0.000000000000D+00  7 -2 2 24 -13 13 -24 21 2 0.24378917D-01 0.10478767D+00 0.78463705D+05 0.78463705D+05 0.78463705D+05 0.11304696D+01  1  2 12  2  7  2        2 0.124272971767D-02 0.100000000000D+01
-.136937650948D-04 0.000000000000D+00 0.000000000000D+00 0.116319057087D-05 0.000000000000D+00  7 -2 2 24 -13 13 -24 21 2 0.24378917D-01 0.79592546D-01 0.59621494D+05 0.59621494D+05 0.59621494D+05 0.11406325D+01  1  2  4  2  7  2        2 -.183175804691D-02 0.100000000000D+01
-.190930532875D-04 0.000000000000D+00 -.438663281199D-05 0.116319057087D-05 0.000000000000D+00  7 -2 2 24 -13 13 -24 21 2 0.24378917D-01 0.10663252D+00 0.59621494D+05 0.59621494D+05 0.59621494D+05 0.11406325D+01  1  2  5  2  7  2        2 -.182772115456D-02 0.100000000000D+01
0.197082299963D-04 0.000000000000D+00 0.420548365279D-05 0.116319057087D-05 0.000000000000D+00  7 -2 2 24 -13 13 -24 21 2 0.24378917D-01 0.79592546D-01 0.59621494D+05 0.59621494D+05 0.59621494D+05 0.11406325D+01  1  2  6  2  7  2        2 0.263628802132D-02 0.100000000000D+01
0.470485967248D-06 0.000000000000D+00 0.000000000000D+00 0.116319057087D-05 0.000000000000D+00  7 -2 21 24 -13 13 -24 -2 2 0.24378917D-01 0.10478767D+00 0.78463705D+05 0.78463705D+05 0.78463705D+05 0.11304696D+01  1  2 12  4  7  2        2 0.591662119118D-04 0.100000000000D+01
-.630063753697D-06 0.000000000000D+00 -.166476735364D-06 0.116319057087D-05 0.000000000000D+00  7 -2 21 24 -13 13 -24 -2 2 0.24378917D-01 0.10663252D+00 0.59621494D+05 0.59621494D+05 0.59621494D+05 0.11406325D+01  1  2  5  4  7  2        2 -.781575227541D-04 0.100000000000D+01
  </mgrwgt>
  </event>
  <event>
  9     66 0.27011060E-05 0.41544678E+03 0.75467711E-02 0.94855649E-01
       -2 -1    0    0    0  501 0.00000000E+00 0.00000000E+00 0.16691241E+03 0.16691271E+03 0.32000000E+00 0.0000E+00 0.9000E+01
        2 -1    0    0  502    0 0.00000000E+00 0.00000000E+00 -.16170969E+04 0.16170970E+04 0.32000000E+00 0.0000E+00 0.9000E+01
       25  2    1    2    0    0 0.26480074E+03 0.21285855E+03 -.60619978E+03 0.75724826E+03 0.30086304E+03 0.0000E+00 0.0000E+00
       23  2    1    2    0    0 -.19917821E+03 -.33375035E+03 -.40525724E+03 0.56697502E+03 0.78523767E+02 0.0000E+00 0.0000E+00
       24  1    3    3    0    0 0.26738668E+03 0.23996697E+03 -.50888945E+03 0.62810466E+03 0.80419002E+02 0.0000E+00 0.9000E+01
      -11  1    4    4    0    0 -.47205230E+02 -.61200444E+02 -.41573758E+02 0.87762210E+02 0.51099893E-03 0.0000E+00 0.9000E+01
       11  1    4    4    0    0 -.15197298E+03 -.27254990E+03 -.36368348E+03 0.47921281E+03 0.51099893E-03 0.0000E+00 0.9000E+01
      -24  1    3    3    0    0 -.25859348E+01 -.27108420E+02 -.97310325E+02 0.12914360E+03 0.80419002E+02 0.0000E+00 0.9000E+01
       21  1    1    2  502  501 -.65622535E+02 0.12089180E+03 -.43872750E+03 0.45978639E+03 0.75000000E+00 0.0000E+00 0.9000E+01
#aMCatNLO 2  0  0  2  1 0.13755415D+03 0.00000000D+00  -5  7  0 0.00000000D+00 0.00000000D+00 0.00000000D+00 0.00000000D+00 0.00000000D+00
  <mgrwgt>
 0.5506701177D-04    2    2    0
 0.421782184852344D+03 0.000000000000000D+00 0.000000000000000D+00 0.421782184852344D+03
 0.421782184852344D+03 0.000000000000000D+00 0.000000000000000D+00 -.421782184852344D+03
 0.389412439712286D+03 0.238006655480615D+03 0.294091724752817D+03 -.451411301049255D+02
 0.828221164474611D+02 -.537585817703843D+02 -.491276628798476D+02 0.394460466819903D+02
 0.288962350619032D+03 -.175197648182486D+03 -.229764719943433D+03 0.363285231167819D+01
 0.823674629259090D+02 -.905042552774492D+01 -.151993419295365D+02 0.206223111125704D+01
 0.000000000000000D+00 -.000000000000000D+00 0.000000000000000D+00 -.000000000000000D+00
 0.456126333777617D+03 0.000000000000000D+00 0.000000000000000D+00 0.456126333777617D+03
 0.591750565883260D+03 0.000000000000000D+00 0.000000000000000D+00 -.591750565883260D+03
 0.370924141337754D+03 0.267386677034663D+03 0.239966968539403D+03 -.451411301049255D+02
 0.867745277737995D+02 -.472052300220920D+02 -.612004438716708D+02 0.394460466819903D+02
 0.312077609083778D+03 -.151972977147290D+03 -.272549904957822D+03 0.363285231167819D+01
 0.849295135458623D+02 -.258593480459737D+01 -.271084204777116D+02 0.206223111125704D+01
 0.193171107919683D+03 -.656225350606837D+02 0.120891800767801D+03 -.135624232105643D+03
-.818217837566D-04 0.000000000000D+00 0.000000000000D+00 0.883823920349D-08 0.000000000000D+00  7 -2 2 24 -11 11 -24 21 2 0.23745325D-01 0.25375205D+00 0.24008663D+06 0.24008663D+06 0.24008663D+06 0.10917835D+01  1  2 13  2  7  2        2 -.196985714720D-02 0.100000000000D+01
0.924145320841D-04 0.000000000000D+00 0.000000000000D+00 0.883823920349D-08 0.305720861754D-11  7 -2 2 24 -11 11 -24 21 2 0.25678819D-01 0.24878379D+00 0.24008663D+06 0.24008663D+06 0.24008663D+06 0.10917835D+01  1  2  1  2  7  2        2 0.202492415897D-02 0.100000000000D+01
  </mgrwgt>
  </event>
  <event>
  7     66 0.27011060E-05 0.16389272E+03 0.75467711E-02 0.94232191E-01
       -2 -1    0    0    0  501 0.00000000E+00 0.00000000E+00 0.15302879E+03 0.15302912E+03 0.32000000E+00 0.0000E+00 0.9000E+01
        2 -1    0    0  501    0 0.00000000E+00 0.00000000E+00 -.17479946E+04 0.17479946E+04 0.32000000E+00 0.0000E+00 0.9000E+01
       25  2    1    2    0    0 -.80927080E+02 0.42295782E+03 -.10037193E+04 0.11323718E+04 0.29894972E+03 0.0000E+00 0.0000E+00
       24  1    3    3    0    0 0.30481404E+02 0.29291897E+02 -.30952221E+03 0.32258076E+03 0.80419002E+02 0.0000E+00 0.9000E+01
      -11  1    1    2    0    0 0.13500061E+02 -.48027728E+02 -.25718904E+03 0.26198304E+03 0.51099893E-03 0.0000E+00 0.9000E+01
       11  1    1    2    0    0 0.67427018E+02 -.37493009E+03 -.33405740E+03 0.50666885E+03 0.51099893E-03 0.0000E+00 0.9000E+01
      -24  1    3    3    0    0 -.11140848E+03 0.39366592E+03 -.69419714E+03 0.80979108E+03 0.80419002E+02 0.0000E+00 0.9000E+01
#aMCatNLO 1  0  0  1  2 0.90011181D+02 0.00000000D+00  -5  7  0 0.00000000D+00 0.00000000D+00 0.00000000D+00 0.00000000D+00 0.00000000D+00
  <mgrwgt>
 0.3952056033D-02    9    2    0
 0.517198065474647D+03 0.000000000000000D+00 0.000000000000000D+00 0.517198065474647D+03
 0.517198065474647D+03 0.000000000000000D+00 0.000000000000000D+00 -.517198065474647D+03
 0.115580808082385D+03 0.304814034294059D+02 0.292918978139884D+02 -.714463155805481D+02
 0.849077654545719D+02 0.135000616393719D+02 -.480277301170101D+02 -.687052698854272D+02
 0.416068240004345D+03 0.674270188480650D+02 -.374930091956553D+03 0.167313489040862D+03
 0.417839317407992D+03 -.111408483916843D+03 0.393665924259574D+03 -.271619035748866D+02
 0.000000000000000D+00 0.000000000000000D+00 0.000000000000000D+00 0.000000000000000D+00
 0.576910402321267D+03 0.000000000000000D+00 0.000000000000000D+00 0.576910402321267D+03
 0.554221386474193D+03 0.000000000000000D+00 0.000000000000000D+00 -.554221386474193D+03
 0.112366030089549D+03 0.242273475261044D+02 0.216187045293867D+02 -.714463155805481D+02
 0.877259867425870D+02 0.876360139409589D+01 -.538389629407604D+02 -.687052698854272D+02
 0.439223266670826D+03 0.439608416496303D+02 -.403721090322788D+03 0.167313489040862D+03
 0.398989762458011D+03 -.133819388011381D+03 0.366169656004396D+03 -.271619035748866D+02
 0.928267428344861D+02 0.568675974415500D+02 0.697716927297657D+02 0.226890158470741D+02
0.153054911043D-03 0.000000000000D+00 0.000000000000D+00 0.242613308861D-09 0.000000000000D+00  7 -2 2 24 -11 11 -24 21 0 0.23542919D-01 0.26892227D+00 0.22026260D+06 0.22026260D+06 0.22026260D+06 0.10946210D+01  1  2  2  1  7  1       -2 0.278126967201D-02 0.100000000000D+01
-.840549891312D-05 0.000000000000D+00 -.587771158690D-06 0.242613308861D-09 0.000000000000D+00  7 -2 2 24 -11 11 -24 21 2 0.23542919D-01 0.26892227D+00 0.22026260D+06 0.22026260D+06 0.22026260D+06 0.10946210D+01  1  2  3  1  7  1       -2 -.183015068261D-03 0.100000000000D+01
0.909975601105D-05 0.000000000000D+00 0.000000000000D+00 0.242613308861D-09 0.000000000000D+00  7 -2 2 24 -11 11 -24 21 2 0.23542919D-01 0.26892227D+00 0.22026260D+06 0.22026260D+06 0.22026260D+06 0.10946210D+01  1  2 15  1  7  1       -2 0.198131304844D-03 0.100000000000D+01
0.174213370899D-03 0.000000000000D+00 0.000000000000D+00 0.242613308861D-09 0.000000000000D+00  7 -2 2 24 -11 11 -24 21 2 0.27024091D-01 0.26892227D+00 0.26804290D+06 0.26804290D+06 0.26804290D+06 0.10881896D+01  1  2 12  1  7  1       -2 0.293493490938D-02 0.100000000000D+01
-.159555460822D-03 0.000000000000D+00 0.000000000000D+00 0.242613308861D-09 0.000000000000D+00  7 -2 2 24 -11 11 -24 21 2 0.23542919D-01 0.26892227D+00 0.22026260D+06 0.22026260D+06 0.22026260D+06 0.10946210D+01  1  2  4  1  7  1       -2 -.347404167862D-02 0.100000000000D+01
-.436929062726D-03 0.000000000000D+00 -.115687665678D-03 0.242613308861D-09 0.000000000000D+00  7 -2 2 24 -11 11 -24 21 2 0.28281140D-01 0.26892227D+00 0.22026260D+06 0.22026260D+06 0.22026260D+06 0.10946210D+01  1  2  5  1  7  1       -2 -.692786160170D-02 0.100000000000D+01
0.452433037379D-03 0.000000000000D+00 0.113769572893D-03 0.242613308861D-09 0.000000000000D+00  7 -2 2 24 -11 11 -24 21 2 0.23542919D-01 0.26892227D+00 0.22026260D+06 0.22026260D+06 0.22026260D+06 0.10946210D+01  1  2  6  1  7  1       -2 0.985093973308D-02 0.100000000000D+01
0.371058970577D-05 0.000000000000D+00 0.000000000000D+00 0.242613308861D-09 0.000000000000D+00  7 21 2 24 -11 11 -24 2 2 0.27024091D-01 0.26892227D+00 0.26804290D+06 0.26804290D+06 0.26804290D+06 0.10881896D+01  1  2 12  3  7  1       -2 0.738382159759D-03 0.100000000000D+01
-.105454651222D-04 0.000000000000D+00 -.309566140524D-05 0.242613308861D-09 0.000000000000D+00  7 21 2 24 -11 11 -24 2 2 0.28281140D-01 0.26892227D+00 0.22026260D+06 0.22026260D+06 0.22026260D+06 0.10946210D+01  1  2  5  3  7  1       -2 -.196668339757D-02 0.100000000000D+01
  </mgrwgt>
  </event>
  <event>
  7     66 0.27011060E-05 0.15185631E+03 0.75467711E-02 0.97204790E-01
       -2 -1    0    0    0  501 0.00000000E+00 0.00000000E+00 0.12112090E+03 0.12112133E+03 0.32000000E+00 0.0000E+00 0.9000E+01
        2 -1    0    0  501    0 0.00000000E+00 0.00000000E+00 -.10818241E+04 0.10818241E+04 0.32000000E+00 0.0000E+00 0.9000E+01
       25  2    1    2    0    0 -.80036257E+02 0.13124564E+03 -.32310707E+03 0.46697574E+03 0.30006156E+03 0.0000E+00 0.0000E+00
       24  1    3    3    0    0 0.29918720E+02 -.58284327E+02 -.10125852E+03 0.14495757E+03 0.80419002E+02 0.0000E+00 0.9000E+01
      -13  1    1    2    0    0 0.95039450E+02 -.11401007E+02 -.93019719E+01 0.96171814E+02 0.10565837E+00 0.0000E+00 0.9000E+01
       13  1    1    2    0    0 -.15003192E+02 -.11984463E+03 -.62829415E+03 0.63979792E+03 0.10565837E+00 0.0000E+00 0.9000E+01
      -24  1    3    3    0    0 -.10995498E+03 0.18952996E+03 -.22184856E+03 0.32201817E+03 0.80419002E+02 0.0000E+00 0.9000E+01
#aMCatNLO 1  0  0  1  2 0.21080839D+03 0.00000000D+00  -5  7  0 0.00000000D+00 0.00000000D+00 0.00000000D+00 0.00000000D+00 0.00000000D+00
  <mgrwgt>
 0.4694880792D-02    7    2    0
 0.361983142419960D+03 0.000000000000000D+00 0.000000000000000D+00 0.361983142419960D+03
 0.361983142419960D+03 0.000000000000000D+00 0.000000000000000D+00 -.361983142419960D+03
 0.106487229070689D+03 0.299135960966639D+02 -.582759242476909D+02 0.241123914704829D+02
 0.147438066348244D+03 0.950384135350684D+02 -.114164692593024D+02 0.112139857280532D+03
 0.229344071802103D+03 -.149854542213432D+02 -.119856557267104D+03 -.194957803415574D+03
 0.240696917618883D+03 -.109966555410389D+03 0.189548950774098D+03 0.587055546645591D+02
 0.000000000000000D+00 0.000000000000000D+00 0.000000000000000D+00 0.000000000000000D+00
 0.655537483777412D+03 0.000000000000000D+00 0.000000000000000D+00 0.655537483777412D+03
 0.416906538791514D+03 0.000000000000000D+00 0.000000000000000D+00 -.416906538791514D+03
 0.110003877551491D+03 0.180424217938148D+01 -.710561356233599D+02 0.241123914704829D+02
 0.129745157695706D+03 0.590487534231526D+02 -.277795441603578D+02 0.112139857280532D+03
 0.257286391877695D+03 -.781698877250207D+02 -.148584019954620D+03 -.194957803415574D+03
 0.256998630219078D+03 -.174587687037972D+03 0.160168278277471D+03 0.587055546645591D+02
 0.318409965224955D+03 0.191904579160459D+03 0.872514214608663D+02 0.238630944985898D+03
0.964831872856D-04 0.000000000000D+00 0.000000000000D+00 0.504872159430D-09 0.000000000000D+00  7 -2 2 24 -13 13 -24 21 0 0.18634021D-01 0.16643451D+00 0.76635077D+05 0.76635077D+05 0.76635077D+05 0.11313313D+01  1  2  2  1  7  1       -2 0.619557666528D-02 0.100000000000D+01
-.489141327045D-05 0.000000000000D+00 -.370520843784D-06 0.504872159430D-09 0.000000000000D+00  7 -2 2 24 -13 13 -24 21 2 0.18634021D-01 0.16643451D+00 0.76635077D+05 0.76635077D+05 0.76635077D+05 0.11313313D+01  1  2  3  1  7  1       -2 -.402016669684D-03 0.100000000000D+01
0.602521103668D-05 0.000000000000D+00 0.000000000000D+00 0.504872159430D-09 0.000000000000D+00  7 -2 2 24 -13 13 -24 21 2 0.18634021D-01 0.16643451D+00 0.76635077D+05 0.76635077D+05 0.76635077D+05 0.11313313D+01  1  2 15  1  7  1       -2 0.495201517677D-03 0.100000000000D+01
0.902812996230D-05 0.000000000000D+00 0.000000000000D+00 0.504872159430D-09 0.000000000000D+00  7 -2 2 24 -13 13 -24 21 2 0.34163219D-01 0.16643451D+00 0.16059648D+06 0.16059648D+06 0.16059648D+06 0.11052201D+01  1  2 12  1  7  1       -2 0.247256503287D-03 0.100000000000D+01
-.563347978165D-04 0.000000000000D+00 -.298773276197D-04 0.504872159430D-09 0.000000000000D+00  7 -2 2 24 -13 13 -24 21 2 0.38353202D-01 0.16643451D+00 0.76635077D+05 0.76635077D+05 0.76635077D+05 0.11313313D+01  1  2  5  1  7  1       -2 -.133468656251D-02 0.100000000000D+01
0.597932708266D-06 0.000000000000D+00 0.000000000000D+00 0.504872159430D-09 0.000000000000D+00  7 21 2 24 -13 13 -24 2 2 0.34163219D-01 0.16643451D+00 0.16059648D+06 0.16059648D+06 0.16059648D+06 0.11052201D+01  1  2 12  3  7  1       -2 0.187056091558D-03 0.100000000000D+01
-.256760409926D-05 0.000000000000D+00 -.233206481992D-05 0.504872159430D-09 0.000000000000D+00  7 21 2 24 -13 13 -24 2 2 0.38353202D-01 0.16643451D+00 0.76635077D+05 0.76635077D+05 0.76635077D+05 0.11313313D+01  1  2  5  3  7  1       -2 -.693506754091D-03 0.100000000000D+01
  </mgrwgt>
  </event>
  <event>
  9     66 -.27011060E-05 0.15330976E+03 0.75467711E-02 0.10998089E+00
       -2 -1    0    0    0  501 0.00000000E+00 0.00000000E+00 0.69364774E+02 0.69365512E+02 0.32000000E+00 0.0000E+00 0.9000E+01
        2 -1    0    0  502    0 0.00000000E+00 0.00000000E+00 -.10186608E+04 0.10186608E+04 0.32000000E+00 0.0000E+00 0.9000E+01
       25  2    1    2    0    0 -.13825269E+02 0.32149565E+02 -.93056648E+03 0.97840015E+03 0.30014690E+03 0.0000E+00 0.0000E+00
       23  2    1    2    0    0 0.87308911E+01 -.30215992E+02 -.74415316E+01 0.97069406E+02 0.91530643E+02 0.0000E+00 0.0000E+00
       24  1    3    3    0    0 -.83349528E+02 -.49046485E+02 -.70516484E+03 0.71629419E+03 0.80419002E+02 0.0000E+00 0.9000E+01
      -11  1    4    4    0    0 0.22700758E+02 -.14516147E+02 -.45910981E+02 0.53234023E+02 0.51099893E-03 0.0000E+00 0.9000E+01
       11  1    4    4    0    0 -.13969867E+02 -.15699844E+02 0.38469450E+02 0.43835384E+02 0.51099893E-03 0.0000E+00 0.9000E+01
      -24  1    3    3    0    0 0.69524259E+02 0.81196050E+02 -.22540164E+03 0.26210596E+03 0.80419002E+02 0.0000E+00 0.9000E+01
       21  1    1    2  502  501 0.50943782E+01 -.19335734E+01 -.11287994E+02 0.12556779E+02 0.75000000E+00 0.0000E+00 0.9000E+01
#aMCatNLO 2  0  0  2  1 0.54489811D+01 0.00000000D+00  -5  7  0 0.00000000D+00 0.00000000D+00 0.00000000D+00 0.00000000D+00 0.00000000D+00
  <mgrwgt>
 -.1277659080D-03    3    2    0
 0.263033295633032D+03 0.000000000000000D+00 0.000000000000000D+00 0.263033295633032D+03
 0.263033295633032D+03 0.000000000000000D+00 0.000000000000000D+00 -.263033295633032D+03
 0.206385569324051D+03 -.813479820914560D+02 -.498061726111192D+02 -.164406928839151D+03
 0.272406902116883D+02 0.229632176914047D+02 -.146157640437567D+02 0.106079115925792D+01
 0.158131048817114D+03 -.124382478747660D+02 -.162811709027992D+02 0.156798093304224D+03
 0.134309282913211D+03 0.708230122748173D+02 0.807031075576750D+02 0.654804437566872D+01
 0.000000000000000D+00 0.000000000000000D+00 -.000000000000000D+00 -.000000000000000D+00
 0.265449904116323D+03 0.000000000000000D+00 0.000000000000000D+00 0.265449904116323D+03
 0.266137042250495D+03 0.000000000000000D+00 0.000000000000000D+00 -.266137042250495D+03
 0.207001342277124D+03 -.833495279253693D+02 -.490464850367185D+02 -.164406928839151D+03
 0.269660572011909D+02 0.227007582704375D+02 -.145161474586579D+02 0.106079115925792D+01
 0.158200140198859D+03 -.139698671779978D+02 -.156998441434201D+02 0.156798093304224D+03
 0.133927271019246D+03 0.695242586327456D+02 0.811960500561041D+02 0.654804437566872D+01
 0.549213567039835D+01 0.509437820018402D+01 -.193357341730764D+01 -.687138134171737D+00
-.936721952856D-06 0.000000000000D+00 0.000000000000D+00 0.132231820132D-05 0.000000000000D+00  7 -2 2 24 -11 11 -24 21 2 0.10573398D-01 0.15740608D+00 0.24485021D+05 0.24485021D+05 0.24485021D+05 0.11756108D+01  1  2 13  2  7  2        2 -.220426385666D-03 0.100000000000D+01
-.114367599901D-04 0.000000000000D+00 0.000000000000D+00 0.132231820132D-05 0.000000000000D+00  7 -2 2 24 -11 11 -24 21 2 0.10573398D-01 0.15487458D+00 0.23503883D+05 0.23503883D+05 0.23503883D+05 0.11772987D+01  1  2  8  2  7  2        2 -.275907295448D-02 0.100000000000D+01
0.122131411718D-04 0.000000000000D+00 0.000000000000D+00 0.132231820132D-05 0.328294157963D-06  7 -2 2 24 -11 11 -24 21 2 0.10670541D-01 0.15670208D+00 0.24485021D+05 0.24485021D+05 0.24485021D+05 0.11756108D+01  1  2  1  2  7  2        2 0.285173343210D-02 0.100000000000D+01
  </mgrwgt>
  </event>
  <event>
  8     66 0.27011060E-05 0.28580121E+03 0.75467711E-02 0.96501463E-01
       -2 -1    0    0    0  501 0.00000000E+00 0.00000000E+00 0.61010461E+02 0.61011300E+02 0.32000000E+00 0.0000E+00 0.9000E+01
        2 -1    0    0  501    0 0.00000000E+00 0.00000000E+00 -.20493921E+04 0.20493921E+04 0.32000000E+00 0.0000E+00 0.9000E+01
       25  2    1    2    0    0 0.65852853E+02 -.21263603E+03 -.16716774E+04 0.17127961E+04 0.29935674E+03 0.0000E+00 0.0000E+00
       23  2    1    2    0    0 -.65852853E+02 0.21263603E+03 -.31670429E+03 0.39760738E+03 0.90770811E+02 0.0000E+00 0.0000E+00
       24  1    3    3    0    0 -.27468637E+02 -.18749887E+03 -.61219349E+03 0.64587804E+03 0.80419002E+02 0.0000E+00 0.9000E+01
      -11  1    4    4    0    0 0.13004217E+02 0.10907736E+03 -.15614138E+03 0.19091126E+03 0.51099893E-03 0.0000E+00 0.9000E+01
       11  1    4    4    0    0 -.78857071E+02 0.10355868E+03 -.16056291E+03 0.20669612E+03 0.51099893E-03 0.0000E+00 0.9000E+01
      -24  1    3    3    0    0 0.93321491E+02 -.25137165E+02 -.10594839E+04 0.10669180E+04 0.80419002E+02 0.0000E+00 0.9000E+01
#aMCatNLO 1  0  0  1  1 0.24249147D+03 0.00000000D+00  -5  7  0 0.00000000D+00 0.00000000D+00 0.00000000D+00 0.00000000D+00 0.00000000D+00
  <mgrwgt>
 0.2396011535D-03    6    2    0
 0.353603265770713D+03 0.000000000000000D+00 0.000000000000000D+00 0.353603265770713D+03
 0.353603265770713D+03 0.000000000000000D+00 0.000000000000000D+00 -.353603265770713D+03
 0.206147592220837D+03 -.274686373969780D+02 -.187498867759132D+03 -.109207313251023D+02
 0.130698916147521D+03 0.130042172230687D+02 0.109077355154674D+03 0.708182717172124D+02
 0.165371570113183D+03 -.788570705478490D+02 0.103558677141506D+03 0.102004504876071D+03
 0.204988453059885D+03 0.933214907217583D+02 -.251371645370490D+02 -.161902045268181D+03
 0.000000000000000D+00 0.000000000000000D+00 -.000000000000000D+00 0.000000000000000D+00
 0.530156759132392D+03 0.000000000000000D+00 0.000000000000000D+00 0.530156759132392D+03
 0.467839182409814D+03 0.000000000000000D+00 0.000000000000000D+00 -.467839182409814D+03
 0.196618206632989D+03 -.870267583072067D+02 -.156520235723904D+03 -.109207313251023D+02
 0.151471624789577D+03 -.287211408938837D+02 0.130780432684463D+03 0.708182717172124D+02
 0.215196630375857D+03 -.135132769636044D+03 0.132829986375828D+03 0.102004504876071D+03
 0.184338571082477D+03 0.357505995401422D+02 0.480782745730301D+01 -.161902045268181D+03
 0.250370908661305D+03 0.215130069296992D+03 -.111898010793690D+03 0.623175767225776D+02
0.696850547897D-05 0.000000000000D+00 0.000000000000D+00 0.402109803533D-06 0.000000000000D+00  7 -2 2 24 -11 11 -24 21 0 0.93862913D-02 0.31529116D+00 0.81682333D+05 0.81682333D+05 0.81682333D+05 0.11290051D+01  1  2  2  1  7  1       -2 0.393305673820D-03 0.100000000000D+01
-.365808030739D-06 0.000000000000D+00 -.267608958889D-07 0.402109803533D-06 0.000000000000D+00  7 -2 2 24 -11 11 -24 21 2 0.93862913D-02 0.31529116D+00 0.81682333D+05 0.81682333D+05 0.81682333D+05 0.11290051D+01  1  2  3  1  7  1       -2 -.263169518660D-04 0.100000000000D+01
0.458675887764D-06 0.000000000000D+00 0.000000000000D+00 0.402109803533D-06 0.000000000000D+00  7 -2 2 24 -11 11 -24 21 2 0.93862913D-02 0.31529116D+00 0.81682333D+05 0.81682333D+05 0.81682333D+05 0.11290051D+01  1  2 15  1  7  1       -2 0.329980488290D-04 0.100000000000D+01
-.220947468692D-05 0.000000000000D+00 0.000000000000D+00 0.402109803533D-06 0.000000000000D+00  7 -2 2 24 -11 11 -24 21 2 0.93862913D-02 0.31529116D+00 0.81682333D+05 0.81682333D+05 0.81682333D+05 0.11290051D+01  1  2  4  1  7  1       -2 -.158953970659D-03 0.100000000000D+01
-.877476474554D-06 0.000000000000D+00 -.215873969431D-05 0.402109803533D-06 0.000000000000D+00  7 -2 2 24 -11 11 -24 21 2 0.19927700D-01 0.31529116D+00 0.81682333D+05 0.81682333D+05 0.81682333D+05 0.11290051D+01  1  2  5  1  7  1       -2 -.191523233151D-04 0.100000000000D+01
0.629121095759D-07 0.000000000000D+00 -.175824466434D-06 0.402109803533D-06 0.000000000000D+00  7 21 2 24 -11 11 -24 2 2 0.19927700D-01 0.31529116D+00 0.81682333D+05 0.81682333D+05 0.81682333D+05 0.11290051D+01  1  2  5  3  7  1       -2 0.177206766730D-04 0.100000000000D+01
  </mgrwgt>
  </event>
  <event>
  8     66 0.27011060E-05 0.17461610E+03 0.75467711E-02 0.10050877E+00
       -2 -1    0    0    0  501 0.00000000E+00 0.00000000E+00 0.70693734E+02 0.70694458E+02 0.32000000E+00 0.0000E+00 0.9000E+01
        2 -1    0    0  501    0 0.00000000E+00 0.00000000E+00 -.98316005E+03 0.98316010E+03 0.32000000E+00 0.0000E+00 0.9000E+01
       25  2    1    2    0    0 -.11150451E+02 -.11283264E+02 -.91298753E+03 0.96075339E+03 0.29874607E+03 0.0000E+00 0.0000E+00
       23  2    1    2    0    0 0.11150451E+02 0.11283264E+02 0.52121286E+00 0.93101163E+02 0.91738271E+02 0.0000E+00 0.0000E+00
       24  1    3    3    0    0 0.57482697E+02 -.10365676E+03 -.61339503E+03 0.62989655E+03 0.80419002E+02 0.0000E+00 0.9000E+01
      -11  1    4    4    0    0 -.64022373E+01 -.24727134E+02 0.32857933E+02 0.41618068E+02 0.51099893E-03 0.0000E+00 0.9000E+01
       11  1    4    4    0    0 0.17552688E+02 0.36010398E+02 -.32336720E+02 0.51483095E+02 0.51099893E-03 0.0000E+00 0.9000E+01
      -24  1    3    3    0    0 -.68633148E+02 0.92373495E+02 -.29959249E+03 0.33085684E+03 0.80419002E+02 0.0000E+00 0.9000E+01
#aMCatNLO 1  0  0  1  1 0.19136282D+03 0.00000000D+00  -5  7  0 0.00000000D+00 0.00000000D+00 0.00000000D+00 0.00000000D+00 0.00000000D+00
  <mgrwgt>
 0.1273942023D-02    3    2    0
 0.263635474983717D+03 0.000000000000000D+00 0.000000000000000D+00 0.263635474983717D+03
 0.263635474983717D+03 0.000000000000000D+00 0.000000000000000D+00 -.263635474983717D+03
 0.197464032403055D+03 0.574826970149178D+02 -.103656759440629D+03 -.135925876508717D+03
 0.140044027976008D+03 -.640223726857876D+01 -.247271342637690D+02 0.137694988873246D+03
 0.469389157742425D+02 0.175526877828032D+02 0.360103982108902D+02 0.244625466040228D+02
 0.142823973814129D+03 -.686331475291422D+02 0.923734954935074D+02 -.262316589685524D+02
 0.000000000000000D+00 0.000000000000000D+00 0.000000000000000D+00 -.000000000000000D+00
 0.340054609336588D+03 0.000000000000000D+00 0.000000000000000D+00 0.340054609336588D+03
 0.434085147906186D+03 0.000000000000000D+00 0.000000000000000D+00 -.434085147906186D+03
 0.227176447752445D+03 0.119692603616278D+02 -.162858267707788D+03 -.135925876508717D+03
 0.157512922202928D+03 -.382947205234864D+02 -.662112156672147D+02 0.137694988873246D+03
 0.356907408610053D+02 0.869634973049524D+01 0.244905348699934D+02 0.244625466040228D+02
 0.140542686465701D+03 -.990046998069129D+02 0.528677619019984D+02 -.262316589685524D+02
 0.213216959960695D+03 0.116633810238276D+03 0.151711186603011D+03 -.940305385695979D+02
0.725136569840D-05 0.000000000000D+00 0.000000000000D+00 0.209087275189D-06 0.000000000000D+00  7 -2 2 24 -11 11 -24 21 0 0.10876019D-01 0.15125545D+00 0.30490784D+05 0.30490784D+05 0.30490784D+05 0.11666826D+01  1  2  2  1  7  1       -2 0.125001535548D-02 0.100000000000D+01
-.319720200357D-06 0.000000000000D+00 -.278471536103D-07 0.209087275189D-06 0.000000000000D+00  7 -2 2 24 -11 11 -24 21 2 0.10876019D-01 0.15125545D+00 0.30490784D+05 0.30490784D+05 0.30490784D+05 0.11666826D+01  1  2  3  1  7  1       -2 -.750189658470D-04 0.100000000000D+01
0.421692267475D-06 0.000000000000D+00 0.000000000000D+00 0.209087275189D-06 0.000000000000D+00  7 -2 2 24 -11 11 -24 21 2 0.10876019D-01 0.15125545D+00 0.30490784D+05 0.30490784D+05 0.30490784D+05 0.11666826D+01  1  2 15  1  7  1       -2 0.989456336393D-04 0.100000000000D+01
  </mgrwgt>
  </event>
  <event>
  8     66 0.27011060E-05 0.15082755E+03 0.75467711E-02 0.97154910E-01
       -4 -1    0    0    0  501 0.00000000E+00 0.00000000E+00 0.52393059E+03 0.52393289E+03 0.15500000E+01 0.0000E+00 0.9000E+01
        4 -1    0    0  501    0 0.00000000E+00 0.00000000E+00 -.21843900E+03 0.21844450E+03 0.15500000E+01 0.0000E+00 0.9000E+01
       25  2    1    2    0    0 0.16364274E+03 -.17568034E+03 0.29453946E+03 0.48427816E+03 0.30021544E+03 0.0000E+00 0.0000E+00
       23  2    1    2    0    0 -.16364274E+03 0.17568034E+03 0.10952130E+02 0.25809923E+03 0.94088967E+02 0.0000E+00 0.0000E+00
       24  1    3    3    0    0 0.51731301E+02 0.46892886E+02 0.26788817E+02 0.10981770E+03 0.80419002E+02 0.0000E+00 0.9000E+01
      -13  1    4    4    0    0 -.13338928E+03 0.10200100E+03 -.26649294E+02 0.17002088E+03 0.10565837E+00 0.0000E+00 0.9000E+01
       13  1    4    4    0    0 -.30253462E+02 0.73679339E+02 0.37601423E+02 0.88078347E+02 0.10565837E+00 0.0000E+00 0.9000E+01
      -24  1    3    3    0    0 0.11191144E+03 -.22257323E+03 0.26775065E+03 0.37446046E+03 0.80419002E+02 0.0000E+00 0.9000E+01
#aMCatNLO 1  0  0  1  2 0.16484834D+03 0.00000000D+00  -5  7  0 0.00000000D+00 0.00000000D+00 0.00000000D+00 0.00000000D+00 0.00000000D+00
  <mgrwgt>
 0.1446465779D-03    8    2    0
 0.338304252539255D+03 0.000000000000000D+00 0.000000000000000D+00 0.338304252539255D+03
 0.338304252539255D+03 0.000000000000000D+00 0.000000000000000D+00 -.338304252539255D+03
 0.108397126380474D+03 0.517313011737027D+02 0.468928859058124D+02 -.201903636290710D+02
 0.198579965258428D+03 -.133389408482384D+03 0.102001038010838D+03 -.106004983616194D+03
 0.796625400524466D+02 -.302533330868098D+02 0.736793021537251D+02 0.148881123258582D+01
 0.289968873387162D+03 0.111911440395491D+03 -.222573226070375D+03 0.124706536012679D+03
 0.000000000000000D+00 0.000000000000000D+00 0.000000000000000D+00 0.000000000000000D+00
 0.638182359324909D+03 0.000000000000000D+00 0.000000000000000D+00 0.638182359324909D+03
 0.371628550294215D+03 0.000000000000000D+00 0.000000000000000D+00 -.371628550294215D+03
 0.952802335728193D+02 0.296446835605139D+02 0.363957265134705D+02 -.201903636290710D+02
 0.223073604428326D+03 -.179113200076320D+03 0.802697826058837D+02 -.106004983616194D+03
 0.809444332260059D+02 -.476694308093365D+02 0.654019118811287D+02 0.148881123258582D+01
 0.297102508277248D+03 0.482498673986611D+02 -.252829813594030D+03 0.124706536012679D+03
 0.313410130114725D+03 0.148888079926481D+03 0.707623925935467D+02 0.266553809030694D+03
0.242858433900D-04 0.000000000000D+00 0.000000000000D+00 0.239502125520D-06 0.000000000000D+00  7 -4 4 24 -13 13 -24 21 0 0.80605306D-01 0.33606599D-01 0.94818128D+05 0.94818128D+05 0.94818128D+05 0.11236233D+01  1  2  2  1  7  1       -4 0.642306406528D-04 0.100000000000D+01
-.133469147290D-05 0.000000000000D+00 -.932640332268D-07 0.239502125520D-06 0.000000000000D+00  7 -4 4 24 -13 13 -24 21 2 0.80605306D-01 0.33606599D-01 0.94818128D+05 0.94818128D+05 0.94818128D+05 0.11236233D+01  1  2  3  1  7  1       -4 -.445667985598D-05 0.100000000000D+01
0.147803762725D-05 0.000000000000D+00 0.000000000000D+00 0.239502125520D-06 0.000000000000D+00  7 -4 4 24 -13 13 -24 21 2 0.80605306D-01 0.33606599D-01 0.94818128D+05 0.94818128D+05 0.94818128D+05 0.11236233D+01  1  2 15  1  7  1       -4 0.493532824138D-05 0.100000000000D+01
0.156346553129D-04 0.000000000000D+00 0.000000000000D+00 0.239502125520D-06 0.000000000000D+00  7 -4 4 24 -13 13 -24 21 2 0.15282325D+00 0.33606599D-01 0.16194021D+06 0.16194021D+06 0.16194021D+06 0.11049365D+01  1  2 12  1  7  1       -4 0.803082046364D-05 0.100000000000D+01
-.268787232847D-04 0.000000000000D+00 -.715432726927D-05 0.239502125520D-06 0.000000000000D+00  7 -4 4 24 -13 13 -24 21 2 0.15932038D+00 0.33606599D-01 0.94818128D+05 0.94818128D+05 0.94818128D+05 0.11236233D+01  1  2  5  1  7  1       -4 -.123850149832D-04 0.100000000000D+01
0.267021661596D-04 0.000000000000D+00 0.576385093039D-05 0.239502125520D-06 0.000000000000D+00  7 -4 4 24 -13 13 -24 21 2 0.80605306D-01 0.33606599D-01 0.94818128D+05 0.94818128D+05 0.94818128D+05 0.11236233D+01  1  2  6  1  7  1       -4 0.891614342723D-04 0.100000000000D+01
0.108706260636D-05 0.000000000000D+00 0.000000000000D+00 0.239502125520D-06 0.000000000000D+00  7 21 4 24 -13 13 -24 4 2 0.15282325D+00 0.33606599D-01 0.16194021D+06 0.16194021D+06 0.16194021D+06 0.11049365D+01  1  2 12  3  7  1       -4 0.141807366921D-04 0.100000000000D+01
-.155775983912D-05 0.000000000000D+00 -.527763591361D-06 0.239502125520D-06 0.000000000000D+00  7 21 4 24 -13 13 -24 4 2 0.15932038D+00 0.33606599D-01 0.94818128D+05 0.94818128D+05 0.94818128D+05 0.11236233D+01  1  2  5  3  7  1       -4 -.190506875387D-04 0.100000000000D+01
  </mgrwgt>
  </event>
  <event>
  8     66 0.27011060E-05 0.15769520E+03 0.75467711E-02 0.10131356E+00
       -2 -1    0    0    0  501 0.00000000E+00 0.00000000E+00 0.12048281E+03 0.12048323E+03 0.32000000E+00 0.0000E+00 0.9000E+01
        2 -1    0    0  501    0 0.00000000E+00 0.00000000E+00 -.10322367E+04 0.10322367E+04 0.32000000E+00 0.0000E+00 0.9000E+01
       25  2    1    2    0    0 0.32458272E+00 0.38203183E+01 -.73304641E+02 0.30947743E+03 0.30064598E+03 0.0000E+00 0.0000E+00
       23  2    1    2    0    0 -.32458272E+00 -.38203183E+01 -.83844925E+03 0.84324255E+03 0.89700405E+02 0.0000E+00 0.0000E+00
       24  1    3    3    0    0 0.68735986E+02 0.81839784E+02 0.36153559E+02 0.13855209E+03 0.80419002E+02 0.0000E+00 0.9000E+01
      -13  1    4    4    0    0 -.16650322E+01 0.23222676E+02 -.75802977E+03 0.75838724E+03 0.10565837E+00 0.0000E+00 0.9000E+01
       13  1    4    4    0    0 0.13404495E+01 -.27042994E+02 -.80419473E+02 0.84855307E+02 0.10565837E+00 0.0000E+00 0.9000E+01
      -24  1    3    3    0    0 -.68411403E+02 -.78019465E+02 -.10945820E+03 0.17092534E+03 0.80419002E+02 0.0000E+00 0.9000E+01
#aMCatNLO 1  0  0  1  2 0.17044999D+03 0.00000000D+00  -5  7  0 0.00000000D+00 0.00000000D+00 0.00000000D+00 0.00000000D+00 0.00000000D+00
  <mgrwgt>
 0.4361530130D-03    7    2    0
 0.352657127471615D+03 0.000000000000000D+00 0.000000000000000D+00 0.352657127471615D+03
 0.352657127471615D+03 0.000000000000000D+00 0.000000000000000D+00 -.352657127471615D+03
 0.273175976976030D+03 0.687359856790250D+02 0.818397832203532D+02 0.238192175769097D+03
 0.259560550871309D+03 -.166503636729049D+01 0.232227453737349D+02 -.258514238137515D+03
 0.347241254186265D+02 0.134045364923665D+01 -.270430636973309D+02 -.217403030329583D+02
 0.137853601677265D+03 -.684114029609711D+02 -.780194648967572D+02 0.420623654013768D+02
 0.000000000000000D+00 -.000000000000000D+00 -.000000000000000D+00 0.000000000000000D+00
 0.536779598561857D+03 0.000000000000000D+00 0.000000000000000D+00 0.536779598561857D+03
 0.404559118917674D+03 0.000000000000000D+00 0.000000000000000D+00 -.404559118917674D+03
 0.306787641459741D+03 0.108860640379706D+03 0.138077113876864D+03 0.238192175769097D+03
 0.271367244991144D+03 0.350670857913926D+02 0.747052195523387D+02 -.258514238137515D+03
 0.305918104746101D+02 0.585932223143579D+01 -.207095735141459D+02 -.217403030329583D+02
 0.116871244123710D+03 -.507883208286558D+02 -.533195614469952D+02 0.420623654013768D+02
 0.215720776430325D+03 -.989987275738787D+02 -.138753198468062D+03 0.132220479644183D+03
0.108622957772D-04 0.000000000000D+00 0.000000000000D+00 0.592665359936D-06 0.000000000000D+00  7 -2 2 24 -13 13 -24 21 0 0.18535853D-01 0.15880568D+00 0.24867775D+05 0.24867775D+05 0.24867775D+05 0.11749725D+01  1  2  2  1  7  1       -2 0.760239287804D-03 0.100000000000D+01
-.128189828346D-06 0.000000000000D+00 -.417140758927D-07 0.592665359936D-06 0.000000000000D+00  7 -2 2 24 -13 13 -24 21 2 0.18535853D-01 0.15880568D+00 0.24867775D+05 0.24867775D+05 0.24867775D+05 0.11749725D+01  1  2  3  1  7  1       -2 -.123861877704D-04 0.100000000000D+01
0.603523143540D-06 0.000000000000D+00 0.000000000000D+00 0.592665359936D-06 0.000000000000D+00  7 -2 2 24 -13 13 -24 21 2 0.18535853D-01 0.15880568D+00 0.24867775D+05 0.24867775D+05 0.24867775D+05 0.11749725D+01  1  2 15  1  7  1       -2 0.583146968532D-04 0.100000000000D+01
-.743988549974D-05 0.000000000000D+00 0.000000000000D+00 0.592665359936D-06 0.000000000000D+00  7 -2 2 24 -13 13 -24 21 2 0.18535853D-01 0.15880568D+00 0.24867775D+05 0.24867775D+05 0.24867775D+05 0.11749725D+01  1  2  4  1  7  1       -2 -.718869975714D-03 0.100000000000D+01
-.298993350007D-05 0.000000000000D+00 -.371360974465D-05 0.592665359936D-06 0.000000000000D+00  7 -2 2 24 -13 13 -24 21 2 0.32116379D-01 0.15880568D+00 0.24867775D+05 0.24867775D+05 0.24867775D+05 0.11749725D+01  1  2  5  1  7  1       -2 -.115252900541D-03 0.100000000000D+01
0.478762606639D-05 0.000000000000D+00 0.321551243749D-05 0.592665359936D-06 0.000000000000D+00  7 -2 2 24 -13 13 -24 21 2 0.18535853D-01 0.15880568D+00 0.24867775D+05 0.24867775D+05 0.24867775D+05 0.11749725D+01  1  2  6  1  7  1       -2 0.462598602384D-03 0.100000000000D+01
0.321961807479D-08 0.000000000000D+00 -.226122226706D-06 0.592665359936D-06 0.000000000000D+00  7 21 2 24 -13 13 -24 2 2 0.32116379D-01 0.15880568D+00 0.24867775D+05 0.24867775D+05 0.24867775D+05 0.11749725D+01  1  2  5  3  7  1       -2 0.150948995634D-05 0.100000000000D+01
  </mgrwgt>
  </event>
  <event>
  7     66 0.27011060E-05 0.44081687E+03 0.75467711E-02 0.86243816E-01
       -2 -1    0    0    0  501 0.00000000E+00 0.00000000E+00 0.11177957E+03 0.11178003E+03 0.32000000E+00 0.0000E+00 0.9000E+01
        2 -1    0    0  501    0 0.00000000E+00 0.00000000E+00 -.19015250E+04 0.19015251E+04 0.32000000E+00 0.0000E+00 0.9000E+01
       25  2    1    2    0    0 -.21421412E+03 0.30240705E+03 -.72421101E+03 0.86700232E+03 0.29978948E+03 0.0000E+00 0.0000E+00
       24  1    3    3    0    0 -.22398934E+03 0.11055743E+03 -.47085411E+03 0.53904079E+03 0.80419002E+02 0.0000E+00 0.9000E+01
      -11  1    1    2    0    0 0.54842385E+02 -.22904772E+03 -.47384114E+03 0.52914645E+03 0.51099893E-03 0.0000E+00 0.9000E+01
       11  1    1    2    0    0 0.15937174E+03 -.73359331E+02 -.59169331E+03 0.61715631E+03 0.51099893E-03 0.0000E+00 0.9000E+01
      -24  1    3    3    0    0 0.97752127E+01 0.19184962E+03 -.25335690E+03 0.32796153E+03 0.80419002E+02 0.0000E+00 0.9000E+01
#aMCatNLO 1  0  0  2  2 0.96444051D+03 0.00000000D+00  -5  7  0 0.00000000D+00 0.00000000D+00 0.00000000D+00 0.00000000D+00 0.00000000D+00
  <mgrwgt>
 0.2094997313D-02    3    2    0
 0.461033779230990D+03 0.000000000000000D+00 0.000000000000000D+00 0.461033779230990D+03
 0.461033779230990D+03 0.000000000000000D+00 0.000000000000000D+00 -.461033779230990D+03
 0.263044252139295D+03 -.223989338624852D+03 0.110557432307319D+03 0.181904637973927D+02
 0.235642407770825D+03 0.548423942050677D+02 -.229047712716940D+03 -.753667280873740D+01
 0.199056489384080D+03 0.159371733430109D+03 -.733593406925710D+02 -.940348003802205D+02
 0.224324409167781D+03 0.977521098967557D+01 0.191849621102192D+03 0.833810093915653D+02
 0.000000000000000D+00 0.000000000000000D+00 0.000000000000000D+00 0.000000000000000D+00
 0.221978022626177D+04 0.000000000000000D+00 0.000000000000000D+00 0.221978022626177D+04
 0.816918825167608D+03 0.000000000000000D+00 0.000000000000000D+00 -.816918825167608D+03
 0.324471599768936D+03 -.284122825209586D+03 -.133258884596865D+03 0.181904637973927D+02
 0.559859182693152D+03 -.265788713879026D+02 -.559177133477902D+03 -.753667280873740D+01
 0.322630698037740D+03 0.105975949496167D+03 -.289857071264713D+03 -.940348003802205D+02
 0.127337615886725D+03 -.262181389723586D+02 0.459115337035743D+02 0.833810093915653D+02
 0.170239995504282D+04 0.230943886073680D+03 0.936381555635906D+03 0.140286140109416D+04
0.817958005924D-04 0.000000000000D+00 0.000000000000D+00 0.618920472108D-09 0.000000000000D+00  7 -2 2 24 -11 11 -24 21 0 0.17196895D-01 0.29254235D+00 0.19431951D+06 0.19431951D+06 0.19431951D+06 0.10987878D+01  1  2  2  2  7  2        2 0.208195057118D-02 0.100000000000D+01
-.453310135063D-05 0.000000000000D+00 -.314117411604D-06 0.618920472108D-09 0.000000000000D+00  7 -2 2 24 -11 11 -24 21 2 0.17196895D-01 0.29254235D+00 0.19431951D+06 0.19431951D+06 0.19431951D+06 0.10987878D+01  1  2  3  2  7  2        2 -.139303637646D-03 0.100000000000D+01
0.495765740899D-05 0.000000000000D+00 0.000000000000D+00 0.618920472108D-09 0.000000000000D+00  7 -2 2 24 -11 11 -24 21 2 0.17196895D-01 0.29254235D+00 0.19431951D+06 0.19431951D+06 0.19431951D+06 0.10987878D+01  1  2 15  2  7  2        2 0.152350379543D-03 0.100000000000D+01
  </mgrwgt>
  </event>
  <event>
  8     66 0.27011060E-05 0.36757266E+03 0.75467711E-02 0.89698985E-01
       -2 -1    0    0    0  501 0.00000000E+00 0.00000000E+00 0.25566345E+03 0.25566365E+03 0.32000000E+00 0.0000E+00 0.9000E+01
        2 -1    0    0  501    0 0.00000000E+00 0.00000000E+00 -.61437906E+03 0.61437915E+03 0.32000000E+00 0.0000E+00 0.9000E+01
       25  2    1    2    0    0 0.28941773E+03 -.14203961E+03 -.11239524E+03 0.45421192E+03 0.29956285E+03 0.0000E+00 0.0000E+00
       23  2    1    2    0    0 -.28941773E+03 0.14203961E+03 -.24632037E+03 0.41583088E+03 0.91124776E+02 0.0000E+00 0.0000E+00
       24  1    3    3    0    0 0.28643266E+03 -.75155953E+02 -.88216238E+01 0.30698066E+03 0.80419002E+02 0.0000E+00 0.9000E+01
      -13  1    4    4    0    0 -.83749460E+02 0.26991213E+02 -.22502816E+02 0.90823375E+02 0.10565837E+00 0.0000E+00 0.9000E+01
       13  1    4    4    0    0 -.20566827E+03 0.11504840E+03 -.22381755E+03 0.32500751E+03 0.10565837E+00 0.0000E+00 0.9000E+01
      -24  1    3    3    0    0 0.29850686E+01 -.66883661E+02 -.10357362E+03 0.14723126E+03 0.80419002E+02 0.0000E+00 0.9000E+01
#aMCatNLO 1  0  0  2  2 0.62480652D+03 0.00000000D+00  -5  7  0 0.00000000D+00 0.00000000D+00 0.00000000D+00 0.00000000D+00 0.00000000D+00
  <mgrwgt>
 0.1198774687D-02    3    2    0
 0.396326124127125D+03 0.000000000000000D+00 0.000000000000000D+00 0.396326124127125D+03
 0.396326124127125D+03 0.000000000000000D+00 0.000000000000000D+00 -.396326124127125D+03
 0.332960457497059D+03 0.286432660041689D+03 -.751559531935627D+02 0.129241495903173D+03
 0.895070138178685D+02 -.837492962515127D+02 0.269910942943958D+02 0.164024915412111D+02
 0.255450947996105D+03 -.205668432443354D+03 0.115048520038940D+03 -.985876298794713D+02
 0.114733828943218D+03 0.298506865317842D+01 -.668836611397735D+02 -.470563575649126D+02
 0.000000000000000D+00 -.000000000000000D+00 0.000000000000000D+00 0.000000000000000D+00
 0.255374872785054D+04 0.000000000000000D+00 0.000000000000000D+00 0.255374872785054D+04
 0.552277196339896D+03 0.000000000000000D+00 0.000000000000000D+00 -.552277196339896D+03
 0.563435938929145D+03 0.402813104335162D+03 -.363360812464933D+03 0.129241495903173D+03
 0.695243870120486D+02 -.631020188204695D+02 -.241398815536183D+02 0.164024915412111D+02
 0.180477709332401D+03 -.149071182585573D+03 -.251090685442065D+02 -.985876298794713D+02
 0.195859132552233D+03 0.433098033323658D+02 -.166743947409726D+03 -.470563575649126D+02
 0.209672875636461D+04 -.233949706261486D+03 0.579353709972484D+03 0.200147153151064D+04
0.327936660671D-04 0.000000000000D+00 0.000000000000D+00 0.241001254038D-05 0.000000000000D+00  7 -2 2 24 -13 13 -24 21 0 0.39332861D-01 0.94519878D-01 0.13510966D+06 0.13510966D+06 0.13510966D+06 0.11111529D+01  1  2  2  2  7  2        2 0.118471161321D-02 0.100000000000D+01
-.180930488199D-05 0.000000000000D+00 -.125936312468D-06 0.241001254038D-05 0.000000000000D+00  7 -2 2 24 -13 13 -24 21 2 0.39332861D-01 0.94519878D-01 0.13510966D+06 0.13510966D+06 0.13510966D+06 0.11111529D+01  1  2  3  2  7  2        2 -.807015886618D-04 0.100000000000D+01
0.212459467717D-05 0.000000000000D+00 0.000000000000D+00 0.241001254038D-05 0.000000000000D+00  7 -2 2 24 -13 13 -24 21 2 0.39332861D-01 0.94519878D-01 0.13510966D+06 0.13510966D+06 0.13510966D+06 0.11111529D+01  1  2 15  2  7  2        2 0.947646620626D-04 0.100000000000D+01
  </mgrwgt>
  </event>
  <event>
  8     66 0.27011060E-05 0.16092594E+03 0.75467711E-02 0.99492051E-01
       -2 -1    0    0    0  501 0.00000000E+00 0.00000000E+00 0.99989944E+02 0.99990456E+02 0.32000000E+00 0.0000E+00 0.9000E+01
        2 -1    0    0  501    0 0.00000000E+00 0.00000000E+00 -.99112624E+03 0.99112630E+03 0.32000000E+00 0.0000E+00 0.9000E+01
       25  2    1    2    0    0 0.18858448E+03 -.94046223E+02 -.71314496E+03 0.80251652E+03 0.30174199E+03 0.0000E+00 0.0000E+00
       23  2    1    2    0    0 -.18858448E+03 0.94046223E+02 -.17799134E+03 0.28860024E+03 0.84855044E+02 0.0000E+00 0.0000E+00
       24  1    3    3    0    0 0.53440283E+02 0.83679254E+02 -.29979477E+03 0.32588679E+03 0.80419002E+02 0.0000E+00 0.9000E+01
      -13  1    4    4    0    0 -.14327780E+03 0.30822690E+02 -.13727774E+03 0.20080776E+03 0.10565837E+00 0.0000E+00 0.9000E+01
       13  1    4    4    0    0 -.45306682E+02 0.63223533E+02 -.40713603E+02 0.87792478E+02 0.10565837E+00 0.0000E+00 0.9000E+01
      -24  1    3    3    0    0 0.13514420E+03 -.17772548E+03 -.41335019E+03 0.47662973E+03 0.80419002E+02 0.0000E+00 0.9000E+01
#aMCatNLO 1  0  0  2  1 0.70242913D+02 0.00000000D+00  -5  7  0 0.00000000D+00 0.00000000D+00 0.00000000D+00 0.00000000D+00 0.00000000D+00
  <mgrwgt>
 0.8964025524D-03    6    2    0
 0.314806234695015D+03 0.000000000000000D+00 0.000000000000000D+00 0.314806234695015D+03
 0.314806234695015D+03 0.000000000000000D+00 0.000000000000000D+00 -.314806234695015D+03
 0.140439617224484D+03 0.534402857465765D+02 0.836792472777267D+02 -.582922770712070D+02
 0.153700247088072D+03 -.143277956811415D+03 0.308226420293207D+02 0.463158480998985D+02
 0.945191201707256D+02 -.453065321031623D+02 0.632235830313376D+02 0.537025211262260D+02
 0.240953484906750D+03 0.135144203168001D+03 -.177725472338385D+03 -.417260921549176D+02
 0.000000000000000D+00 0.000000000000000D+00 -.000000000000000D+00 0.000000000000000D+00
 0.354122874291781D+03 0.000000000000000D+00 0.000000000000000D+00 0.354122874291781D+03
 0.349773266704286D+03 0.000000000000000D+00 0.000000000000000D+00 -.349773266704286D+03
 0.137690973245219D+03 0.384000702443720D+02 0.872870734870069D+02 -.582922770712070D+02
 0.170999846573503D+03 -.160836469070023D+03 0.350345538010161D+02 0.463158480998985D+02
 0.101666055581844D+03 -.559154597895180D+02 0.657684380138730D+02 0.537025211262260D+02
 0.223161812862412D+03 0.110046661453767D+03 -.171705108549592D+03 -.417260921549176D+02
 0.703774527330883D+02 0.683051971614022D+02 -.163849567523040D+02 0.434960758749425D+01
0.885827862936D-05 0.000000000000D+00 0.000000000000D+00 0.245854902511D-08 0.000000000000D+00  7 -2 2 24 -13 13 -24 21 0 0.15383112D-01 0.15248100D+00 0.86854144D+05 0.86854144D+05 0.86854144D+05 0.11267799D+01  1  2  2  2  7  2        2 0.877480950879D-03 0.100000000000D+01
-.489522956721D-06 0.000000000000D+00 -.340181223751D-07 0.245854902511D-08 0.000000000000D+00  7 -2 2 24 -13 13 -24 21 2 0.15383112D-01 0.15248100D+00 0.86854144D+05 0.86854144D+05 0.86854144D+05 0.11267799D+01  1  2  3  2  7  2        2 -.615658072229D-04 0.100000000000D+01
0.586041115715D-06 0.000000000000D+00 0.000000000000D+00 0.245854902511D-08 0.000000000000D+00  7 -2 2 24 -13 13 -24 21 2 0.15383112D-01 0.15248100D+00 0.86854144D+05 0.86854144D+05 0.86854144D+05 0.11267799D+01  1  2 15  2  7  2        2 0.737046013051D-04 0.100000000000D+01
0.726989349073D-05 0.000000000000D+00 0.000000000000D+00 0.245854902511D-08 0.000000000000D+00  7 -2 2 24 -13 13 -24 21 2 0.15383112D-01 0.17788924D+00 0.11060454D+06 0.11060454D+06 0.11060454D+06 0.11181476D+01  1  2 12  2  7  2        2 0.717657178949D-03 0.100000000000D+01
-.572900139480D-05 0.000000000000D+00 0.000000000000D+00 0.245854902511D-08 0.000000000000D+00  7 -2 2 24 -13 13 -24 21 2 0.15383112D-01 0.15248100D+00 0.86854144D+05 0.86854144D+05 0.86854144D+05 0.11267799D+01  1  2  4  2  7  2        2 -.720519008576D-03 0.100000000000D+01
0.169502790262D-06 0.000000000000D+00 0.000000000000D+00 0.245854902511D-08 0.000000000000D+00  7 -2 21 24 -13 13 -24 -2 2 0.15383112D-01 0.17788924D+00 0.11060454D+06 0.11060454D+06 0.11060454D+06 0.11181476D+01  1  2 12  4  7  2        2 0.964463707716D-05 0.100000000000D+01
  </mgrwgt>
  </event>
  <event>
  8     66 0.27011060E-05 0.33218391E+03 0.75467711E-02 0.91456633E-01
       -2 -1    0    0    0  501 0.00000000E+00 0.00000000E+00 0.40240590E+03 0.40240603E+03 0.32000000E+00 0.0000E+00 0.9000E+01
        2 -1    0    0  501    0 0.00000000E+00 0.00000000E+00 -.13586730E+04 0.13586731E+04 0.32000000E+00 0.0000E+00 0.9000E+01
       25  2    1    2    0    0 0.53308864E+03 -.10756683E+03 -.10321216E+04 0.12045942E+04 0.30003014E+03 0.0000E+00 0.0000E+00
       23  2    1    2    0    0 -.53308864E+03 0.10756683E+03 0.75854475E+02 0.55648488E+03 0.90373671E+02 0.0000E+00 0.0000E+00
       24  1    3    3    0    0 0.20242057E+03 -.13141609E+03 -.27755278E+03 0.37649308E+03 0.80419002E+02 0.0000E+00 0.9000E+01
      -11  1    4    4    0    0 -.27795739E+03 0.57181562E+02 -.60204563E+01 0.28384201E+03 0.51099893E-03 0.0000E+00 0.9000E+01
       11  1    4    4    0    0 -.25513126E+03 0.50385270E+02 0.81874932E+02 0.27264288E+03 0.51099893E-03 0.0000E+00 0.9000E+01
      -24  1    3    3    0    0 0.33066807E+03 0.23849256E+02 -.75456883E+03 0.82810114E+03 0.80419002E+02 0.0000E+00 0.9000E+01
#aMCatNLO 1  0  0  2  1 0.18693213D+03 0.00000000D+00  -5  7  0 0.00000000D+00 0.00000000D+00 0.00000000D+00 0.00000000D+00 0.00000000D+00
  <mgrwgt>
 0.8484727340D-03    9    2    0
 0.739417467075593D+03 0.000000000000000D+00 0.000000000000000D+00 0.739417467075593D+03
 0.739417467075593D+03 0.000000000000000D+00 0.000000000000000D+00 -.739417467075593D+03
 0.268873476458753D+03 0.202420572458707D+03 -.131416089108284D+03 -.870715439028043D+02
 0.334121848371109D+03 -.277957385413359D+03 0.571815624923299D+02 0.176372816397628D+03
 0.377621575172887D+03 -.255131256878413D+03 0.503852703119042D+02 0.273801790233903D+03
 0.498218034148437D+03 0.330668069833065D+03 0.238492563040498D+02 -.363103062728726D+03
 0.000000000000000D+00 -.000000000000000D+00 0.000000000000000D+00 -.000000000000000D+00
 0.779885573343011D+03 0.000000000000000D+00 0.000000000000000D+00 0.779885573343011D+03
 0.997899307034256D+03 0.000000000000000D+00 0.000000000000000D+00 -.997899307034256D+03
 0.298953625424774D+03 0.222066902209595D+03 -.161278924183111D+03 -.870715439028043D+02
 0.311431456405672D+03 -.255621795838029D+03 0.232309958346063D+02 0.176372816397628D+03
 0.357580841105240D+03 -.229693885087005D+03 0.117199293461402D+02 0.273801790233903D+03
 0.522636768589414D+03 0.365988768714534D+03 -.298389500326722D+02 -.363103062728726D+03
 0.287182188852169D+03 -.102739989999094D+03 0.156166949035037D+03 -.218013733691245D+03
0.150341710931D-03 0.000000000000D+00 0.000000000000D+00 0.101989408674D-04 0.000000000000D+00  7 -2 2 24 -11 11 -24 21 0 0.61908613D-01 0.20902663D+00 0.32453694D+06 0.32453694D+06 0.32453694D+06 0.10820348D+01  1  2  2  2  7  2        2 0.718491816242D-03 0.100000000000D+01
-.766167230860D-05 0.000000000000D+00 -.577351755856D-06 0.101989408674D-04 0.000000000000D+00  7 -2 2 24 -11 11 -24 21 2 0.61908613D-01 0.20902663D+00 0.32453694D+06 0.32453694D+06 0.32453694D+06 0.10820348D+01  1  2  3  2  7  2        2 -.428694973230D-04 0.100000000000D+01
0.874619822586D-05 0.000000000000D+00 0.000000000000D+00 0.101989408674D-04 0.000000000000D+00  7 -2 2 24 -11 11 -24 21 2 0.61908613D-01 0.20902663D+00 0.32453694D+06 0.32453694D+06 0.32453694D+06 0.10820348D+01  1  2 15  2  7  2        2 0.489377653242D-04 0.100000000000D+01
0.207254975507D-03 0.000000000000D+00 0.000000000000D+00 0.101989408674D-04 0.000000000000D+00  7 -2 2 24 -11 11 -24 21 2 0.61908613D-01 0.28631864D+00 0.44588926D+06 0.44588926D+06 0.44588926D+06 0.10720438D+01  1  2 12  2  7  2        2 0.592615060135D-03 0.100000000000D+01
-.228833515863D-03 0.000000000000D+00 0.000000000000D+00 0.101989408674D-04 0.000000000000D+00  7 -2 2 24 -11 11 -24 21 2 0.61908613D-01 0.20902663D+00 0.32453694D+06 0.32453694D+06 0.32453694D+06 0.10820348D+01  1  2  4  2  7  2        2 -.128039642007D-02 0.100000000000D+01
-.285653380147D-03 0.000000000000D+00 -.655351202486D-04 0.101989408674D-04 0.000000000000D+00  7 -2 2 24 -11 11 -24 21 2 0.61908613D-01 0.28793571D+00 0.32453694D+06 0.32453694D+06 0.32453694D+06 0.10820348D+01  1  2  5  2  7  2        2 -.835579413060D-03 0.100000000000D+01
0.294625524791D-03 0.000000000000D+00 0.623118450870D-04 0.101989408674D-04 0.000000000000D+00  7 -2 2 24 -11 11 -24 21 2 0.61908613D-01 0.20902663D+00 0.32453694D+06 0.32453694D+06 0.32453694D+06 0.10820348D+01  1  2  6  2  7  2        2 0.164852366919D-02 0.100000000000D+01
0.829179725236D-05 0.000000000000D+00 0.000000000000D+00 0.101989408674D-04 0.000000000000D+00  7 -2 21 24 -11 11 -24 -2 2 0.61908613D-01 0.28631864D+00 0.44588926D+06 0.44588926D+06 0.44588926D+06 0.10720438D+01  1  2 12  4  7  2        2 0.536160536257D-05 0.100000000000D+01
-.995104765475D-05 0.000000000000D+00 -.265564540486D-05 0.101989408674D-04 0.000000000000D+00  7 -2 21 24 -11 11 -24 -2 2 0.61908613D-01 0.28793571D+00 0.32453694D+06 0.32453694D+06 0.32453694D+06 0.10820348D+01  1  2  5  4  7  2        2 -.661185183790D-05 0.100000000000D+01
  </mgrwgt>
  </event>
  <event>
  8     66 0.27011060E-05 0.78687718E+03 0.75467711E-02 0.82336989E-01
       -2 -1    0    0    0  501 0.00000000E+00 0.00000000E+00 0.38659774E+03 0.38659787E+03 0.32000000E+00 0.0000E+00 0.9000E+01
        2 -1    0    0  501    0 0.00000000E+00 0.00000000E+00 -.16700635E+04 0.16700635E+04 0.32000000E+00 0.0000E+00 0.9000E+01
       25  2    1    2    0    0 -.71176258E+03 0.28813362E+03 -.76714559E+03 0.11262104E+04 0.30035071E+03 0.0000E+00 0.0000E+00
       23  2    1    2    0    0 0.71176258E+03 -.28813362E+03 -.51632018E+03 0.93045101E+03 0.97599212E+02 0.0000E+00 0.0000E+00
       24  1    3    3    0    0 -.42976078E+03 0.26295430E+03 -.36260181E+03 0.62592858E+03 0.80419002E+02 0.0000E+00 0.9000E+01
      -11  1    4    4    0    0 0.40169635E+03 -.18696093E+03 -.34815879E+03 0.56349702E+03 0.51099893E-03 0.0000E+00 0.9000E+01
       11  1    4    4    0    0 0.31006624E+03 -.10117268E+03 -.16816139E+03 0.36695400E+03 0.51099893E-03 0.0000E+00 0.9000E+01
      -24  1    3    3    0    0 -.28200180E+03 0.25179314E+02 -.40454379E+03 0.50028182E+03 0.80419002E+02 0.0000E+00 0.9000E+01
#aMCatNLO 1  0  0  2  1 0.13875243D+04 0.00000000D+00  -5  7  0 0.00000000D+00 0.00000000D+00 0.00000000D+00 0.00000000D+00 0.00000000D+00
  <mgrwgt>
 0.1011085944D-02    3    2    0
 0.803519099903103D+03 0.000000000000000D+00 0.000000000000000D+00 0.803519099903103D+03
 0.803519099903103D+03 0.000000000000000D+00 0.000000000000000D+00 -.803519099903103D+03
 0.511460237772489D+03 -.429760782264322D+03 0.262954302808720D+03 0.358477827746477D+02
 0.443096300301222D+03 0.401696346398557D+03 -.186960933316619D+03 0.447057536116168D+01
 0.335319182623528D+03 0.310066235272481D+03 -.101172683079233D+03 0.778586679683808D+02
 0.317162479108966D+03 -.282001799406716D+03 0.251793135871323D+02 -.118177026104190D+03
 0.000000000000000D+00 -.000000000000000D+00 -.000000000000000D+00 0.000000000000000D+00
 0.246946059818785D+04 0.000000000000000D+00 0.000000000000000D+00 0.246946059818785D+04
 0.140344366054225D+04 0.000000000000000D+00 0.000000000000000D+00 -.140344366054225D+04
 0.874024803812832D+03 -.390758338206665D+03 0.776836533202318D+03 0.358477827746477D+02
 0.450689568113665D+03 0.426857089593942D+03 0.144548005264034D+03 0.447057536116168D+01
 0.376168813069311D+03 0.330095156492700D+03 0.162721207616656D+03 0.778586679683808D+02
 0.422273748784325D+03 -.261186114468238D+03 0.299439321179017D+03 -.118177026104190D+03
 0.174974732494997D+04 -.105007793411739D+03 -.138354506726202D+04 0.106601693764559D+04
0.296386265907D-03 0.000000000000D+00 0.000000000000D+00 0.371765007244D-06 0.000000000000D+00  7 -2 2 24 -11 11 -24 21 0 0.59476588D-01 0.25693286D+00 0.61917569D+06 0.61917569D+06 0.61917569D+06 0.10620099D+01  1  2  2  2  7  2        2 0.100405280758D-02 0.100000000000D+01
-.164571345598D-04 0.000000000000D+00 -.113820130138D-05 0.371765007244D-06 0.000000000000D+00  7 -2 2 24 -11 11 -24 21 2 0.59476588D-01 0.25693286D+00 0.61917569D+06 0.61917569D+06 0.61917569D+06 0.10620099D+01  1  2  3  2  7  2        2 -.628796092913D-04 0.100000000000D+01
0.182978786719D-04 0.000000000000D+00 0.000000000000D+00 0.371765007244D-06 0.000000000000D+00  7 -2 2 24 -11 11 -24 21 2 0.59476588D-01 0.25693286D+00 0.61917569D+06 0.61917569D+06 0.61917569D+06 0.10620099D+01  1  2 15  2  7  2        2 0.699127455978D-04 0.100000000000D+01
  </mgrwgt>
  </event>
  <event>
  9     66 0.27011060E-05 0.22103820E+03 0.75467711E-02 0.10006688E+00
       -2 -1    0    0    0  501 0.00000000E+00 0.00000000E+00 0.32991995E+03 0.32992011E+03 0.32000000E+00 0.0000E+00 0.9000E+01
        2 -1    0    0  502    0 0.00000000E+00 0.00000000E+00 -.14492230E+04 0.14492230E+04 0.32000000E+00 0.0000E+00 0.9000E+01
       25  2    1    2    0    0 0.20541485E+03 0.14385938E+02 0.19754905E+03 0.41375127E+03 0.29960352E+03 0.0000E+00 0.0000E+00
       23  2    1    2    0    0 -.13806165E+02 -.97662258E+02 -.73337740E+03 0.74564022E+03 0.91697333E+02 0.0000E+00 0.0000E+00
       24  1    3    3    0    0 0.21555975E+03 -.16482410E+02 0.40283197E+02 0.23415300E+03 0.80419002E+02 0.0000E+00 0.9000E+01
      -11  1    4    4    0    0 0.17525964E+02 -.31932643E+02 -.76393263E+02 0.84633231E+02 0.51099893E-03 0.0000E+00 0.9000E+01
       11  1    4    4    0    0 -.31332128E+02 -.65729615E+02 -.65698413E+03 0.66100699E+03 0.51099893E-03 0.0000E+00 0.9000E+01
      -24  1    3    3    0    0 -.10144900E+02 0.30868348E+02 0.15726585E+03 0.17959827E+03 0.80419002E+02 0.0000E+00 0.9000E+01
       21  1    1    2  502  501 -.19160868E+03 0.83276320E+02 -.58347471E+03 0.61975167E+03 0.75000000E+00 0.0000E+00 0.9000E+01
#aMCatNLO 2  0  0  2  1 0.20892303D+03 0.00000000D+00  -5  7  0 0.00000000D+00 0.00000000D+00 0.00000000D+00 0.00000000D+00 0.00000000D+00
  <mgrwgt>
 0.6084590774D-03    2    2    0
 0.503345744446505D+03 0.000000000000000D+00 0.000000000000000D+00 0.503345744446505D+03
 0.503345744446505D+03 0.000000000000000D+00 0.000000000000000D+00 -.503345744446505D+03
 0.248719851702353D+03 0.165298795886802D+03 0.536183604009982D+01 0.167457181001958D+03
 0.508318699202063D+02 0.750162334496856D+01 -.275758981239586D+02 -.420377745537517D+02
 0.412107320663269D+03 -.108085564533264D+03 -.323712956981732D+02 -.396361014352579D+03
 0.295032446607181D+03 -.647148546985064D+02 0.545853577820320D+02 0.270941607904373D+03
 0.000000000000000D+00 -.000000000000000D+00 0.000000000000000D+00 -.000000000000000D+00
 0.543977867466174D+03 0.000000000000000D+00 0.000000000000000D+00 0.543977867466174D+03
 0.878945972336668D+03 0.000000000000000D+00 0.000000000000000D+00 -.878945972336668D+03
 0.285038240838505D+03 0.215559749209207D+03 -.164824099475897D+02 0.167457181001958D+03
 0.556239838442600D+02 0.175259635315168D+02 -.319326430407254D+02 -.420377745537517D+02
 0.402993968045575D+03 -.313321281032739D+02 -.657296153269774D+02 -.396361014352579D+03
 0.284486106445511D+03 -.101448999727716D+02 0.308683481399835D+02 0.270941607904373D+03
 0.394781540628991D+03 -.191608684664678D+03 0.832763201753090D+02 -.334968104870494D+03
-.286512391233D-06 0.000000000000D+00 0.000000000000D+00 0.643843204519D-05 0.000000000000D+00  7 -2 2 24 -11 11 -24 21 2 0.46965640D-01 0.22473953D+00 0.10098459D+06 0.10098459D+06 0.10098459D+06 0.11213730D+01  1  2 13  2  7  2        2 -.276946049696D-05 0.100000000000D+01
0.725051393853D-04 0.000000000000D+00 0.000000000000D+00 0.643843204519D-05 0.116125748805D-08  7 -2 2 24 -11 11 -24 21 2 0.50756898D-01 0.22295726D+00 0.10098459D+06 0.10098459D+06 0.10098459D+06 0.11213730D+01  1  2  1  2  7  2        2 0.611228537869D-03 0.100000000000D+01
  </mgrwgt>
  </event>
  <event>
  8     66 0.27011060E-05 0.13875143E+03 0.75467711E-02 0.10236031E+00
       -2 -1    0    0    0  501 0.00000000E+00 0.00000000E+00 0.18801322E+03 0.18801349E+03 0.32000000E+00 0.0000E+00 0.9000E+01
        2 -1    0    0  501    0 0.00000000E+00 0.00000000E+00 -.52314266E+03 0.52314276E+03 0.32000000E+00 0.0000E+00 0.9000E+01
       25  2    1    2    0    0 -.39524690E+02 -.91562048E+01 0.56094824E+02 0.30695231E+03 0.29904357E+03 0.0000E+00 0.0000E+00
       23  2    1    2    0    0 0.39524690E+02 0.91562048E+01 -.39122427E+03 0.40420394E+03 0.93157725E+02 0.0000E+00 0.0000E+00
       24  1    3    3    0    0 -.54960361E+02 -.12584264E+03 0.25745992E+02 0.16120509E+03 0.80419002E+02 0.0000E+00 0.9000E+01
      -11  1    4    4    0    0 0.28861691E+02 -.83868781E+01 -.30237302E+02 0.42633688E+02 0.51099893E-03 0.0000E+00 0.9000E+01
       11  1    4    4    0    0 0.10663000E+02 0.17543083E+02 -.36098696E+03 0.36157025E+03 0.51099893E-03 0.0000E+00 0.9000E+01
      -24  1    3    3    0    0 0.15435671E+02 0.11668643E+03 0.30348832E+02 0.14574722E+03 0.80419002E+02 0.0000E+00 0.9000E+01
#aMCatNLO 1  0  0  1  2 0.14314667D+03 0.00000000D+00  -5  7  0 0.00000000D+00 0.00000000D+00 0.00000000D+00 0.00000000D+00 0.00000000D+00
  <mgrwgt>
 0.4567615729D-03    9    2    0
 0.313620578920569D+03 0.000000000000000D+00 0.000000000000000D+00 0.313620578920569D+03
 0.313620578920569D+03 0.000000000000000D+00 0.000000000000000D+00 -.313620578920569D+03
 0.196527682136129D+03 -.549603611109455D+02 -.125842636940322D+03 0.115320871163418D+03
 0.321818860803007D+02 0.288616905727082D+02 -.838687805547619D+01 -.115037770081512D+02
 0.217070553258350D+03 0.106629998839092D+02 0.175430828065644D+02 -.216097583908299D+03
 0.181461036366358D+03 0.154356706543281D+02 0.116686432189233D+03 0.112280489753031D+03
 0.000000000000000D+00 0.000000000000000D+00 0.000000000000000D+00 0.000000000000000D+00
 0.460409024095003D+03 0.000000000000000D+00 0.000000000000000D+00 0.460409024095003D+03
 0.358611341573277D+03 0.000000000000000D+00 0.000000000000000D+00 -.358611341573277D+03
 0.215571208875068D+03 -.101327001426829D+03 -.128209459859424D+03 0.115320871163418D+03
 0.265287403206848D+02 0.222559593843154D+02 -.872407298414909D+01 -.115037770081512D+02
 0.220017207124693D+03 -.385152226597791D+02 0.150327403826981D+02 -.216097583908299D+03
 0.181250887673552D+03 -.253742749365804D+02 0.114603255278122D+03 0.112280489753031D+03
 0.175652321674283D+03 0.142960539638874D+03 0.729753718275326D+01 0.101797682521726D+03
0.918993871239D-05 0.000000000000D+00 0.000000000000D+00 0.242257143639D-06 0.000000000000D+00  7 -2 2 24 -11 11 -24 21 0 0.28925139D-01 0.80483515D-01 0.31024129D+05 0.31024129D+05 0.31024129D+05 0.11659857D+01  1  2  2  1  7  1       -2 0.697364595808D-03 0.100000000000D+01
-.303938852845D-06 0.000000000000D+00 -.352917844220D-07 0.242257143639D-06 0.000000000000D+00  7 -2 2 24 -11 11 -24 21 2 0.28925139D-01 0.80483515D-01 0.31024129D+05 0.31024129D+05 0.31024129D+05 0.11659857D+01  1  2  3  1  7  1       -2 -.313559504267D-04 0.100000000000D+01
0.579405108206D-06 0.000000000000D+00 0.000000000000D+00 0.242257143639D-06 0.000000000000D+00  7 -2 2 24 -11 11 -24 21 2 0.28925139D-01 0.80483515D-01 0.31024129D+05 0.31024129D+05 0.31024129D+05 0.11659857D+01  1  2 15  1  7  1       -2 0.597745160903D-04 0.100000000000D+01
0.426609128680D-06 0.000000000000D+00 0.000000000000D+00 0.242257143639D-06 0.000000000000D+00  7 -2 2 24 -11 11 -24 21 2 0.43763838D-01 0.80483515D-01 0.70972467D+05 0.70972467D+05 0.70972467D+05 0.11341506D+01  1  2 12  1  7  1       -2 0.196551091130D-04 0.100000000000D+01
-.634911705484D-05 0.000000000000D+00 0.000000000000D+00 0.242257143639D-06 0.000000000000D+00  7 -2 2 24 -11 11 -24 21 2 0.28925139D-01 0.80483515D-01 0.31024129D+05 0.31024129D+05 0.31024129D+05 0.11659857D+01  1  2  4  1  7  1       -2 -.655008722187D-03 0.100000000000D+01
-.446099753659D-05 0.000000000000D+00 -.326140932489D-05 0.242257143639D-06 0.000000000000D+00  7 -2 2 24 -11 11 -24 21 2 0.47695428D-01 0.80483515D-01 0.31024129D+05 0.31024129D+05 0.31024129D+05 0.11659857D+01  1  2  5  1  7  1       -2 -.186371057855D-03 0.100000000000D+01
0.572976585282D-05 0.000000000000D+00 0.289211302890D-05 0.242257143639D-06 0.000000000000D+00  7 -2 2 24 -11 11 -24 21 2 0.28925139D-01 0.80483515D-01 0.31024129D+05 0.31024129D+05 0.31024129D+05 0.11659857D+01  1  2  6  1  7  1       -2 0.591113154359D-03 0.100000000000D+01
0.208313268683D-07 0.000000000000D+00 0.000000000000D+00 0.242257143639D-06 0.000000000000D+00  7 21 2 24 -11 11 -24 2 2 0.43763838D-01 0.80483515D-01 0.70972467D+05 0.70972467D+05 0.70972467D+05 0.11341506D+01  1  2 12  3  7  1       -2 0.106996555782D-04 0.100000000000D+01
-.104426829010D-06 0.000000000000D+00 -.183922889731D-06 0.242257143639D-06 0.000000000000D+00  7 21 2 24 -11 11 -24 2 2 0.47695428D-01 0.80483515D-01 0.31024129D+05 0.31024129D+05 0.31024129D+05 0.11659857D+01  1  2  5  3  7  1       -2 -.491097275816D-04 0.100000000000D+01
  </mgrwgt>
  </event>
  <event>
  8     66 0.27011060E-05 0.11246513E+03 0.75467711E-02 0.10619076E+00
       -2 -1    0    0    0  501 0.00000000E+00 0.00000000E+00 0.15217902E+03 0.15217935E+03 0.32000000E+00 0.0000E+00 0.9000E+01
        2 -1    0    0  501    0 0.00000000E+00 0.00000000E+00 -.11316337E+04 0.11316337E+04 0.32000000E+00 0.0000E+00 0.9000E+01
       25  2    1    2    0    0 -.14506595E+03 0.13025964E+02 -.48839623E+02 0.33821566E+03 0.30131498E+03 0.0000E+00 0.0000E+00
       23  2    1    2    0    0 0.14506595E+03 -.13025964E+02 -.93061506E+03 0.94559744E+03 0.83044057E+02 0.0000E+00 0.0000E+00
       24  1    3    3    0    0 -.51042504E+02 0.42594684E+02 0.98549015E+02 0.14352271E+03 0.80419002E+02 0.0000E+00 0.9000E+01
      -13  1    4    4    0    0 -.10338516E+02 0.37796356E+01 -.47815974E+02 0.49066782E+02 0.10565837E+00 0.0000E+00 0.9000E+01
       13  1    4    4    0    0 0.15540447E+03 -.16805599E+02 -.88279909E+03 0.89653066E+03 0.10565837E+00 0.0000E+00 0.9000E+01
      -24  1    3    3    0    0 -.94023446E+02 -.29568720E+02 -.14738864E+03 0.19469295E+03 0.80419002E+02 0.0000E+00 0.9000E+01
#aMCatNLO 1  0  0  1  2 0.48687770D+01 0.00000000D+00  -5  7  0 0.00000000D+00 0.00000000D+00 0.00000000D+00 0.00000000D+00 0.00000000D+00
  <mgrwgt>
 0.1156325217D-02   11    2    0
 0.414983309349440D+03 0.000000000000000D+00 0.000000000000000D+00 0.414983309349440D+03
 0.414983309349440D+03 0.000000000000000D+00 0.000000000000000D+00 -.414983309349440D+03
 0.338303521680699D+03 -.510425040524858D+02 0.425946834488444D+02 0.321811144227694D+03
 0.194689276536306D+02 -.103387839682999D+02 0.377966884111050D+01 -.160581067841345D+02
 0.344973552872403D+03 0.155404733847676D+03 -.168056327624569D+02 -.307528358995711D+03
 0.127220616492147D+03 -.940234458268899D+02 -.295687195274979D+02 0.177532155215174D+01
 0.000000000000000D+00 0.000000000000000D+00 -.000000000000000D+00 0.000000000000000D+00
 0.430313550707387D+03 0.000000000000000D+00 0.000000000000000D+00 0.430313550707387D+03
 0.415377202118826D+03 0.000000000000000D+00 0.000000000000000D+00 -.415377202118826D+03
 0.338697310103350D+03 -.524298020802539D+02 0.440153975508788D+02 0.321811144227694D+03
 0.195274988252916D+02 -.104186947498002D+02 0.386150444666146D+01 -.160581067841345D+02
 0.344272042627240D+03 0.153992344068531D+03 -.153592225199303D+02 -.307528358995711D+03
 0.127484047708805D+03 -.945453820812047D+02 -.290342113093460D+02 0.177532155215174D+01
 0.157098535615266D+02 0.340153484272829D+01 -.348346816826387D+01 0.149363485885610D+02
0.208344123310D-04 0.000000000000D+00 0.000000000000D+00 0.217207481495D-07 0.000000000000D+00  7 -2 2 24 -13 13 -24 21 0 0.23412186D-01 0.17409752D+00 0.39773749D+05 0.39773749D+05 0.39773749D+05 0.11561402D+01  1  2  2  1  7  1       -2 0.866912826242D-03 0.100000000000D+01
-.401835392500D-06 0.000000000000D+00 -.800096291777D-07 0.217207481495D-07 0.000000000000D+00  7 -2 2 24 -13 13 -24 21 2 0.23412186D-01 0.17409752D+00 0.39773749D+05 0.39773749D+05 0.39773749D+05 0.11561402D+01  1  2  3  1  7  1       -2 -.223492703179D-04 0.100000000000D+01
0.127566784774D-05 0.000000000000D+00 0.000000000000D+00 0.217207481495D-07 0.000000000000D+00  7 -2 2 24 -13 13 -24 21 2 0.23412186D-01 0.17409752D+00 0.39773749D+05 0.39773749D+05 0.39773749D+05 0.11561402D+01  1  2 15  1  7  1       -2 0.709500608882D-04 0.100000000000D+01
0.122289575238D-03 0.000000000000D+00 0.000000000000D+00 0.217207481495D-07 0.000000000000D+00  7 -2 2 24 -13 13 -24 21 2 0.24287964D-01 0.17409752D+00 0.40767259D+05 0.40767259D+05 0.40767259D+05 0.11551764D+01  1  2 12  1  7  1       -2 0.638262914862D-02 0.100000000000D+01
-.106602345270D-02 0.000000000000D+00 0.000000000000D+00 0.217207481495D-07 0.000000000000D+00  7 -2 2 24 -13 13 -24 21 2 0.23412186D-01 0.17409752D+00 0.39773749D+05 0.39773749D+05 0.39773749D+05 0.11561402D+01  1  2  4  1  7  1       -2 -.592900644249D-01 0.100000000000D+01
-.155194176534D-02 0.000000000000D+00 -.717691833085D-04 0.217207481495D-07 0.000000000000D+00  7 -2 2 24 -13 13 -24 21 2 0.24291088D-01 0.17409752D+00 0.39773749D+05 0.39773749D+05 0.39773749D+05 0.11561402D+01  1  2  5  1  7  1       -2 -.811523359757D-01 0.100000000000D+01
0.155358026994D-02 0.000000000000D+00 0.717204747551D-04 0.217207481495D-07 0.000000000000D+00  7 -2 2 24 -13 13 -24 21 2 0.23412186D-01 0.17409752D+00 0.39773749D+05 0.39773749D+05 0.39773749D+05 0.11561402D+01  1  2  6  1  7  1       -2 0.864069866950D-01 0.100000000000D+01
0.943222731886D-03 0.000000000000D+00 0.000000000000D+00 0.217207481495D-07 0.652498518254D-08  7 -2 2 24 -13 13 -24 21 2 0.24277074D-01 0.17426277D+00 0.40767259D+05 0.40767259D+05 0.40767259D+05 0.11551764D+01  1  2 11  1  7  1       -2 0.491972212491D-01 0.100000000000D+01
0.320309665427D-05 0.000000000000D+00 0.000000000000D+00 0.217207481495D-07 0.000000000000D+00  7 21 2 24 -13 13 -24 2 2 0.24287964D-01 0.17409752D+00 0.40767259D+05 0.40767259D+05 0.40767259D+05 0.11551764D+01  1  2 12  3  7  1       -2 0.211566516953D-02 0.100000000000D+01
-.112662442905D-04 0.000000000000D+00 -.469617821898D-06 0.217207481495D-07 0.000000000000D+00  7 21 2 24 -13 13 -24 2 2 0.24291088D-01 0.17409752D+00 0.39773749D+05 0.39773749D+05 0.39773749D+05 0.11561402D+01  1  2  5  3  7  1       -2 -.746016111859D-02 0.100000000000D+01
0.612132492244D-05 0.000000000000D+00 0.000000000000D+00 0.217207481495D-07 0.421675474841D-10  7 21 2 24 -13 13 -24 2 2 0.24277074D-01 0.17426277D+00 0.40767259D+05 0.40767259D+05 0.40767259D+05 0.11551764D+01  1  2 11  3  7  1       -2 0.404087085675D-02 0.100000000000D+01
  </mgrwgt>
  </event>
  <event>
  7     66 0.27011060E-05 0.40659406E+03 0.75467711E-02 0.94814459E-01
       -2 -1    0    0    0  501 0.00000000E+00 0.00000000E+00 0.43013094E+03 0.43013106E+03 0.32000000E+00 0.0000E+00 0.9000E+01
        2 -1    0    0  501    0 0.00000000E+00 0.00000000E+00 -.56899567E+03 0.56899576E+03 0.32000000E+00 0.0000E+00 0.9000E+01
       25  2    1    2    0    0 -.22532147E+03 -.31353556E+03 0.51931021E+02 0.49221803E+03 0.30084457E+03 0.0000E+00 0.0000E+00
       24  1    3    3    0    0 -.93999409E+02 -.17949585E+03 -.97912419E+02 0.23897428E+03 0.80419002E+02 0.0000E+00 0.9000E+01
      -11  1    1    2    0    0 0.19797692E+03 0.23173792E+03 -.81227152E+01 0.30489884E+03 0.51099893E-03 0.0000E+00 0.9000E+01
       11  1    1    2    0    0 0.27344546E+02 0.81797635E+02 -.18267304E+03 0.20200994E+03 0.51099893E-03 0.0000E+00 0.9000E+01
      -24  1    3    3    0    0 -.13132206E+03 -.13403971E+03 0.14984344E+03 0.25324375E+03 0.80419002E+02 0.0000E+00 0.9000E+01
#aMCatNLO 1  0  0  1  2 0.15680497D+03 0.00000000D+00  -5  7  0 0.00000000D+00 0.00000000D+00 0.00000000D+00 0.00000000D+00 0.00000000D+00
  <mgrwgt>
 0.5047106957D-02    4    2    0
 0.494714812220525D+03 0.000000000000000D+00 0.000000000000000D+00 0.494714812220525D+03
 0.494714812220525D+03 0.000000000000000D+00 0.000000000000000D+00 -.494714812220525D+03
 0.227574581425569D+03 -.939994111785350D+02 -.179495852210395D+03 -.653324107469259D+02
 0.306747080848137D+03 0.197976919519680D+03 0.231737922056690D+03 0.345896867172701D+02
 0.178351948609885D+03 0.273445534666385D+02 0.817976411271934D+02 -.156111623124866D+03
 0.276756013557459D+03 -.131322061807784D+03 -.134039710973488D+03 0.186854347154522D+03
 0.000000000000000D+00 0.000000000000000D+00 0.000000000000000D+00 -.000000000000000D+00
 0.522515937227390D+03 0.000000000000000D+00 0.000000000000000D+00 0.522515937227390D+03
 0.785114188812959D+03 0.000000000000000D+00 0.000000000000000D+00 -.785114188812959D+03
 0.256321704286962D+03 -.128207213603477D+03 -.196285981721134D+03 -.653324107469259D+02
 0.266227778682386D+03 0.157471936596701D+03 0.211856963301759D+03 0.345896867172701D+02
 0.170975754196773D+03 0.264973064613821D+01 0.696767434369453D+02 -.156111623124866D+03
 0.308252572300323D+03 -.172677738040038D+03 -.154338213382910D+03 0.186854347154522D+03
 0.305852316573906D+03 0.140763284400677D+03 0.690904883653395D+02 -.262598251585569D+03
0.383783938337D-03 0.000000000000D+00 0.000000000000D+00 0.272568957708D-09 0.000000000000D+00  7 -2 2 24 -11 11 -24 21 0 0.66174006D-01 0.87537812D-01 0.16531873D+06 0.16531873D+06 0.16531873D+06 0.11042346D+01  1  2  2  1  7  1       -2 0.538353654618D-02 0.100000000000D+01
-.203237584996D-04 0.000000000000D+00 -.147383137585D-05 0.272568957708D-09 0.000000000000D+00  7 -2 2 24 -11 11 -24 21 2 0.66174006D-01 0.87537812D-01 0.16531873D+06 0.16531873D+06 0.16531873D+06 0.11042346D+01  1  2  3  1  7  1       -2 -.347622295583D-03 0.100000000000D+01
0.240117100685D-04 0.000000000000D+00 0.000000000000D+00 0.272568957708D-09 0.000000000000D+00  7 -2 2 24 -11 11 -24 21 2 0.66174006D-01 0.87537812D-01 0.16531873D+06 0.16531873D+06 0.16531873D+06 0.11042346D+01  1  2 15  1  7  1       -2 0.410701877561D-03 0.100000000000D+01
-.233573278154D-04 0.000000000000D+00 0.000000000000D+00 0.272568957708D-09 0.000000000000D+00  7 -2 2 24 -11 11 -24 21 2 0.66174006D-01 0.87537812D-01 0.16531873D+06 0.16531873D+06 0.16531873D+06 0.11042346D+01  1  2  4  1  7  1       -2 -.399509171202D-03 0.100000000000D+01
  </mgrwgt>
  </event>
  <event>
  8     66 0.27011060E-05 0.15802447E+03 0.75467711E-02 0.10136157E+00
       -2 -1    0    0    0  501 0.00000000E+00 0.00000000E+00 0.33588511E+02 0.33590035E+02 0.32000000E+00 0.0000E+00 0.9000E+01
        2 -1    0    0  501    0 0.00000000E+00 0.00000000E+00 -.14084159E+04 0.14084160E+04 0.32000000E+00 0.0000E+00 0.9000E+01
       25  2    1    2    0    0 -.57447105E+02 0.41696953E+02 -.11675967E+04 0.12045861E+04 0.28758824E+03 0.0000E+00 0.0000E+00
       23  2    1    2    0    0 0.57447105E+02 -.41696953E+02 -.20723079E+03 0.23741989E+03 0.91568552E+02 0.0000E+00 0.0000E+00
       24  1    3    3    0    0 0.20992109E+02 0.24977479E+02 -.98987915E+03 0.99367625E+03 0.80419002E+02 0.0000E+00 0.9000E+01
      -13  1    4    4    0    0 0.39957813E+02 -.71052056E+02 -.13997770E+03 0.16198392E+03 0.10565837E+00 0.0000E+00 0.9000E+01
       13  1    4    4    0    0 0.17489291E+02 0.29355103E+02 -.67253089E+02 0.75435977E+02 0.10565837E+00 0.0000E+00 0.9000E+01
      -24  1    3    3    0    0 -.78439213E+02 0.16719475E+02 -.17771750E+03 0.21090988E+03 0.80419002E+02 0.0000E+00 0.9000E+01
#aMCatNLO 1  0  0  2  2 0.20116999D+03 0.00000000D+00  -5  7  0 0.00000000D+00 0.00000000D+00 0.00000000D+00 0.00000000D+00 0.00000000D+00
  <mgrwgt>
 0.3591969245D-02    3    2    0
 0.217503377540245D+03 0.000000000000000D+00 0.000000000000000D+00 0.217503377540245D+03
 0.217503377540245D+03 0.000000000000000D+00 0.000000000000000D+00 -.217503377540245D+03
 0.165455136928253D+03 0.209920065721568D+02 0.249775162126692D+02 -.140867475754685D+03
 0.945656134108633D+02 0.399579158722498D+02 -.710522403496551D+02 0.479332800902870D+02
 0.375113954422160D+02 0.174892900454355D+02 0.293552134307395D+02 0.154758187558741D+02
 0.137474609299159D+03 -.784392124898421D+02 0.167195107062464D+02 0.774583769085236D+02
 0.000000000000000D+00 -.000000000000000D+00 0.000000000000000D+00 0.000000000000000D+00
 0.382769855185140D+03 0.000000000000000D+00 0.000000000000000D+00 0.382769855185140D+03
 0.310319380818835D+03 0.000000000000000D+00 0.000000000000000D+00 -.310319380818835D+03
 0.187279490812686D+03 0.935760066509098D+02 -.250538988194229D+01 -.140867475754685D+03
 0.133104621475281D+03 0.868067791458673D+02 -.887909005032860D+02 0.479332800902870D+02
 0.440851741660647D+02 0.342798315718070D+02 0.229977121143851D+02 0.154758187558741D+02
 0.114801246316528D+03 -.265271253745252D+02 -.293626761704233D+01 0.774583769085236D+02
 0.213818703233417D+03 -.188135491994059D+03 0.712348458878855D+02 0.724504743663049D+02
0.116096481174D-04 0.000000000000D+00 0.000000000000D+00 0.751631464676D-09 0.000000000000D+00  7 -2 2 24 -13 13 -24 21 0 0.51675832D-02 0.21667950D+00 0.24971735D+05 0.24971735D+05 0.24971735D+05 0.11748010D+01  1  2  2  2  7  2        2 0.351828759241D-02 0.100000000000D+01
-.564946705701D-06 0.000000000000D+00 -.445841056613D-07 0.751631464676D-09 0.000000000000D+00  7 -2 2 24 -13 13 -24 21 2 0.51675832D-02 0.21667950D+00 0.24971735D+05 0.24971735D+05 0.24971735D+05 0.11748010D+01  1  2  3  2  7  2        2 -.236291662121D-03 0.100000000000D+01
0.741111223125D-06 0.000000000000D+00 0.000000000000D+00 0.751631464676D-09 0.000000000000D+00  7 -2 2 24 -13 13 -24 21 2 0.51675832D-02 0.21667950D+00 0.24971735D+05 0.24971735D+05 0.24971735D+05 0.11748010D+01  1  2 15  2  7  2        2 0.309973314228D-03 0.100000000000D+01
  </mgrwgt>
  </event>
  <event>
  8     66 0.27011060E-05 0.22503255E+03 0.75467711E-02 0.91255093E-01
       -2 -1    0    0    0  501 0.00000000E+00 0.00000000E+00 0.69432580E+03 0.69432588E+03 0.32000000E+00 0.0000E+00 0.9000E+01
        2 -1    0    0  501    0 0.00000000E+00 0.00000000E+00 -.88189896E+03 0.88189902E+03 0.32000000E+00 0.0000E+00 0.9000E+01
       25  2    1    2    0    0 0.42507423E+03 0.75868982E+02 -.71551214E+03 0.88792668E+03 0.30001996E+03 0.0000E+00 0.0000E+00
       23  2    1    2    0    0 -.42507423E+03 -.75868982E+02 0.52793898E+03 0.68829821E+03 0.92685838E+02 0.0000E+00 0.0000E+00
       24  1    3    3    0    0 0.35649192E+03 0.13289769E+03 -.63054845E+03 0.74081499E+03 0.80419002E+02 0.0000E+00 0.9000E+01
      -13  1    4    4    0    0 -.92823338E+02 -.56792774E+02 0.12806967E+03 0.16805786E+03 0.10565837E+00 0.0000E+00 0.9000E+01
       13  1    4    4    0    0 -.33225089E+03 -.19076208E+02 0.39986931E+03 0.52024036E+03 0.10565837E+00 0.0000E+00 0.9000E+01
      -24  1    3    3    0    0 0.68582306E+02 -.57028708E+02 -.84963688E+02 0.14711169E+03 0.80419002E+02 0.0000E+00 0.9000E+01
#aMCatNLO 1  0  0  2  1 0.34305476D+03 0.00000000D+00  -5  7  0 0.00000000D+00 0.00000000D+00 0.00000000D+00 0.00000000D+00 0.00000000D+00
  <mgrwgt>
 0.4491572984D-03    7    2    0
 0.782512178456756D+03 0.000000000000000D+00 0.000000000000000D+00 0.782512178456756D+03
 0.782512178456756D+03 0.000000000000000D+00 0.000000000000000D+00 -.782512178456756D+03
 0.670543600694920D+03 0.356491922559481D+03 0.132897689510828D+03 -.546272109622179D+03
 0.184609663910085D+03 -.928230265273654D+02 -.567928226438626D+02 0.149128096116853D+03
 0.571889721116190D+03 -.332251201789396D+03 -.190761591104994D+02 0.465083962507252D+03
 0.137981371192317D+03 0.685823057572797D+02 -.570287077564660D+02 -.679399490019249D+02
 0.000000000000000D+00 0.000000000000000D+00 -.000000000000000D+00 -.000000000000000D+00
 0.835759015444472D+03 0.000000000000000D+00 0.000000000000000D+00 0.835759015444472D+03
 0.164976175781246D+04 0.000000000000000D+00 0.000000000000000D+00 -.164976175781246D+04
 0.681397418694133D+03 0.297099172879684D+03 0.266747239857882D+03 -.546272109622179D+03
 0.185866210953909D+03 -.109098574485918D+03 -.201136860884927D+02 0.149128096116853D+03
 0.611184894719942D+03 -.384225402958787D+03 0.980546942962866D+02 0.465083962507252D+03
 0.123733676870529D+03 0.570847802631149D+02 -.311174875183968D+02 -.679399490019249D+02
 0.883338572018414D+03 0.139140024301906D+03 -.313570760547279D+03 -.814002742367983D+03
0.268514754769D-03 0.000000000000D+00 0.000000000000D+00 0.571548789270D-05 0.000000000000D+00  7 -2 2 24 -13 13 -24 21 0 0.10681936D+00 0.13567677D+00 0.22589939D+06 0.22589939D+06 0.22589939D+06 0.10937866D+01  1  2  2  2  7  2        2 0.730001853714D-03 0.100000000000D+01
-.104087063822D-04 0.000000000000D+00 -.103116735987D-05 0.571548789270D-05 0.000000000000D+00  7 -2 2 24 -13 13 -24 21 2 0.10681936D+00 0.13567677D+00 0.22589939D+06 0.22589939D+06 0.22589939D+06 0.10937866D+01  1  2  3  2  7  2        2 -.338546075401D-04 0.100000000000D+01
0.157109664239D-04 0.000000000000D+00 0.000000000000D+00 0.571548789270D-05 0.000000000000D+00  7 -2 2 24 -13 13 -24 21 2 0.10681936D+00 0.13567677D+00 0.22589939D+06 0.22589939D+06 0.22589939D+06 0.10937866D+01  1  2 15  2  7  2        2 0.511003560698D-04 0.100000000000D+01
0.910984025196D-04 0.000000000000D+00 0.000000000000D+00 0.571548789270D-05 0.000000000000D+00  7 -2 2 24 -13 13 -24 21 2 0.10681936D+00 0.28561073D+00 0.46324327D+06 0.46324327D+06 0.46324327D+06 0.10708619D+01  1  2 12  2  7  2        2 0.752981190517D-04 0.100000000000D+01
-.428613401416D-03 0.000000000000D+00 -.814707340513D-04 0.571548789270D-05 0.000000000000D+00  7 -2 2 24 -13 13 -24 21 2 0.10681936D+00 0.29172007D+00 0.22589939D+06 0.22589939D+06 0.22589939D+06 0.10937866D+01  1  2  5  2  7  2        2 -.368866293205D-03 0.100000000000D+01
0.733410256933D-05 0.000000000000D+00 0.000000000000D+00 0.571548789270D-05 0.000000000000D+00  7 -2 21 24 -13 13 -24 -2 2 0.10681936D+00 0.28561073D+00 0.46324327D+06 0.46324327D+06 0.46324327D+06 0.10708619D+01  1  2 12  4  7  2        2 0.137535478394D-05 0.100000000000D+01
-.304179196179D-04 0.000000000000D+00 -.675069973468D-05 0.571548789270D-05 0.000000000000D+00  7 -2 21 24 -13 13 -24 -2 2 0.10681936D+00 0.29172007D+00 0.22589939D+06 0.22589939D+06 0.22589939D+06 0.10937866D+01  1  2  5  4  7  2        2 -.589748449902D-05 0.100000000000D+01
  </mgrwgt>
  </event>
  <event>
  8     66 0.27011060E-05 0.75855282E+02 0.75467711E-02 0.10588393E+00
       -2 -1    0    0    0  501 0.00000000E+00 0.00000000E+00 0.45134452E+02 0.45135586E+02 0.32000000E+00 0.0000E+00 0.9000E+01
        2 -1    0    0  501    0 0.00000000E+00 0.00000000E+00 -.99645629E+03 0.99645634E+03 0.32000000E+00 0.0000E+00 0.9000E+01
       25  2    1    2    0    0 -.28171019E+02 -.37949513E+02 -.82474648E+03 0.87924445E+03 0.30104863E+03 0.0000E+00 0.0000E+00
       23  2    1    2    0    0 0.28171019E+02 0.37949513E+02 -.12657536E+03 0.16234747E+03 0.90008942E+02 0.0000E+00 0.0000E+00
       24  1    3    3    0    0 0.93029645E+02 -.87491679E+02 -.39453055E+03 0.42241079E+03 0.80419002E+02 0.0000E+00 0.9000E+01
      -11  1    4    4    0    0 -.18672881E+02 -.19766323E+02 -.37726112E+02 0.46504231E+02 0.51099893E-03 0.0000E+00 0.9000E+01
       11  1    4    4    0    0 0.46843900E+02 0.57715836E+02 -.88849243E+02 0.11584324E+03 0.51099893E-03 0.0000E+00 0.9000E+01
      -24  1    3    3    0    0 -.12120066E+03 0.49542165E+02 -.43021593E+03 0.45683366E+03 0.80419002E+02 0.0000E+00 0.9000E+01
#aMCatNLO 1  0  0  2  1 0.65376427D+01 0.00000000D+00  -5  7  0 0.00000000D+00 0.00000000D+00 0.00000000D+00 0.00000000D+00 0.00000000D+00
  <mgrwgt>
 0.2900206323D-02   11    2    0
 0.212073396639157D+03 0.000000000000000D+00 0.000000000000000D+00 0.212073396639157D+03
 0.212073396639157D+03 0.000000000000000D+00 0.000000000000000D+00 -.212073396639157D+03
 0.152433417799122D+03 0.930296441487030D+02 -.874916785809902D+02 -.214341409017863D+02
 0.295858835724566D+02 -.186728807791213D+02 -.197663228083718D+02 0.116593530183676D+02
 0.851996550851059D+02 0.468439000112887D+02 0.577158367262634D+02 0.416354710474218D+02
 0.156927836821630D+03 -.121200663380870D+03 0.495421646630986D+02 -.318606831640031D+02
 0.000000000000000D+00 0.000000000000000D+00 0.000000000000000D+00 -.000000000000000D+00
 0.213535009716440D+03 0.000000000000000D+00 0.000000000000000D+00 0.213535009716440D+03
 0.219537341508245D+03 0.000000000000000D+00 0.000000000000000D+00 -.219537341508245D+03
 0.153356312595622D+03 0.923849013947046D+02 -.897582879552001D+02 -.214341409017863D+02
 0.299611900374400D+02 -.187984328837725D+02 -.202077043913201D+02 0.116593530183676D+02
 0.841565608798289D+02 0.464868206778951D+02 0.564605153451585D+02 0.416354710474218D+02
 0.156723111182746D+03 -.121861981129343D+03 0.472172854787690D+02 -.318606831640031D+02
 0.887517652904904D+01 0.178869194051539D+01 0.628819152259275D+01 -.600233179180483D+01
0.327550971600D-05 0.000000000000D+00 0.000000000000D+00 0.414969505801D-07 0.000000000000D+00  7 -2 2 24 -11 11 -24 21 0 0.69438530D-02 0.15330106D+00 0.41230023D+05 0.41230023D+05 0.41230023D+05 0.11547363D+01  1  2  2  2  7  2        2 0.109381710233D-02 0.100000000000D+01
-.181554646997D-06 0.000000000000D+00 -.125788197710D-07 0.414969505801D-07 0.000000000000D+00  7 -2 2 24 -11 11 -24 21 2 0.69438530D-02 0.15330106D+00 0.41230023D+05 0.41230023D+05 0.41230023D+05 0.11547363D+01  1  2  3  2  7  2        2 -.808423234046D-04 0.100000000000D+01
0.204133501063D-06 0.000000000000D+00 0.000000000000D+00 0.414969505801D-07 0.000000000000D+00  7 -2 2 24 -11 11 -24 21 2 0.69438530D-02 0.15330106D+00 0.41230023D+05 0.41230023D+05 0.41230023D+05 0.11547363D+01  1  2 15  2  7  2        2 0.908961945264D-04 0.100000000000D+01
0.100045786788D-04 0.000000000000D+00 0.000000000000D+00 0.414969505801D-07 0.000000000000D+00  7 -2 2 24 -11 11 -24 21 2 0.69438530D-02 0.15921329D+00 0.42554364D+05 0.42554364D+05 0.42554364D+05 0.11535062D+01  1  2 12  2  7  2        2 0.421930709858D-02 0.100000000000D+01
-.135738069165D-04 0.000000000000D+00 0.000000000000D+00 0.414969505801D-07 0.000000000000D+00  7 -2 2 24 -11 11 -24 21 2 0.69438530D-02 0.15330106D+00 0.41230023D+05 0.41230023D+05 0.41230023D+05 0.11547363D+01  1  2  4  2  7  2        2 -.604412008576D-02 0.100000000000D+01
-.929969091272D-04 0.000000000000D+00 -.106121357952D-04 0.414969505801D-07 0.000000000000D+00  7 -2 2 24 -11 11 -24 21 2 0.69438530D-02 0.15928316D+00 0.41230023D+05 0.41230023D+05 0.41230023D+05 0.11547363D+01  1  2  5  2  7  2        2 -.392660144995D-01 0.100000000000D+01
0.933425123402D-04 0.000000000000D+00 0.106043653261D-04 0.414969505801D-07 0.000000000000D+00  7 -2 2 24 -11 11 -24 21 2 0.69438530D-02 0.15330106D+00 0.41230023D+05 0.41230023D+05 0.41230023D+05 0.11547363D+01  1  2  6  2  7  2        2 0.415633843298D-01 0.100000000000D+01
0.344216348558D-05 0.000000000000D+00 0.000000000000D+00 0.414969505801D-07 0.689454094825D-08  7 -2 2 24 -11 11 -24 21 2 0.69917101D-02 0.15869650D+00 0.42554364D+05 0.42554364D+05 0.42554364D+05 0.11535062D+01  1  2 11  2  7  2        2 0.144345670062D-02 0.100000000000D+01
0.210675536417D-06 0.000000000000D+00 0.000000000000D+00 0.414969505801D-07 0.000000000000D+00  7 -2 21 24 -11 11 -24 -2 2 0.69438530D-02 0.15921329D+00 0.42554364D+05 0.42554364D+05 0.42554364D+05 0.11535062D+01  1  2 12  4  7  2        2 0.642258623165D-04 0.100000000000D+01
-.625214673849D-06 0.000000000000D+00 -.719790261402D-07 0.414969505801D-07 0.000000000000D+00  7 -2 21 24 -11 11 -24 -2 2 0.69438530D-02 0.15928316D+00 0.41230023D+05 0.41230023D+05 0.41230023D+05 0.11547363D+01  1  2  5  4  7  2        2 -.190994093590D-03 0.100000000000D+01
0.232690884836D-07 0.000000000000D+00 0.000000000000D+00 0.414969505801D-07 0.428195384221D-10  7 -2 21 24 -11 11 -24 -2 2 0.69917101D-02 0.15869650D+00 0.42554364D+05 0.42554364D+05 0.42554364D+05 0.11535062D+01  1  2 11  4  7  2        2 0.709003700031D-05 0.100000000000D+01
  </mgrwgt>
  </event>
  <event>
  7     66 0.27011060E-05 0.70571720E+03 0.75467711E-02 0.88725936E-01
       -2 -1    0    0    0  501 0.00000000E+00 0.00000000E+00 0.45832955E+03 0.45832966E+03 0.32000000E+00 0.0000E+00 0.9000E+01
        2 -1    0    0  501    0 0.00000000E+00 0.00000000E+00 -.17056405E+04 0.17056405E+04 0.32000000E+00 0.0000E+00 0.9000E+01
       23  2    1    2    0    0 0.40439831E+03 -.53269930E+03 -.12501859E+04 0.14207516E+04 0.90904971E+02 0.0000E+00 0.0000E+00
       24  1    1    2    0    0 -.52466793E+02 0.37133586E+01 -.33481952E+02 0.10175859E+03 0.80419002E+02 0.0000E+00 0.9000E+01
      -11  1    3    3    0    0 0.25609443E+03 -.26274936E+03 -.67134147E+03 0.76506271E+03 0.51099893E-03 0.0000E+00 0.9000E+01
       11  1    3    3    0    0 0.14830388E+03 -.26994993E+03 -.57884444E+03 0.65568887E+03 0.51099893E-03 0.0000E+00 0.9000E+01
      -24  1    1    2    0    0 -.35193152E+03 0.52898594E+03 0.36356916E+02 0.64146002E+03 0.80419002E+02 0.0000E+00 0.9000E+01
#aMCatNLO 1  0  0  1  1 0.30136741D+03 0.00000000D+00  -5  7  0 0.00000000D+00 0.00000000D+00 0.00000000D+00 0.00000000D+00 0.00000000D+00
  <mgrwgt>
 0.3984286402D-03    4    2    0
 0.884163783412911D+03 0.000000000000000D+00 0.000000000000000D+00 0.884163783412911D+03
 0.884163783412911D+03 0.000000000000000D+00 0.000000000000000D+00 -.884163783412911D+03
 0.100908989659524D+03 -.524667929932880D+02 0.371335868820863D+01 0.308034874646945D+02
 0.462697835726361D+03 0.256094429323688D+03 -.262749362172030D+03 -.281900165188715D+03
 0.394096757494219D+03 0.148303879902340D+03 -.269949933792093D+03 -.245856150460008D+03
 0.810623983945718D+03 -.351931516232740D+03 0.528985937275914D+03 0.496952828184029D+03
 0.000000000000000D+00 0.000000000000000D+00 0.000000000000000D+00 -.000000000000000D+00
 0.104052804736671D+04 0.000000000000000D+00 0.000000000000000D+00 0.104052804736671D+04
 0.105501122143493D+04 0.000000000000000D+00 0.000000000000000D+00 -.105501122143493D+04
 0.110054244563528D+03 -.683879820844747D+02 -.435314351984645D+01 0.308034874646945D+02
 0.450674248550767D+03 0.187163130853870D+03 -.297673542026077D+03 -.281900165188715D+03
 0.398025657577789D+03 0.885231754579125D+02 -.300237946932204D+03 -.245856150460008D+03
 0.835069892665989D+03 -.476130424598167D+03 0.466060312636336D+03 0.496952828184029D+03
 0.301715225443568D+03 0.268832100370860D+03 0.136204319841791D+03 -.144831740682208D+02
0.306503659485D-03 0.000000000000D+00 0.000000000000D+00 0.508151162686D-08 0.000000000000D+00  7 -2 2 24 -11 11 -24 21 0 0.70512249D-01 0.26240624D+00 0.49803676D+06 0.49803676D+06 0.49803676D+06 0.10686312D+01  1  2  2  1  7  1       -2 0.698312352334D-03 0.100000000000D+01
-.159758754187D-04 0.000000000000D+00 -.117705475669D-05 0.508151162686D-08 0.000000000000D+00  7 -2 2 24 -11 11 -24 21 2 0.70512249D-01 0.26240624D+00 0.49803676D+06 0.49803676D+06 0.49803676D+06 0.10686312D+01  1  2  3  1  7  1       -2 -.415656333189D-04 0.100000000000D+01
0.189200179005D-04 0.000000000000D+00 0.000000000000D+00 0.508151162686D-08 0.000000000000D+00  7 -2 2 24 -11 11 -24 21 2 0.70512249D-01 0.26240624D+00 0.49803676D+06 0.49803676D+06 0.49803676D+06 0.10686312D+01  1  2 15  1  7  1       -2 0.492256296340D-04 0.100000000000D+01
-.118205343685D-03 0.000000000000D+00 0.000000000000D+00 0.508151162686D-08 0.000000000000D+00  7 -2 2 24 -11 11 -24 21 2 0.70512249D-01 0.26240624D+00 0.49803676D+06 0.49803676D+06 0.49803676D+06 0.10686312D+01  1  2  4  1  7  1       -2 -.307543708445D-03 0.100000000000D+01
  </mgrwgt>
  </event>
  <event>
  9     66 0.27011060E-05 0.37033923E+03 0.75467711E-02 0.97632415E-01
       21 -1    0    0  502  501 0.00000000E+00 0.00000000E+00 0.65450721E+02 0.65455018E+02 0.75000000E+00 0.0000E+00 0.9000E+01
        2 -1    0    0  501    0 0.00000000E+00 0.00000000E+00 -.38815538E+04 0.38815539E+04 0.32000000E+00 0.0000E+00 0.9000E+01
       25  2    1    2    0    0 -.30870239E+03 -.70254523E+02 -.87664997E+03 0.97905426E+03 0.29966516E+03 0.0000E+00 0.0000E+00
       23  2    1    2    0    0 0.32815685E+03 0.96220712E+02 -.22440397E+04 0.22717846E+04 0.91354970E+02 0.0000E+00 0.0000E+00
       24  1    3    3    0    0 -.32428854E+02 -.53426080E+02 -.46817322E+03 0.47912353E+03 0.80419002E+02 0.0000E+00 0.9000E+01
      -11  1    4    4    0    0 0.25511368E+03 0.38753157E+02 -.15107490E+04 0.15326276E+04 0.51099893E-03 0.0000E+00 0.9000E+01
       11  1    4    4    0    0 0.73043178E+02 0.57467555E+02 -.73329075E+03 0.73915706E+03 0.51099893E-03 0.0000E+00 0.9000E+01
      -24  1    3    3    0    0 -.27627354E+03 -.16828443E+02 -.40847675E+03 0.49993073E+03 0.80419002E+02 0.0000E+00 0.9000E+01
        2  1    1    2  502    0 -.19454460E+02 -.25966189E+02 -.69541344E+03 0.69617001E+03 0.32000000E+00 0.0000E+00 0.9000E+01
#aMCatNLO 2  0  0  1  1 0.32445631D+02 0.00000000D+00  -5  7  0 0.00000000D+00 0.00000000D+00 0.00000000D+00 0.00000000D+00 0.00000000D+00
  <mgrwgt>
 0.3178254701D-04    1    2    0
 0.455026523450629D+03 0.000000000000000D+00 0.000000000000000D+00 0.455026523450629D+03
 0.455026523450629D+03 0.000000000000000D+00 0.000000000000000D+00 -.455026523450629D+03
 0.108288427489725D+03 -.347186152583393D+02 -.564822624880311D+02 -.293860400973559D+02
 0.287650439930504D+03 0.248898352861937D+03 0.304574611841873D+02 -.140942288164484D+03
 0.122624032780290D+03 0.703892904325469D+02 0.539253674550664D+02 -.846997990112153D+02
 0.391490146700740D+03 -.284569028036145D+03 -.279005661512225D+02 0.255028127273055D+03
 0.000000000000000D+00 -.000000000000000D+00 -.000000000000000D+00 -.000000000000000D+00
 0.457962145856042D+03 0.000000000000000D+00 0.000000000000000D+00 0.457962145856042D+03
 0.554759226862807D+03 0.000000000000000D+00 0.000000000000000D+00 -.554759226862807D+03
 0.106003452250204D+03 -.324288538103518D+02 -.534260799847238D+02 -.293860400973559D+02
 0.294022998683296D+03 0.255113676637494D+03 0.387531566995170D+02 -.140942288164484D+03
 0.125745304746989D+03 0.730431778995959D+02 0.574675549827978D+02 -.846997990112153D+02
 0.384859490845220D+03 -.276273541187230D+03 -.168284425523419D+02 0.255028127273055D+03
 0.102090126193141D+03 -.194544595395072D+02 -.259661891452491D+02 -.967970810067648D+02
0.524421165480D-06 0.000000000000D+00 0.000000000000D+00 0.219630746526D-05 0.175376284223D-10  7 21 2 24 -11 11 -24 2 2 0.10069668D-01 0.59716214D+00 0.14957802D+06 0.14957802D+06 0.14957802D+06 0.11076485D+01  1  2  1  3  7  1       -2 0.317825470109D-04 0.100000000000D+01
  </mgrwgt>
  </event>
  <event>
  8     66 0.27011060E-05 0.12211961E+03 0.75467711E-02 0.10125041E+00
       -2 -1    0    0    0  501 0.00000000E+00 0.00000000E+00 0.10819436E+03 0.10819484E+03 0.32000000E+00 0.0000E+00 0.9000E+01
        2 -1    0    0  501    0 0.00000000E+00 0.00000000E+00 -.32070923E+04 0.32070923E+04 0.32000000E+00 0.0000E+00 0.9000E+01
       25  2    1    2    0    0 0.68399568E+02 0.23807571E+03 -.26401157E+03 0.46813246E+03 0.29679513E+03 0.0000E+00 0.0000E+00
       23  2    1    2    0    0 -.68399568E+02 -.23807571E+03 -.28348864E+04 0.28471547E+04 0.91381441E+02 0.0000E+00 0.0000E+00
       24  1    3    3    0    0 0.52334661E+02 0.10271691E+03 -.27567405E+03 0.30943995E+03 0.80419002E+02 0.0000E+00 0.9000E+01
      -11  1    4    4    0    0 -.85274199E+02 -.22873880E+03 -.26728394E+04 0.26839641E+04 0.51099893E-03 0.0000E+00 0.9000E+01
       11  1    4    4    0    0 0.16874631E+02 -.93369110E+01 -.16204700E+03 0.16319057E+03 0.51099893E-03 0.0000E+00 0.9000E+01
      -24  1    3    3    0    0 0.16064907E+02 0.13535880E+03 0.11662485E+02 0.15869252E+03 0.80419002E+02 0.0000E+00 0.9000E+01
#aMCatNLO 1  0  0  1  2 0.17309167D+02 0.00000000D+00  -5  7  0 0.00000000D+00 0.00000000D+00 0.00000000D+00 0.00000000D+00 0.00000000D+00
  <mgrwgt>
 0.8054789734D-03    9    2    0
 0.589058678866930D+03 0.000000000000000D+00 0.000000000000000D+00 0.589058678866930D+03
 0.589058678866930D+03 0.000000000000000D+00 0.000000000000000D+00 -.589058678866930D+03
 0.145653167523010D+03 0.523346608532139D+02 0.102716911885005D+03 0.381830923486121D+02
 0.522236074389776D+03 -.852741986285141D+02 -.228738799839488D+03 -.461668051623998D+03
 0.329818404293624D+02 0.168746310029906D+02 -.933691103083458D+01 -.267557604829897D+02
 0.477246275391712D+03 0.160649067723096D+02 0.135358798985318D+03 0.450240719758376D+03
 0.000000000000000D+00 0.000000000000000D+00 0.000000000000000D+00 0.000000000000000D+00
 0.603413046148006D+03 0.000000000000000D+00 0.000000000000000D+00 0.603413046148006D+03
 0.594363516683542D+03 0.000000000000000D+00 0.000000000000000D+00 -.594363516683542D+03
 0.144017658000951D+03 0.518149881326973D+02 0.100653506273821D+03 0.381830923486121D+02
 0.525857334581726D+03 -.871544899979008D+02 -.236204659810733D+03 -.461668051623998D+03
 0.330578761598111D+02 0.167561550083164D+02 -.980733024383133D+01 -.267557604829897D+02
 0.475311637230450D+03 0.143560071583888D+02 0.128573464844999D+03 0.450240719758376D+03
 0.195320568586111D+02 0.422733969849839D+01 0.167850189357448D+02 0.904952946446415D+01
0.147870634631D-03 0.000000000000D+00 0.000000000000D+00 0.316001405309D-06 0.000000000000D+00  7 -2 2 24 -11 11 -24 21 0 0.16645324D-01 0.49339886D+00 0.79024286D+05 0.79024286D+05 0.79024286D+05 0.11302098D+01  1  2  2  1  7  1       -2 0.717898368042D-03 0.100000000000D+01
-.274884165305D-05 0.000000000000D+00 -.567862172215D-06 0.316001405309D-06 0.000000000000D+00  7 -2 2 24 -11 11 -24 21 2 0.16645324D-01 0.49339886D+00 0.79024286D+05 0.79024286D+05 0.79024286D+05 0.11302098D+01  1  2  3  1  7  1       -2 -.170470361239D-04 0.100000000000D+01
0.878548020007D-05 0.000000000000D+00 0.000000000000D+00 0.316001405309D-06 0.000000000000D+00  7 -2 2 24 -11 11 -24 21 2 0.16645324D-01 0.49339886D+00 0.79024286D+05 0.79024286D+05 0.79024286D+05 0.11302098D+01  1  2 15  1  7  1       -2 0.544834578485D-04 0.100000000000D+01
0.205458934991D-03 0.000000000000D+00 0.000000000000D+00 0.316001405309D-06 0.000000000000D+00  7 -2 2 24 -11 11 -24 21 2 0.17124625D-01 0.49339886D+00 0.84009848D+05 0.84009848D+05 0.84009848D+05 0.11279850D+01  1  2 12  1  7  1       -2 0.120790176476D-02 0.100000000000D+01
-.199530837687D-03 0.000000000000D+00 0.000000000000D+00 0.316001405309D-06 0.000000000000D+00  7 -2 2 24 -11 11 -24 21 2 0.16645324D-01 0.49339886D+00 0.79024286D+05 0.79024286D+05 0.79024286D+05 0.11302098D+01  1  2  4  1  7  1       -2 -.123739735758D-02 0.100000000000D+01
-.323187404805D-02 0.000000000000D+00 -.514761745110D-03 0.316001405309D-06 0.000000000000D+00  7 -2 2 24 -11 11 -24 21 2 0.17267856D-01 0.49339886D+00 0.79024286D+05 0.79024286D+05 0.79024286D+05 0.11302098D+01  1  2  5  1  7  1       -2 -.188883015488D-01 0.100000000000D+01
0.324893124104D-02 0.000000000000D+00 0.514414948309D-03 0.316001405309D-06 0.000000000000D+00  7 -2 2 24 -11 11 -24 21 2 0.16645324D-01 0.49339886D+00 0.79024286D+05 0.79024286D+05 0.79024286D+05 0.11302098D+01  1  2  6  1  7  1       -2 0.201483589164D-01 0.100000000000D+01
0.557069736295D-05 0.000000000000D+00 0.000000000000D+00 0.316001405309D-06 0.000000000000D+00  7 21 2 24 -11 11 -24 2 2 0.17124625D-01 0.49339886D+00 0.84009848D+05 0.84009848D+05 0.84009848D+05 0.11279850D+01  1  2 12  3  7  1       -2 0.434635250068D-03 0.100000000000D+01
-.208255219547D-04 0.000000000000D+00 -.335659101697D-05 0.316001405309D-06 0.000000000000D+00  7 21 2 24 -11 11 -24 2 2 0.17267856D-01 0.49339886D+00 0.79024286D+05 0.79024286D+05 0.79024286D+05 0.11302098D+01  1  2  5  3  7  1       -2 -.161505284122D-02 0.100000000000D+01
  </mgrwgt>
  </event>
  <event>
  8     66 0.27011060E-05 0.61760797E+03 0.75467711E-02 0.89386245E-01
       -2 -1    0    0    0  501 0.00000000E+00 0.00000000E+00 0.24202322E+03 0.24202343E+03 0.32000000E+00 0.0000E+00 0.9000E+01
        2 -1    0    0  501    0 0.00000000E+00 0.00000000E+00 -.16051241E+04 0.16051242E+04 0.32000000E+00 0.0000E+00 0.9000E+01
       25  2    1    2    0    0 0.21308648E+03 -.54318647E+03 -.70715480E+03 0.96448073E+03 0.29949589E+03 0.0000E+00 0.0000E+00
       23  2    1    2    0    0 -.21308648E+03 0.54318647E+03 -.65594611E+03 0.88266687E+03 0.91532017E+02 0.0000E+00 0.0000E+00
       24  1    3    3    0    0 0.53215991E+02 -.42409428E+03 -.40986452E+03 0.59761530E+03 0.80419002E+02 0.0000E+00 0.9000E+01
      -11  1    4    4    0    0 -.19577116E+03 0.45288407E+03 -.50567105E+03 0.70649383E+03 0.51099893E-03 0.0000E+00 0.9000E+01
       11  1    4    4    0    0 -.17315326E+02 0.90302398E+02 -.15027506E+03 0.17617304E+03 0.51099893E-03 0.0000E+00 0.9000E+01
      -24  1    3    3    0    0 0.15987049E+03 -.11909219E+03 -.29729028E+03 0.36686544E+03 0.80419002E+02 0.0000E+00 0.9000E+01
#aMCatNLO 1  0  0  1  1 0.34879818D+03 0.00000000D+00  -5  7  0 0.00000000D+00 0.00000000D+00 0.00000000D+00 0.00000000D+00 0.00000000D+00
  <mgrwgt>
 0.1282377297D-02    3    2    0
 0.623279665169209D+03 0.000000000000000D+00 0.000000000000000D+00 0.623279665169209D+03
 0.623279665169209D+03 0.000000000000000D+00 0.000000000000000D+00 -.623279665169209D+03
 0.437361420411637D+03 0.532159914387268D+02 -.424094281385281D+03 0.461507839761148D+02
 0.493933747473631D+03 -.195771155020639D+03 0.452884070888485D+03 0.232426351927514D+02
 0.967282664044574D+02 -.173153255649101D+02 0.903023978647517D+02 -.300335472774855D+02
 0.218535896048693D+03 0.159870489146822D+03 -.119092187367956D+03 -.393598718913808D+02
 0.000000000000000D+00 0.000000000000000D+00 0.000000000000000D+00 -.000000000000000D+00
 0.710823505997650D+03 0.000000000000000D+00 0.000000000000000D+00 0.710823505997650D+03
 0.112541002933791D+04 0.000000000000000D+00 0.000000000000000D+00 -.112541002933791D+04
 0.524749518641156D+03 -.428581545088433D+02 -.514711691231354D+03 0.461507839761148D+02
 0.465805484810130D+03 -.291608467882726D+03 0.362490042687501D+03 0.232426351927514D+02
 0.866309097612229D+02 -.356251436292499D+02 0.730325249829383D+02 -.300335472774855D+02
 0.217252316873678D+03 0.116353698441008D+03 -.160137349098840D+03 -.393598718913808D+02
 0.541795305249374D+03 0.253738067579811D+03 0.239326472659754D+03 -.414586523340261D+03
0.134957159261D-03 0.000000000000D+00 0.000000000000D+00 0.462791316660D-05 0.000000000000D+00  7 -2 2 24 -11 11 -24 21 0 0.37234361D-01 0.24694219D+00 0.38143960D+06 0.38143960D+06 0.38143960D+06 0.10769183D+01  1  2  2  1  7  1       -2 0.127374143059D-02 0.100000000000D+01
-.749685817507D-05 0.000000000000D+00 -.518271026599D-06 0.462791316660D-05 0.000000000000D+00  7 -2 2 24 -11 11 -24 21 2 0.37234361D-01 0.24694219D+00 0.38143960D+06 0.38143960D+06 0.38143960D+06 0.10769183D+01  1  2  3  1  7  1       -2 -.820597419128D-04 0.100000000000D+01
0.828581831810D-05 0.000000000000D+00 0.000000000000D+00 0.462791316660D-05 0.000000000000D+00  7 -2 2 24 -11 11 -24 21 2 0.37234361D-01 0.24694219D+00 0.38143960D+06 0.38143960D+06 0.38143960D+06 0.10769183D+01  1  2 15  1  7  1       -2 0.906956083258D-04 0.100000000000D+01
  </mgrwgt>
  </event>
  <event>
  7     66 0.27011060E-05 0.23827972E+03 0.75467711E-02 0.97534766E-01
       -2 -1    0    0    0  501 0.00000000E+00 0.00000000E+00 0.46059745E+03 0.46059756E+03 0.32000000E+00 0.0000E+00 0.9000E+01
        2 -1    0    0  501    0 0.00000000E+00 0.00000000E+00 -.62930855E+03 0.62930863E+03 0.32000000E+00 0.0000E+00 0.9000E+01
       25  2    1    2    0    0 0.52572826E+02 -.27840308E+03 0.30152218E+03 0.51142066E+03 0.30060486E+03 0.0000E+00 0.0000E+00
       24  1    3    3    0    0 0.11367552E+03 -.11650595E+03 0.25837464E+03 0.31578542E+03 0.80419002E+02 0.0000E+00 0.9000E+01
      -13  1    1    2    0    0 0.26755135E+02 0.16172020E+03 -.12692642E+03 0.20731519E+03 0.10565837E+00 0.0000E+00 0.9000E+01
       13  1    1    2    0    0 -.79327961E+02 0.11668289E+03 -.34330686E+03 0.37117035E+03 0.10565837E+00 0.0000E+00 0.9000E+01
      -24  1    3    3    0    0 -.61102689E+02 -.16189713E+03 0.43147539E+02 0.19563524E+03 0.80419002E+02 0.0000E+00 0.9000E+01
#aMCatNLO 1  0  0  2  1 0.10214889D+03 0.00000000D+00  -5  7  0 0.00000000D+00 0.00000000D+00 0.00000000D+00 0.00000000D+00 0.00000000D+00
  <mgrwgt>
 0.1408631538D-02    9    2    0
 0.538384639921222D+03 0.000000000000000D+00 0.000000000000000D+00 0.538384639921222D+03
 0.538384639921222D+03 0.000000000000000D+00 0.000000000000000D+00 -.538384639921222D+03
 0.360121042343166D+03 0.113675528754847D+03 -.116506021200654D+03 0.311005097016522D+03
 0.189957173869804D+03 0.267549210753753D+02 0.161719947089713D+03 -.959925039581408D+02
 0.321908494982788D+03 -.793277682371170D+02 0.116683245400067D+03 -.289339255151301D+03
 0.204782568646686D+03 -.611026815931049D+02 -.161897171289126D+03 0.743266620929191D+02
 0.000000000000000D+00 -.000000000000000D+00 0.000000000000000D+00 -.000000000000000D+00
 0.579491550609974D+03 0.000000000000000D+00 0.000000000000000D+00 0.579491550609974D+03
 0.608225390949414D+03 0.000000000000000D+00 0.000000000000000D+00 -.608225390949414D+03
 0.376754040119608D+03 0.131538175695605D+03 -.146457941937242D+03 0.311005097016522D+03
 0.178933630130371D+03 0.356972321242503D+02 0.146725562851694D+03 -.959925039581408D+02
 0.309992163006151D+03 -.640098145921592D+02 0.909982427830352D+02 -.289339255151301D+03
 0.215923826587968D+03 -.509043047139745D+02 -.178997715062881D+03 0.743266620929191D+02
 0.106113281715288D+03 -.523212885137213D+02 0.877318513653938D+02 -.287338403394400D+02
0.873205560670D-04 0.000000000000D+00 0.000000000000D+00 0.126389607680D-08 0.000000000000D+00  7 -2 2 24 -13 13 -24 21 0 0.70861161D-01 0.96816715D-01 0.11471377D+06 0.11471377D+06 0.11471377D+06 0.11168625D+01  1  2  2  2  7  2        2 0.950484900596D-03 0.100000000000D+01
-.358413441931D-05 0.000000000000D+00 -.335333927328D-06 0.126389607680D-08 0.000000000000D+00  7 -2 2 24 -13 13 -24 21 2 0.70861161D-01 0.96816715D-01 0.11471377D+06 0.11471377D+06 0.11471377D+06 0.11168625D+01  1  2  3  2  7  2        2 -.486645178074D-04 0.100000000000D+01
0.538513900513D-05 0.000000000000D+00 0.000000000000D+00 0.126389607680D-08 0.000000000000D+00  7 -2 2 24 -13 13 -24 21 2 0.70861161D-01 0.96816715D-01 0.11471377D+06 0.11471377D+06 0.11471377D+06 0.11168625D+01  1  2 15  2  7  2        2 0.731181262619D-04 0.100000000000D+01
0.101804344338D-03 0.000000000000D+00 0.000000000000D+00 0.126389607680D-08 0.000000000000D+00  7 -2 2 24 -13 13 -24 21 2 0.70861161D-01 0.11268476D+00 0.15201705D+06 0.15201705D+06 0.15201705D+06 0.11070944D+01  1  2 12  2  7  2        2 0.112341611960D-02 0.100000000000D+01
-.100967542323D-03 0.000000000000D+00 0.000000000000D+00 0.126389607680D-08 0.000000000000D+00  7 -2 2 24 -13 13 -24 21 2 0.70861161D-01 0.96816715D-01 0.11471377D+06 0.11471377D+06 0.11471377D+06 0.11168625D+01  1  2  4  2  7  2        2 -.137091308152D-02 0.100000000000D+01
-.222142021227D-03 0.000000000000D+00 -.706184354528D-04 0.126389607680D-08 0.000000000000D+00  7 -2 2 24 -13 13 -24 21 2 0.70861161D-01 0.11565963D+00 0.11471377D+06 0.11471377D+06 0.11471377D+06 0.11168625D+01  1  2  5  2  7  2        2 -.243705062496D-02 0.100000000000D+01
0.232122310572D-03 0.000000000000D+00 0.695163361601D-04 0.126389607680D-08 0.000000000000D+00  7 -2 2 24 -13 13 -24 21 2 0.70861161D-01 0.96816715D-01 0.11471377D+06 0.11471377D+06 0.11471377D+06 0.11168625D+01  1  2  6  2  7  2        2 0.315170107892D-02 0.100000000000D+01
0.234444556411D-05 0.000000000000D+00 0.000000000000D+00 0.126389607680D-08 0.000000000000D+00  7 -2 21 24 -13 13 -24 -2 2 0.70861161D-01 0.11268476D+00 0.15201705D+06 0.15201705D+06 0.15201705D+06 0.11070944D+01  1  2 12  4  7  2        2 0.297230901449D-04 0.100000000000D+01
-.514027571472D-05 0.000000000000D+00 -.184488592733D-05 0.126389607680D-08 0.000000000000D+00  7 -2 21 24 -13 13 -24 -2 2 0.70861161D-01 0.11565963D+00 0.11471377D+06 0.11471377D+06 0.11471377D+06 0.11168625D+01  1  2  5  4  7  2        2 -.631835535285D-04 0.100000000000D+01
  </mgrwgt>
  </event>
  <event>
  8     66 0.27011060E-05 0.22246992E+03 0.75467711E-02 0.10304910E+00
       -2 -1    0    0    0  501 0.00000000E+00 0.00000000E+00 0.58790276E+02 0.58791147E+02 0.32000000E+00 0.0000E+00 0.9000E+01
        2 -1    0    0  501    0 0.00000000E+00 0.00000000E+00 -.21599076E+04 0.21599076E+04 0.32000000E+00 0.0000E+00 0.9000E+01
       25  2    1    2    0    0 0.10102160E+03 -.15763784E+02 -.38641408E+03 0.49846858E+03 0.29782750E+03 0.0000E+00 0.0000E+00
       23  2    1    2    0    0 -.10102160E+03 0.15763784E+02 -.17147032E+04 0.17202302E+04 0.92362609E+02 0.0000E+00 0.0000E+00
       24  1    3    3    0    0 0.17683557E+03 0.27503653E+02 -.24086910E+03 0.31066446E+03 0.80419002E+02 0.0000E+00 0.9000E+01
      -13  1    4    4    0    0 -.11313676E+03 0.40661484E+01 -.16263975E+04 0.16303329E+04 0.10565837E+00 0.0000E+00 0.9000E+01
       13  1    4    4    0    0 0.12115158E+02 0.11697636E+02 -.88305692E+02 0.89897264E+02 0.10565837E+00 0.0000E+00 0.9000E+01
      -24  1    3    3    0    0 -.75813966E+02 -.43267437E+02 -.14554498E+03 0.18780412E+03 0.80419002E+02 0.0000E+00 0.9000E+01
#aMCatNLO 1  0  0  1  1 0.70768613D+02 0.00000000D+00  -5  7  0 0.00000000D+00 0.00000000D+00 0.00000000D+00 0.00000000D+00 0.00000000D+00
  <mgrwgt>
 0.1083507257D-02    4    2    0
 0.356346118531463D+03 0.000000000000000D+00 0.000000000000000D+00 0.356346118531463D+03
 0.356346118531463D+03 0.000000000000000D+00 0.000000000000000D+00 -.356346118531463D+03
 0.257020642854179D+03 0.176835565441803D+03 0.275036528561440D+02 0.166027488005003D+03
 0.280578110465367D+03 -.113136921849223D+03 0.406613854179025D+01 -.256724715413529D+03
 0.195232757349934D+02 0.121153215666615D+02 0.116976456495784D+02 -.987635383215218D+01
 0.155570208008387D+03 -.758139651592419D+02 -.432674370475127D+02 0.100573581240678D+03
 0.000000000000000D+00 -.000000000000000D+00 0.000000000000000D+00 -.000000000000000D+00
 0.366068358502306D+03 0.000000000000000D+00 0.000000000000000D+00 0.366068358502306D+03
 0.515198552425775D+03 0.000000000000000D+00 0.000000000000000D+00 -.515198552425775D+03
 0.273985457634367D+03 0.201688744554117D+03 0.189034014842701D+02 0.166027488005003D+03
 0.271209383778525D+03 -.873110915738995D+02 -.487069127991585D+01 -.256724715413529D+03
 0.203763225448020D+02 0.139827800791810D+02 0.110514260025210D+02 -.987635383215218D+01
 0.150626030486751D+03 -.614827739510146D+02 -.482266354781101D+02 0.100573581240678D+03
 0.165069716483635D+03 -.668776591083838D+02 0.231424992712348D+02 -.149130193923469D+03
0.211185912552D-04 0.000000000000D+00 0.000000000000D+00 0.113515604722D-06 0.000000000000D+00  7 -2 2 24 -13 13 -24 21 0 0.90447267D-02 0.33229354D+00 0.49492864D+05 0.49492864D+05 0.49492864D+05 0.11476850D+01  1  2  2  1  7  1       -2 0.111246757706D-02 0.100000000000D+01
-.856648652316D-06 0.000000000000D+00 -.811009510729D-07 0.113515604722D-06 0.000000000000D+00  7 -2 2 24 -13 13 -24 21 2 0.90447267D-02 0.33229354D+00 0.49492864D+05 0.49492864D+05 0.49492864D+05 0.11476850D+01  1  2  3  1  7  1       -2 -.594388753834D-04 0.100000000000D+01
0.130520066172D-05 0.000000000000D+00 0.000000000000D+00 0.113515604722D-06 0.000000000000D+00  7 -2 2 24 -13 13 -24 21 2 0.90447267D-02 0.33229354D+00 0.49492864D+05 0.49492864D+05 0.49492864D+05 0.11476850D+01  1  2 15  1  7  1       -2 0.905618181650D-04 0.100000000000D+01
-.865935736480D-06 0.000000000000D+00 0.000000000000D+00 0.113515604722D-06 0.000000000000D+00  7 -2 2 24 -13 13 -24 21 2 0.90447267D-02 0.33229354D+00 0.49492864D+05 0.49492864D+05 0.49492864D+05 0.11476850D+01  1  2  4  1  7  1       -2 -.600832630641D-04 0.100000000000D+01
  </mgrwgt>
  </event>
  <event>
  8     66 0.27011060E-05 0.27308901E+03 0.75467711E-02 0.93845380E-01
       -2 -1    0    0    0  501 0.00000000E+00 0.00000000E+00 0.36108150E+03 0.36108164E+03 0.32000000E+00 0.0000E+00 0.9000E+01
        2 -1    0    0  501    0 0.00000000E+00 0.00000000E+00 -.66798080E+03 0.66798087E+03 0.32000000E+00 0.0000E+00 0.9000E+01
       25  2    1    2    0    0 -.41454478E+03 -.13582917E+03 -.22580127E+03 0.57564448E+03 0.30013899E+03 0.0000E+00 0.0000E+00
       23  2    1    2    0    0 0.41454478E+03 0.13582917E+03 -.81098025E+02 0.45341803E+03 0.93349267E+02 0.0000E+00 0.0000E+00
       24  1    3    3    0    0 -.22978023E+03 -.17341285E+03 -.44891564E+02 0.30224731E+03 0.80419002E+02 0.0000E+00 0.9000E+01
      -11  1    4    4    0    0 0.59786655E+02 -.11829175E+02 -.13024957E+01 0.60959577E+02 0.51099893E-03 0.0000E+00 0.9000E+01
       11  1    4    4    0    0 0.35475813E+03 0.14765834E+03 -.79795529E+02 0.39245846E+03 0.51099893E-03 0.0000E+00 0.9000E+01
      -24  1    3    3    0    0 -.18476455E+03 0.37583680E+02 -.18090971E+03 0.27339717E+03 0.80419002E+02 0.0000E+00 0.9000E+01
#aMCatNLO 1  0  0  2  1 0.11699389D+03 0.00000000D+00  -5  7  0 0.00000000D+00 0.00000000D+00 0.00000000D+00 0.00000000D+00 0.00000000D+00
  <mgrwgt>
 0.7866247015D-03    9    2    0
 0.491116706794942D+03 0.000000000000000D+00 0.000000000000000D+00 0.491116706794942D+03
 0.491116706794942D+03 0.000000000000000D+00 0.000000000000000D+00 -.491116706794942D+03
 0.302630907195285D+03 -.229780229897828D+03 -.173412845452336D+03 0.474054956275804D+02
 0.634589286777976D+02 0.597866548257708D+02 -.118291754741202D+02 0.176822549829036D+02
 0.386237212117872D+03 0.354758127487160D+03 0.147658340789150D+03 0.390239593299503D+02
 0.229906365598929D+03 -.184764552415103D+03 0.375836801373065D+02 -.104111709940434D+03
 0.000000000000000D+00 -.000000000000000D+00 -.000000000000000D+00 -.000000000000000D+00
 0.524023952710150D+03 0.000000000000000D+00 0.000000000000000D+00 0.524023952710150D+03
 0.610837857661202D+03 0.000000000000000D+00 0.000000000000000D+00 -.610837857661202D+03
 0.271603019824672D+03 -.208676204168601D+03 -.146655873464374D+03 0.474054956275804D+02
 0.672112605947937D+02 0.645889956605643D+02 -.574047463372746D+01 0.176822549829036D+02
 0.428944600838411D+03 0.384717377794621D+03 0.185642507011375D+03 0.390239593299503D+02
 0.221417568597399D+03 -.168177667747865D+03 0.586135449651440D+02 -.104111709940434D+03
 0.145685360516077D+03 -.724525015387204D+02 -.918597038784180D+02 -.868139049510529D+02
0.341079111758D-04 0.000000000000D+00 0.000000000000D+00 0.859731265499D-06 0.000000000000D+00  7 -2 2 24 -11 11 -24 21 0 0.55551017D-01 0.10276629D+00 0.22518987D+06 0.22518987D+06 0.22518987D+06 0.10938904D+01  1  2  2  2  7  2        2 0.565468118291D-03 0.100000000000D+01
-.189216834664D-05 0.000000000000D+00 -.130983359735D-06 0.859731265499D-06 0.000000000000D+00  7 -2 2 24 -11 11 -24 21 2 0.55551017D-01 0.10276629D+00 0.22518987D+06 0.22518987D+06 0.22518987D+06 0.10938904D+01  1  2  3  2  7  2        2 -.375370712487D-04 0.100000000000D+01
0.206065509466D-05 0.000000000000D+00 0.000000000000D+00 0.859731265499D-06 0.000000000000D+00  7 -2 2 24 -11 11 -24 21 2 0.55551017D-01 0.10276629D+00 0.22518987D+06 0.22518987D+06 0.22518987D+06 0.10938904D+01  1  2 15  2  7  2        2 0.408795323337D-04 0.100000000000D+01
0.456306839453D-04 0.000000000000D+00 0.000000000000D+00 0.859731265499D-06 0.000000000000D+00  7 -2 2 24 -11 11 -24 21 2 0.55551017D-01 0.13064218D+00 0.28721606D+06 0.28721606D+06 0.28721606D+06 0.10859539D+01  1  2 12  2  7  2        2 0.655985868087D-03 0.100000000000D+01
-.470791405918D-04 0.000000000000D+00 0.000000000000D+00 0.859731265499D-06 0.000000000000D+00  7 -2 2 24 -11 11 -24 21 2 0.55551017D-01 0.10276629D+00 0.22518987D+06 0.22518987D+06 0.22518987D+06 0.10938904D+01  1  2  4  2  7  2        2 -.933961852738D-03 0.100000000000D+01
-.813226322847D-04 0.000000000000D+00 -.198758905246D-04 0.859731265499D-06 0.000000000000D+00  7 -2 2 24 -11 11 -24 21 2 0.55551017D-01 0.13321907D+00 0.22518987D+06 0.22518987D+06 0.22518987D+06 0.10938904D+01  1  2  5  2  7  2        2 -.116423955265D-02 0.100000000000D+01
0.842778655829D-04 0.000000000000D+00 0.192247607628D-04 0.859731265499D-06 0.000000000000D+00  7 -2 2 24 -11 11 -24 21 2 0.55551017D-01 0.10276629D+00 0.22518987D+06 0.22518987D+06 0.22518987D+06 0.10938904D+01  1  2  6  2  7  2        2 0.167191479061D-02 0.100000000000D+01
0.149835600434D-05 0.000000000000D+00 0.000000000000D+00 0.859731265499D-06 0.000000000000D+00  7 -2 21 24 -11 11 -24 -2 2 0.55551017D-01 0.13064218D+00 0.28721606D+06 0.28721606D+06 0.28721606D+06 0.10859539D+01  1  2 12  4  7  2        2 0.193581524125D-04 0.100000000000D+01
-.247501851397D-05 0.000000000000D+00 -.691449864601D-06 0.859731265499D-06 0.000000000000D+00  7 -2 21 24 -11 11 -24 -2 2 0.55551017D-01 0.13321907D+00 0.22518987D+06 0.22518987D+06 0.22518987D+06 0.10938904D+01  1  2  5  4  7  2        2 -.312432835749D-04 0.100000000000D+01
  </mgrwgt>
  </event>
  <event>
  8     66 0.27011060E-05 0.15166692E+03 0.75467711E-02 0.10053926E+00
       -2 -1    0    0    0  501 0.00000000E+00 0.00000000E+00 0.10439463E+03 0.10439512E+03 0.32000000E+00 0.0000E+00 0.9000E+01
        2 -1    0    0  501    0 0.00000000E+00 0.00000000E+00 -.26128387E+04 0.26128387E+04 0.32000000E+00 0.0000E+00 0.9000E+01
       25  2    1    2    0    0 -.23665284E+03 -.78634510E+02 -.23979648E+04 0.24295945E+04 0.30084263E+03 0.0000E+00 0.0000E+00
       23  2    1    2    0    0 0.23665284E+03 0.78634510E+02 -.11047923E+03 0.28763931E+03 0.91338712E+02 0.0000E+00 0.0000E+00
       24  1    3    3    0    0 -.24989767E+02 -.93837439E+02 -.41620540E+03 0.43488402E+03 0.80419002E+02 0.0000E+00 0.9000E+01
      -11  1    4    4    0    0 0.21805044E+03 0.50321918E+02 -.11792784E+03 0.25295309E+03 0.51099893E-03 0.0000E+00 0.9000E+01
       11  1    4    4    0    0 0.18602393E+02 0.28312592E+02 0.74486082E+01 0.34686217E+02 0.51099893E-03 0.0000E+00 0.9000E+01
      -24  1    3    3    0    0 -.21166307E+03 0.15202929E+02 -.19817594E+04 0.19947105E+04 0.80419002E+02 0.0000E+00 0.9000E+01
#aMCatNLO 1  0  0  2  1 0.17032642D+01 0.00000000D+00  -5  7  0 0.00000000D+00 0.00000000D+00 0.00000000D+00 0.00000000D+00 0.00000000D+00
  <mgrwgt>
 0.1014793607D-02   11    2    0
 0.522271026860484D+03 0.000000000000000D+00 0.000000000000000D+00 0.522271026860484D+03
 0.522271026860484D+03 0.000000000000000D+00 0.000000000000000D+00 -.522271026860484D+03
 0.131783674187000D+03 -.249897674308611D+02 -.938374390190940D+02 -.383375454345217D+02
 0.374821968157034D+03 0.218050444121545D+03 0.503219180051810D+02 0.300687904977552D+03
 0.108119129964919D+03 0.186023928420416D+02 0.283125919116474D+02 0.102674701772958D+03
 0.429817281412015D+03 -.211663069532726D+03 0.152029291022657D+02 -.365025061315988D+03
 0.000000000000000D+00 0.000000000000000D+00 -.000000000000000D+00 -.000000000000000D+00
 0.522342014781456D+03 0.000000000000000D+00 0.000000000000000D+00 0.522342014781456D+03
 0.532589552476635D+03 0.000000000000000D+00 0.000000000000000D+00 -.532589552476635D+03
 0.131733696455819D+03 -.251691809798920D+02 -.937192390408751D+02 -.383375454345217D+02
 0.374570694257103D+03 0.217540226533788D+03 0.506580559840881D+02 0.300687904977552D+03
 0.108119342214474D+03 0.184551687268492D+02 0.284095850724373D+02 0.102674701772958D+03
 0.430119709491577D+03 -.212248550281508D+03 0.155886514299685D+02 -.365025061315988D+03
 0.103881248391194D+02 0.142233600076238D+01 -.937053445618914D+00 -.102475376951792D+02
0.292443594113D-04 0.000000000000D+00 0.000000000000D+00 0.250304419097D-05 0.000000000000D+00  7 -2 2 24 -11 11 -24 21 0 0.16060752D-01 0.40197522D+00 0.93231910D+05 0.93231910D+05 0.93231910D+05 0.11242282D+01  1  2  2  2  7  2        2 0.344080054584D-03 0.100000000000D+01
-.105554825872D-05 0.000000000000D+00 -.112306040356D-06 0.250304419097D-05 0.000000000000D+00  7 -2 2 24 -11 11 -24 21 2 0.16060752D-01 0.40197522D+00 0.93231910D+05 0.93231910D+05 0.93231910D+05 0.11242282D+01  1  2  3  2  7  2        2 -.156965582910D-04 0.100000000000D+01
0.168571925560D-05 0.000000000000D+00 0.000000000000D+00 0.250304419097D-05 0.000000000000D+00  7 -2 2 24 -11 11 -24 21 2 0.16060752D-01 0.40197522D+00 0.93231910D+05 0.93231910D+05 0.93231910D+05 0.11242282D+01  1  2 15  2  7  2        2 0.250675327626D-04 0.100000000000D+01
0.230843563655D-06 0.000000000000D+00 0.000000000000D+00 0.250304419097D-05 0.000000000000D+00  7 -2 2 24 -11 11 -24 21 2 0.16060752D-01 0.40994410D+00 0.93783206D+05 0.93783206D+05 0.93783206D+05 0.11240167D+01  1  2 12  2  7  2        2 0.320084709390D-05 0.100000000000D+01
-.943206811569D-02 0.000000000000D+00 0.000000000000D+00 0.250304419097D-05 0.000000000000D+00  7 -2 2 24 -11 11 -24 21 2 0.16060752D-01 0.40197522D+00 0.93231910D+05 0.93231910D+05 0.93231910D+05 0.11242282D+01  1  2  4  2  7  2        2 -.140259818308D+00 0.100000000000D+01
-.101632368908D-01 0.000000000000D+00 -.129391356961D-03 0.250304419097D-05 0.000000000000D+00  7 -2 2 24 -11 11 -24 21 2 0.16060752D-01 0.40993339D+00 0.93231910D+05 0.93231910D+05 0.93231910D+05 0.11242282D+01  1  2  5  2  7  2        2 -.141027110170D+00 0.100000000000D+01
0.101638451909D-01 0.000000000000D+00 0.129366496671D-03 0.250304419097D-05 0.000000000000D+00  7 -2 2 24 -11 11 -24 21 2 0.16060752D-01 0.40197522D+00 0.93231910D+05 0.93231910D+05 0.93231910D+05 0.11242282D+01  1  2  6  2  7  2        2 0.151141728654D+00 0.100000000000D+01
0.943358847036D-02 0.000000000000D+00 0.000000000000D+00 0.250304419097D-05 0.581472805784D-05  7 -2 2 24 -11 11 -24 21 2 0.16062935D-01 0.40991706D+00 0.93783206D+05 0.93783206D+05 0.93783206D+05 0.11240167D+01  1  2 11  2  7  2        2 0.130807204953D+00 0.100000000000D+01
0.148746391783D-07 0.000000000000D+00 0.000000000000D+00 0.250304419097D-05 0.000000000000D+00  7 -2 21 24 -11 11 -24 -2 2 0.16060752D-01 0.40994410D+00 0.93783206D+05 0.93783206D+05 0.93783206D+05 0.11240167D+01  1  2 12  4  7  2        2 0.216235350229D-07 0.100000000000D+01
-.362786924847D-04 0.000000000000D+00 -.461933468209D-06 0.250304419097D-05 0.000000000000D+00  7 -2 21 24 -11 11 -24 -2 2 0.16060752D-01 0.40993339D+00 0.93231910D+05 0.93231910D+05 0.93231910D+05 0.11242282D+01  1  2  5  4  7  2        2 -.528023900322D-04 0.100000000000D+01
0.336428359435D-04 0.000000000000D+00 0.000000000000D+00 0.250304419097D-05 0.207249606173D-07  7 -2 21 24 -11 11 -24 -2 2 0.16062935D-01 0.40991706D+00 0.93783206D+05 0.93783206D+05 0.93783206D+05 0.11240167D+01  1  2 11  4  7  2        2 0.489173686651D-04 0.100000000000D+01
  </mgrwgt>
  </event>
  <event>
  7     66 0.27011060E-05 0.21693456E+03 0.75467711E-02 0.91522648E-01
       -2 -1    0    0    0  501 0.00000000E+00 0.00000000E+00 0.24339471E+03 0.24339492E+03 0.32000000E+00 0.0000E+00 0.9000E+01
        2 -1    0    0  501    0 0.00000000E+00 0.00000000E+00 -.75217883E+03 0.75217890E+03 0.32000000E+00 0.0000E+00 0.9000E+01
       23  2    1    2    0    0 -.12950053E+03 0.79878648E+02 -.64143581E+03 0.66546352E+03 0.90833957E+02 0.0000E+00 0.0000E+00
       24  1    1    2    0    0 0.12103266E+03 -.10649364E+03 0.95131000E+01 0.18040930E+03 0.80419002E+02 0.0000E+00 0.9000E+01
      -11  1    3    3    0    0 -.13590483E+03 0.85071431E+02 -.52995490E+03 0.55367813E+03 0.51099893E-03 0.0000E+00 0.9000E+01
       11  1    3    3    0    0 0.64043030E+01 -.51927831E+01 -.11148091E+03 0.11178539E+03 0.51099893E-03 0.0000E+00 0.9000E+01
      -24  1    1    2    0    0 0.84678674E+01 0.26614988E+02 0.12313859E+03 0.14970100E+03 0.80419002E+02 0.0000E+00 0.9000E+01
#aMCatNLO 1  0  0  2  1 0.64337843D+03 0.00000000D+00  -5  7  0 0.00000000D+00 0.00000000D+00 0.00000000D+00 0.00000000D+00 0.00000000D+00
  <mgrwgt>
 0.2057373132D-02    5    2    0
 0.427874380609078D+03 0.000000000000000D+00 0.000000000000000D+00 0.427874380609078D+03
 0.427874380609078D+03 0.000000000000000D+00 0.000000000000000D+00 -.427874380609078D+03
 0.215543268477837D+03 0.121032657824616D+03 -.106493635675532D+03 0.118329564911963D+03
 0.329062475434839D+03 -.135904828190336D+03 0.850714309706200D+02 -.287358386072984D+03
 0.637697589669005D+02 0.640430301007281D+01 -.519278314998610D+01 -.632345005895436D+02
 0.247373258338580D+03 0.846786735564643D+01 0.266149878548986D+02 0.232263321750564D+03
 0.000000000000000D+00 -.000000000000000D+00 0.000000000000000D+00 -.000000000000000D+00
 0.760411099625787D+03 0.000000000000000D+00 0.000000000000000D+00 0.760411099625787D+03
 0.995042442553198D+03 0.000000000000000D+00 0.000000000000000D+00 -.995042442553198D+03
 0.383473336586401D+03 0.307527556547974D+03 -.178911989396223D+03 0.118329564911963D+03
 0.293289502388576D+03 0.578551913036360D+02 0.983193796198424D+01 -.287358386072984D+03
 0.856839452884578D+02 0.529344879887426D+02 -.232610489177962D+02 -.632345005895436D+02
 0.308180014929859D+03 0.181431105031699D+03 -.405488488636626D+02 0.232263321750564D+03
 0.684826742985691D+03 -.599748340872052D+03 0.232889949215697D+03 -.234631342927411D+03
0.573217717499D-04 0.000000000000D+00 0.000000000000D+00 0.573512501951D-09 0.000000000000D+00  7 -2 2 24 -11 11 -24 21 0 0.37445361D-01 0.11571984D+00 0.47060605D+05 0.47060605D+05 0.47060605D+05 0.11496170D+01  1  2  2  2  7  2        2 0.181091855285D-02 0.100000000000D+01
-.139818982246D-05 0.000000000000D+00 -.220130696689D-06 0.573512501951D-09 0.000000000000D+00  7 -2 2 24 -11 11 -24 21 2 0.37445361D-01 0.11571984D+00 0.47060605D+05 0.47060605D+05 0.47060605D+05 0.11496170D+01  1  2  3  2  7  2        2 -.583783522886D-04 0.100000000000D+01
0.357230932514D-05 0.000000000000D+00 0.000000000000D+00 0.573512501951D-09 0.000000000000D+00  7 -2 2 24 -11 11 -24 21 2 0.37445361D-01 0.11571984D+00 0.47060605D+05 0.47060605D+05 0.47060605D+05 0.11496170D+01  1  2 15  2  7  2        2 0.149153948139D-03 0.100000000000D+01
0.294911529976D-04 0.000000000000D+00 -.185272326219D-04 0.573512501951D-09 0.000000000000D+00  7 -2 2 24 -11 11 -24 21 2 0.37445361D-01 0.36662204D+00 0.47060605D+05 0.47060605D+05 0.47060605D+05 0.11496170D+01  1  2  5  2  7  2        2 0.152075715002D-03 0.100000000000D+01
0.473129178250D-05 0.000000000000D+00 -.245592017783D-05 0.573512501951D-09 0.000000000000D+00  7 -2 21 24 -11 11 -24 -2 2 0.37445361D-01 0.36662204D+00 0.47060605D+05 0.47060605D+05 0.47060605D+05 0.11496170D+01  1  2  5  4  7  2        2 0.360326853832D-05 0.100000000000D+01
  </mgrwgt>
  </event>
  <event>
  8     66 0.27011060E-05 0.29743606E+03 0.75467711E-02 0.94503913E-01
       -2 -1    0    0    0  501 0.00000000E+00 0.00000000E+00 0.79313938E+02 0.79314583E+02 0.32000000E+00 0.0000E+00 0.9000E+01
        2 -1    0    0  501    0 0.00000000E+00 0.00000000E+00 -.25826365E+04 0.25826365E+04 0.32000000E+00 0.0000E+00 0.9000E+01
       25  2    1    2    0    0 0.92887369E+02 0.19904851E+03 -.40538234E+03 0.54999281E+03 0.29984809E+03 0.0000E+00 0.0000E+00
       23  2    1    2    0    0 -.92887369E+02 -.19904851E+03 -.20979402E+04 0.21119583E+04 0.10376071E+03 0.0000E+00 0.0000E+00
       24  1    3    3    0    0 0.44256376E+02 -.50424305E+02 -.10336684E+03 0.14715012E+03 0.80419002E+02 0.0000E+00 0.9000E+01
      -13  1    4    4    0    0 0.42518347E+01 -.12928754E+02 -.25443755E+02 0.28855270E+02 0.10565837E+00 0.0000E+00 0.9000E+01
       13  1    4    4    0    0 -.97139204E+02 -.18611975E+03 -.20724964E+04 0.20831030E+04 0.10565837E+00 0.0000E+00 0.9000E+01
      -24  1    3    3    0    0 0.48630993E+02 0.24947281E+03 -.30201550E+03 0.40284269E+03 0.80419002E+02 0.0000E+00 0.9000E+01
#aMCatNLO 1  0  0  2  1 0.32305656D+03 0.00000000D+00  -5  7  0 0.00000000D+00 0.00000000D+00 0.00000000D+00 0.00000000D+00 0.00000000D+00
  <mgrwgt>
 0.1058450218D-02    5    2    0
 0.452592480843307D+03 0.000000000000000D+00 0.000000000000000D+00 0.452592480843307D+03
 0.452592480843307D+03 0.000000000000000D+00 0.000000000000000D+00 -.452592480843307D+03
 0.146871499132543D+03 0.442563768674817D+02 -.504243033969284D+02 0.102969820999009D+03
 0.144909928662575D+02 0.425193561840466D+01 -.129285712800591D+02 0.497613930706298D+01
 0.394385226533365D+03 -.971393065364531D+02 -.186119939543529D+03 -.333860794550219D+03
 0.349437243154449D+03 0.486309940505668D+02 0.249472814220517D+03 0.225914834244147D+03
 0.000000000000000D+00 0.000000000000000D+00 0.000000000000000D+00 -.000000000000000D+00
 0.522140531589021D+03 0.000000000000000D+00 0.000000000000000D+00 0.522140531589021D+03
 0.110794034252780D+04 0.000000000000000D+00 0.000000000000000D+00 -.110794034252780D+04
 0.141372017693167D+03 -.553007943096769D+01 -.537165302042659D+02 0.102969820999009D+03
 0.141764954190144D+02 -.699616001623633D+00 -.132560023163966D+02 0.497613930706298D+01
 0.457725902113928D+03 -.244319003533672D+03 -.195852484897739D+03 -.333860794550219D+03
 0.347831902344424D+03 -.718038390479598D+02 0.241508825305794D+03 0.225914834244147D+03
 0.668974556546286D+03 0.322352538014223D+03 0.213161921126076D+02 -.585799810938777D+03
0.547014660515D-04 0.000000000000D+00 0.000000000000D+00 0.959240967850D-07 0.000000000000D+00  7 -2 2 24 -13 13 -24 21 0 0.12202195D-01 0.39732874D+00 0.88468208D+05 0.88468208D+05 0.88468208D+05 0.11261151D+01  1  2  2  2  7  2        2 0.103845437262D-02 0.100000000000D+01
-.238782484720D-05 0.000000000000D+00 -.210068032864D-06 0.959240967850D-07 0.000000000000D+00  7 -2 2 24 -13 13 -24 21 2 0.12202195D-01 0.39732874D+00 0.88468208D+05 0.88468208D+05 0.88468208D+05 0.11261151D+01  1  2  3  2  7  2        2 -.574852577187D-04 0.100000000000D+01
0.321846516374D-05 0.000000000000D+00 0.000000000000D+00 0.959240967850D-07 0.000000000000D+00  7 -2 2 24 -13 13 -24 21 2 0.12202195D-01 0.39732874D+00 0.88468208D+05 0.88468208D+05 0.88468208D+05 0.11261151D+01  1  2 15  2  7  2        2 0.774823578928D-04 0.100000000000D+01
-.271304079935D-04 0.000000000000D+00 -.114314365722D-04 0.959240967850D-07 0.000000000000D+00  7 -2 2 24 -13 13 -24 21 2 0.12202195D-01 0.97395014D+00 0.88468208D+05 0.88468208D+05 0.88468208D+05 0.11261151D+01  1  2  5  2  7  2        2 -.125440855381D-08 0.100000000000D+01
-.195643328535D-05 0.000000000000D+00 -.112479101887D-05 0.959240967850D-07 0.000000000000D+00  7 -2 21 24 -13 13 -24 -2 2 0.12202195D-01 0.97395014D+00 0.88468208D+05 0.88468208D+05 0.88468208D+05 0.11261151D+01  1  2  5  4  7  2        2 -.515550557697D-12 0.100000000000D+01
  </mgrwgt>
  </event>
  <event>
  8     66 0.27011060E-05 0.48638494E+03 0.75467711E-02 0.83756384E-01
       -2 -1    0    0    0  501 0.00000000E+00 0.00000000E+00 0.44257487E+03 0.44257498E+03 0.32000000E+00 0.0000E+00 0.9000E+01
        2 -1    0    0  501    0 0.00000000E+00 0.00000000E+00 -.13580543E+04 0.13580543E+04 0.32000000E+00 0.0000E+00 0.9000E+01
       25  2    1    2    0    0 -.13281075E+03 0.42107233E+03 0.22114826E+03 0.57787581E+03 0.30015545E+03 0.0000E+00 0.0000E+00
       23  2    1    2    0    0 0.13281075E+03 -.42107233E+03 -.11366276E+04 0.12227535E+04 0.90901252E+02 0.0000E+00 0.0000E+00
       24  1    3    3    0    0 0.11224176E+02 0.54772050E+01 0.58202868E+01 0.81590892E+02 0.80419002E+02 0.0000E+00 0.9000E+01
      -11  1    4    4    0    0 0.11172037E+03 -.39614018E+03 -.10952970E+04 0.11700786E+04 0.51099893E-03 0.0000E+00 0.9000E+01
       11  1    4    4    0    0 0.21090379E+02 -.24932154E+02 -.41330644E+02 0.52674838E+02 0.51099893E-03 0.0000E+00 0.9000E+01
      -24  1    3    3    0    0 -.14403492E+03 0.41559512E+03 0.21532797E+03 0.49628492E+03 0.80419002E+02 0.0000E+00 0.9000E+01
#aMCatNLO 1  0  0  2  1 0.13388823D+04 0.00000000D+00  -5  7  0 0.00000000D+00 0.00000000D+00 0.00000000D+00 0.00000000D+00 0.00000000D+00
  <mgrwgt>
 0.1280582315D-02    3    2    0
 0.775268222801391D+03 0.000000000000000D+00 0.000000000000000D+00 0.775268222801391D+03
 0.775268222801391D+03 0.000000000000000D+00 0.000000000000000D+00 -.775268222801391D+03
 0.981875019873726D+02 0.112241762228407D+02 0.547720498476973D+01 0.549325739959743D+02
 0.712112254218015D+03 0.111720366355144D+03 -.396140175279772D+03 -.581115637268734D+03
 0.367682438026951D+02 0.210903794895024D+02 -.249321536176153D+02 -.168963712468337D+02
 0.703468445594699D+03 -.144034922067487D+03 0.415595123912618D+03 0.543079434519593D+03
 0.000000000000000D+00 -.000000000000000D+00 0.000000000000000D+00 0.000000000000000D+00
 0.302590155067060D+04 0.000000000000000D+00 0.000000000000000D+00 0.302590155067060D+04
 0.124819737613522D+04 0.000000000000000D+00 0.000000000000000D+00 -.124819737613522D+04
 0.137700916407628D+03 0.954425266643126D+02 -.191693203645508D+02 0.549325739959743D+02
 0.112952054449083D+04 0.769231563731748D+03 -.588561023095672D+03 -.581115637268734D+03
 0.721041574416295D+02 0.599606814050686D+02 -.363075590545044D+02 -.168963712468337D+02
 0.709276095494352D+03 0.360351921743052D+03 0.267986163790803D+03 0.543079434519593D+03
 0.222549721297138D+04 -.128498669354418D+04 0.376051738723924D+03 0.177770417453538D+04
0.315429816381D-03 0.000000000000D+00 0.000000000000D+00 0.193070679219D-04 0.000000000000D+00  7 -2 2 24 -11 11 -24 21 0 0.68088453D-01 0.20893144D+00 0.23657031D+06 0.23657031D+06 0.23657031D+06 0.10922677D+01  1  2  2  2  7  2        2 0.125081842731D-02 0.100000000000D+01
-.128929034352D-04 0.000000000000D+00 -.121133354948D-05 0.193070679219D-04 0.000000000000D+00  7 -2 2 24 -11 11 -24 21 2 0.68088453D-01 0.20893144D+00 0.23657031D+06 0.23657031D+06 0.23657031D+06 0.10922677D+01  1  2  3  2  7  2        2 -.609958707118D-04 0.100000000000D+01
0.191841969549D-04 0.000000000000D+00 0.000000000000D+00 0.193070679219D-04 0.000000000000D+00  7 -2 2 24 -11 11 -24 21 2 0.68088453D-01 0.20893144D+00 0.23657031D+06 0.23657031D+06 0.23657031D+06 0.10922677D+01  1  2 15  2  7  2        2 0.907597581144D-04 0.100000000000D+01
  </mgrwgt>
  </event>
  <event>
  8     66 0.27011060E-05 0.22917646E+03 0.75467711E-02 0.95194910E-01
       -2 -1    0    0    0  501 0.00000000E+00 0.00000000E+00 0.12425938E+03 0.12425979E+03 0.32000000E+00 0.0000E+00 0.9000E+01
        2 -1    0    0  501    0 0.00000000E+00 0.00000000E+00 -.16098507E+04 0.16098507E+04 0.32000000E+00 0.0000E+00 0.9000E+01
       25  2    1    2    0    0 -.19566445E+03 0.25662781E+03 -.38960099E+03 0.58775131E+03 0.29919937E+03 0.0000E+00 0.0000E+00
       23  2    1    2    0    0 0.19566445E+03 -.25662781E+03 -.10959903E+04 0.11463592E+04 0.93820078E+02 0.0000E+00 0.0000E+00
       24  1    3    3    0    0 -.20124518E+03 0.21694480E+03 -.39221860E+03 0.49786275E+03 0.80419002E+02 0.0000E+00 0.9000E+01
      -11  1    4    4    0    0 0.17006225E+03 -.18544215E+03 -.71633411E+03 0.75923943E+03 0.51099893E-03 0.0000E+00 0.9000E+01
       11  1    4    4    0    0 0.25602202E+02 -.71185665E+02 -.37965621E+03 0.38711976E+03 0.51099893E-03 0.0000E+00 0.9000E+01
      -24  1    3    3    0    0 0.55807308E+01 0.39683012E+02 0.26176140E+01 0.89888564E+02 0.80419002E+02 0.0000E+00 0.9000E+01
#aMCatNLO 1  0  0  1  2 0.20610594D+03 0.00000000D+00  -5  7  0 0.00000000D+00 0.00000000D+00 0.00000000D+00 0.00000000D+00 0.00000000D+00
  <mgrwgt>
 0.9318178546D-03    9    2    0
 0.447257672744894D+03 0.000000000000000D+00 0.000000000000000D+00 0.447257672744894D+03
 0.447257672744894D+03 0.000000000000000D+00 0.000000000000000D+00 -.447257672744894D+03
 0.313770439691208D+03 -.201245178727260D+03 0.216944797846990D+03 0.664831226387961D+02
 0.282192302337506D+03 0.170062246043907D+03 -.185442145070977D+03 -.127759691610926D+03
 0.119947051701693D+03 0.256022018511335D+02 -.711856652053277D+02 -.930828853311794D+02
 0.178605551759381D+03 0.558073083221910D+01 0.396830124293144D+02 0.154359454303309D+03
 0.000000000000000D+00 0.000000000000000D+00 -.000000000000000D+00 0.000000000000000D+00
 0.593586950174680D+03 0.000000000000000D+00 0.000000000000000D+00 0.593586950174680D+03
 0.537870033103889D+03 0.000000000000000D+00 0.000000000000000D+00 -.537870033103889D+03
 0.368710485955826D+03 -.278852006483250D+03 0.217489676499532D+03 0.664831226387961D+02
 0.250102920566751D+03 0.109533457433291D+03 -.185017171576611D+03 -.127759691610926D+03
 0.117075788124738D+03 -.135033266432769D+01 -.709964310733060D+02 -.930828853311794D+02
 0.182063614950244D+03 -.354319756711808D+02 0.399709632308459D+02 0.154359454303309D+03
 0.213504173681010D+03 0.206100857385468D+03 -.144703708046085D+01 0.557169170707904D+02
0.264729219144D-04 0.000000000000D+00 0.000000000000D+00 0.224840087455D-06 0.000000000000D+00  7 -2 2 24 -11 11 -24 21 0 0.19116861D-01 0.24766937D+00 0.13095749D+06 0.13095749D+06 0.13095749D+06 0.11122350D+01  1  2  2  1  7  1       -2 0.822477934626D-03 0.100000000000D+01
-.139048576571D-05 0.000000000000D+00 -.101662990632D-06 0.224840087455D-06 0.000000000000D+00  7 -2 2 24 -11 11 -24 21 2 0.19116861D-01 0.24766937D+00 0.13095749D+06 0.13095749D+06 0.13095749D+06 0.11122350D+01  1  2  3  1  7  1       -2 -.534419204568D-04 0.100000000000D+01
0.164801797373D-05 0.000000000000D+00 0.000000000000D+00 0.224840087455D-06 0.000000000000D+00  7 -2 2 24 -11 11 -24 21 2 0.19116861D-01 0.24766937D+00 0.13095749D+06 0.13095749D+06 0.13095749D+06 0.11122350D+01  1  2 15  1  7  1       -2 0.633399115872D-04 0.100000000000D+01
0.595487212913D-05 0.000000000000D+00 0.000000000000D+00 0.224840087455D-06 0.000000000000D+00  7 -2 2 24 -11 11 -24 21 2 0.26788707D-01 0.24766937D+00 0.22625873D+06 0.22625873D+06 0.22625873D+06 0.10937342D+01  1  2 12  1  7  1       -2 0.123025075943D-03 0.100000000000D+01
-.119555251642D-04 0.000000000000D+00 0.000000000000D+00 0.224840087455D-06 0.000000000000D+00  7 -2 2 24 -11 11 -24 21 2 0.19116861D-01 0.24766937D+00 0.13095749D+06 0.13095749D+06 0.13095749D+06 0.11122350D+01  1  2  4  1  7  1       -2 -.459498572802D-03 0.100000000000D+01
-.144805765915D-04 0.000000000000D+00 -.969288063901D-05 0.224840087455D-06 0.000000000000D+00  7 -2 2 24 -11 11 -24 21 2 0.30934208D-01 0.24766937D+00 0.13095749D+06 0.13095749D+06 0.13095749D+06 0.11122350D+01  1  2  5  1  7  1       -2 -.244858552761D-03 0.100000000000D+01
0.180393212426D-04 0.000000000000D+00 0.866926556566D-05 0.224840087455D-06 0.000000000000D+00  7 -2 2 24 -11 11 -24 21 2 0.19116861D-01 0.24766937D+00 0.13095749D+06 0.13095749D+06 0.13095749D+06 0.11122350D+01  1  2  6  1  7  1       -2 0.693323149878D-03 0.100000000000D+01
0.250537353654D-06 0.000000000000D+00 0.000000000000D+00 0.224840087455D-06 0.000000000000D+00  7 21 2 24 -11 11 -24 2 2 0.26788707D-01 0.24766937D+00 0.22625873D+06 0.22625873D+06 0.22625873D+06 0.10937342D+01  1  2 12  3  7  1       -2 0.614999478120D-04 0.100000000000D+01
-.373937852182D-06 0.000000000000D+00 -.530383286486D-06 0.224840087455D-06 0.000000000000D+00  7 21 2 24 -11 11 -24 2 2 0.30934208D-01 0.24766937D+00 0.13095749D+06 0.13095749D+06 0.13095749D+06 0.11122350D+01  1  2  5  3  7  1       -2 -.740491192540D-04 0.100000000000D+01
  </mgrwgt>
  </event>
  <event>
  8     66 0.27011060E-05 0.17817985E+03 0.75467711E-02 0.99110783E-01
       -2 -1    0    0    0  501 0.00000000E+00 0.00000000E+00 0.24100714E+03 0.24100735E+03 0.32000000E+00 0.0000E+00 0.9000E+01
        2 -1    0    0  501    0 0.00000000E+00 0.00000000E+00 -.74171993E+03 0.74172000E+03 0.32000000E+00 0.0000E+00 0.9000E+01
       25  2    1    2    0    0 -.65597112E+02 -.22010864E+03 0.47443993E+02 0.38130161E+03 0.30064795E+03 0.0000E+00 0.0000E+00
       23  2    1    2    0    0 0.65597112E+02 0.22010864E+03 -.54815678E+03 0.60142575E+03 0.92120964E+02 0.0000E+00 0.0000E+00
       24  1    3    3    0    0 -.13154727E+03 -.12717559E+03 0.11034253E+03 0.22830025E+03 0.80419002E+02 0.0000E+00 0.9000E+01
      -11  1    4    4    0    0 -.22046364E+02 0.24928096E+02 -.65340067E+02 0.73326506E+02 0.51099893E-03 0.0000E+00 0.9000E+01
       11  1    4    4    0    0 0.87643476E+02 0.19518055E+03 -.48281672E+03 0.52809924E+03 0.51099893E-03 0.0000E+00 0.9000E+01
      -24  1    3    3    0    0 0.65950153E+02 -.92933055E+02 -.62898536E+02 0.15300136E+03 0.80419002E+02 0.0000E+00 0.9000E+01
#aMCatNLO 1  0  0  1  2 0.97523372D+02 0.00000000D+00  -5  7  0 0.00000000D+00 0.00000000D+00 0.00000000D+00 0.00000000D+00 0.00000000D+00
  <mgrwgt>
 0.1400415802D-02    9    2    0
 0.422800118229741D+03 0.000000000000000D+00 0.000000000000000D+00 0.422800118229741D+03
 0.422800118229741D+03 0.000000000000000D+00 0.000000000000000D+00 -.422800118229741D+03
 0.330660757548469D+03 -.131547265282899D+03 -.127175588343745D+03 0.263421729085073D+03
 0.465271347772336D+02 -.220463639690840D+02 0.249280961329329D+02 -.325164901166900D+02
 0.327844119360901D+03 0.876434763397937D+02 0.195180547570499D+03 -.248404793642718D+03
 0.140568224772878D+03 0.659501529121896D+02 -.929330553596866D+02 0.174995546743347D+02
 0.000000000000000D+00 -.000000000000000D+00 -.000000000000000D+00 0.000000000000000D+00
 0.479741369494678D+03 0.000000000000000D+00 0.000000000000000D+00 0.479741369494678D+03
 0.469521403384500D+03 0.000000000000000D+00 0.000000000000000D+00 -.469521403384500D+03
 0.314619558919830D+03 -.955313063477171D+02 -.118325876518480D+03 0.263421729085073D+03
 0.450523961057415D+02 -.169349038184991D+02 0.261840657274233D+02 -.325164901166900D+02
 0.345204587128397D+03 0.125209312389105D+03 0.204411089622978D+03 -.248404793642718D+03
 0.146328819700559D+03 0.819631505330276D+02 -.889983992074484D+02 0.174995546743347D+02
 0.980574110246518D+02 -.947062527559168D+02 -.232708796244731D+02 0.102199661101781D+02
0.298459203251D-04 0.000000000000D+00 0.000000000000D+00 0.152032426527D-05 0.000000000000D+00  7 -2 2 24 -11 11 -24 21 0 0.37078044D-01 0.11411078D+00 0.86016699D+05 0.86016699D+05 0.86016699D+05 0.11271301D+01  1  2  2  1  7  1       -2 0.967034765636D-03 0.100000000000D+01
-.138841633011D-05 0.000000000000D+00 -.114616192660D-06 0.152032426527D-05 0.000000000000D+00  7 -2 2 24 -11 11 -24 21 2 0.37078044D-01 0.11411078D+00 0.86016699D+05 0.86016699D+05 0.86016699D+05 0.11271301D+01  1  2  3  1  7  1       -2 -.571511472149D-04 0.100000000000D+01
0.183739688157D-05 0.000000000000D+00 0.000000000000D+00 0.152032426527D-05 0.000000000000D+00  7 -2 2 24 -11 11 -24 21 2 0.37078044D-01 0.11411078D+00 0.86016699D+05 0.86016699D+05 0.86016699D+05 0.11271301D+01  1  2 15  1  7  1       -2 0.756324579261D-04 0.100000000000D+01
0.220523752425D-04 0.000000000000D+00 0.000000000000D+00 0.152032426527D-05 0.000000000000D+00  7 -2 2 24 -11 11 -24 21 2 0.43875998D-01 0.11411078D+00 0.11755521D+06 0.11755521D+06 0.11755521D+06 0.11160031D+01  1  2 12  1  7  1       -2 0.646571070843D-03 0.100000000000D+01
-.209783104838D-04 0.000000000000D+00 0.000000000000D+00 0.152032426527D-05 0.000000000000D+00  7 -2 2 24 -11 11 -24 21 2 0.37078044D-01 0.11411078D+00 0.86016699D+05 0.86016699D+05 0.86016699D+05 0.11271301D+01  1  2  4  1  7  1       -2 -.863526656075D-03 0.100000000000D+01
-.493684842482D-04 0.000000000000D+00 -.187043837443D-04 0.152032426527D-05 0.000000000000D+00  7 -2 2 24 -11 11 -24 21 2 0.46400559D-01 0.11411078D+00 0.86016699D+05 0.86016699D+05 0.86016699D+05 0.11271301D+01  1  2  5  1  7  1       -2 -.133528657372D-02 0.100000000000D+01
0.526934953518D-04 0.000000000000D+00 0.182435900817D-04 0.152032426527D-05 0.000000000000D+00  7 -2 2 24 -11 11 -24 21 2 0.37078044D-01 0.11411078D+00 0.86016699D+05 0.86016699D+05 0.86016699D+05 0.11271301D+01  1  2  6  1  7  1       -2 0.216901346146D-02 0.100000000000D+01
0.551735881575D-06 0.000000000000D+00 0.000000000000D+00 0.152032426527D-05 0.000000000000D+00  7 21 2 24 -11 11 -24 2 2 0.43875998D-01 0.11411078D+00 0.11755521D+06 0.11755521D+06 0.11755521D+06 0.11160031D+01  1  2 12  3  7  1       -2 0.177628024435D-03 0.100000000000D+01
-.127936856500D-05 0.000000000000D+00 -.583897888809D-06 0.152032426527D-05 0.000000000000D+00  7 21 2 24 -11 11 -24 2 2 0.46400559D-01 0.11411078D+00 0.86016699D+05 0.86016699D+05 0.86016699D+05 0.11271301D+01  1  2  5  3  7  1       -2 -.379499601193D-03 0.100000000000D+01
  </mgrwgt>
  </event>
  <event>
  8     66 0.27011060E-05 0.27636589E+03 0.75467711E-02 0.91443214E-01
       -2 -1    0    0    0  501 0.00000000E+00 0.00000000E+00 0.94309878E+02 0.94310420E+02 0.32000000E+00 0.0000E+00 0.9000E+01
        2 -1    0    0  501    0 0.00000000E+00 0.00000000E+00 -.10655698E+04 0.10655699E+04 0.32000000E+00 0.0000E+00 0.9000E+01
       25  2    1    2    0    0 -.22777571E+03 -.57835637E+02 -.56418100E+03 0.68069113E+03 0.29968897E+03 0.0000E+00 0.0000E+00
       23  2    1    2    0    0 0.22777571E+03 0.57835637E+02 -.40707896E+03 0.47918917E+03 0.93178583E+02 0.0000E+00 0.0000E+00
       24  1    3    3    0    0 -.97750997E+02 0.22753767E+02 -.49563242E+02 0.13782860E+03 0.80419002E+02 0.0000E+00 0.9000E+01
      -13  1    4    4    0    0 0.16771373E+03 0.81841134E+02 -.27827210E+03 0.33505408E+03 0.10565837E+00 0.0000E+00 0.9000E+01
       13  1    4    4    0    0 0.60061983E+02 -.24005497E+02 -.12880686E+03 0.14413509E+03 0.10565837E+00 0.0000E+00 0.9000E+01
      -24  1    3    3    0    0 -.13002472E+03 -.80589404E+02 -.51461776E+03 0.54286253E+03 0.80419002E+02 0.0000E+00 0.9000E+01
#aMCatNLO 1  0  0  2  2 0.57806572D+03 0.00000000D+00  -5  7  0 0.00000000D+00 0.00000000D+00 0.00000000D+00 0.00000000D+00 0.00000000D+00
  <mgrwgt>
 0.5640256422D-03    5    2    0
 0.317008049294705D+03 0.000000000000000D+00 0.000000000000000D+00 0.317008049294705D+03
 0.317008049294705D+03 0.000000000000000D+00 0.000000000000000D+00 -.317008049294705D+03
 0.176219316253332D+03 -.977509978446457D+02 0.227537670571588D+02 0.120470079154560D+03
 0.186664318241265D+03 0.167713868918846D+03 0.818412692522568D+02 0.419910989712462D+01
 0.663617338439383D+02 0.600618444829537D+02 -.240056320174651D+02 -.148386046352497D+02
 0.204770730250875D+03 -.130024715557154D+03 -.805894042919505D+02 -.109830584416435D+03
 0.000000000000000D+00 -.000000000000000D+00 -.000000000000000D+00 -.000000000000000D+00
 0.663750185980416D+03 0.000000000000000D+00 0.000000000000000D+00 0.663750185980416D+03
 0.784847389385713D+03 0.000000000000000D+00 0.000000000000000D+00 -.784847389385713D+03
 0.185425862280093D+03 0.723964951351753D+01 0.115542554720592D+03 0.120470079154560D+03
 0.416597499599455D+03 0.342849201949991D+03 0.236622629667672D+03 0.419910989712462D+01
 0.116343154114824D+03 0.113103625767253D+03 0.228717109147041D+02 -.148386046352497D+02
 0.139617391415632D+03 -.300440328812294D+02 0.777166946744572D+01 -.109830584416435D+03
 0.590613667956124D+03 -.433148444349532D+03 -.382808564770413D+03 -.121097203405297D+03
0.561780237608D-05 0.000000000000D+00 0.000000000000D+00 0.177946992377D-06 0.000000000000D+00  7 -2 2 24 -13 13 -24 21 0 0.14509257D-01 0.16393387D+00 0.76378104D+05 0.76378104D+05 0.76378104D+05 0.11314542D+01  1  2  2  2  7  2        2 0.551683723044D-03 0.100000000000D+01
-.304956926125D-06 0.000000000000D+00 -.215738403255D-07 0.177946992377D-06 0.000000000000D+00  7 -2 2 24 -13 13 -24 21 2 0.14509257D-01 0.16393387D+00 0.76378104D+05 0.76378104D+05 0.76378104D+05 0.11314542D+01  1  2  3  2  7  2        2 -.383385943228D-04 0.100000000000D+01
0.353814538266D-06 0.000000000000D+00 0.000000000000D+00 0.177946992377D-06 0.000000000000D+00  7 -2 2 24 -13 13 -24 21 2 0.14509257D-01 0.16393387D+00 0.76378104D+05 0.76378104D+05 0.76378104D+05 0.11314542D+01  1  2 15  2  7  2        2 0.444808787275D-04 0.100000000000D+01
0.131848346545D-05 0.000000000000D+00 -.174679736995D-05 0.177946992377D-06 0.000000000000D+00  7 -2 2 24 -13 13 -24 21 2 0.14509257D-01 0.54364228D+00 0.76378104D+05 0.76378104D+05 0.76378104D+05 0.11314542D+01  1  2  5  2  7  2        2 0.615732466898D-05 0.100000000000D+01
0.251328165788D-06 0.000000000000D+00 -.242726565644D-06 0.177946992377D-06 0.000000000000D+00  7 -2 21 24 -13 13 -24 -2 2 0.14509257D-01 0.54364228D+00 0.76378104D+05 0.76378104D+05 0.76378104D+05 0.11314542D+01  1  2  5  4  7  2        2 0.423101136604D-07 0.100000000000D+01
  </mgrwgt>
  </event>
  <event>
  8     66 0.27011060E-05 0.51246906E+03 0.75467711E-02 0.85378391E-01
       -2 -1    0    0    0  501 0.00000000E+00 0.00000000E+00 0.19685239E+04 0.19685239E+04 0.32000000E+00 0.0000E+00 0.9000E+01
        2 -1    0    0  501    0 0.00000000E+00 0.00000000E+00 -.16219743E+03 0.16219774E+03 0.32000000E+00 0.0000E+00 0.9000E+01
       25  2    1    2    0    0 -.33106808E+03 0.32925560E+03 0.13965488E+04 0.15028698E+04 0.30042245E+03 0.0000E+00 0.0000E+00
       23  2    1    2    0    0 0.33106808E+03 -.32925560E+03 0.40977763E+03 0.62785187E+03 0.90911702E+02 0.0000E+00 0.0000E+00
       24  1    3    3    0    0 -.19322350E+03 0.28850284E+02 0.62248371E+03 0.65735899E+03 0.80419002E+02 0.0000E+00 0.9000E+01
      -11  1    4    4    0    0 0.15608047E+03 -.21038640E+03 0.25639015E+03 0.36655076E+03 0.51099893E-03 0.0000E+00 0.9000E+01
       11  1    4    4    0    0 0.17498761E+03 -.11886920E+03 0.15338748E+03 0.26130111E+03 0.51099893E-03 0.0000E+00 0.9000E+01
      -24  1    3    3    0    0 -.13784458E+03 0.30040532E+03 0.77406513E+03 0.84551080E+03 0.80419002E+02 0.0000E+00 0.9000E+01
#aMCatNLO 1  0  0  1  1 0.10398241D+04 0.00000000D+00  -5  7  0 0.00000000D+00 0.00000000D+00 0.00000000D+00 0.00000000D+00 0.00000000D+00
  <mgrwgt>
 0.4171508372D-03    5    2    0
 0.565057408475449D+03 0.000000000000000D+00 0.000000000000000D+00 0.565057408475449D+03
 0.565057408475449D+03 0.000000000000000D+00 0.000000000000000D+00 -.565057408475449D+03
 0.244435557486457D+03 -.193223501462834D+03 0.288502840717776D+02 0.122938461844795D+03
 0.281292949166000D+03 0.156080472489955D+03 -.210386397968127D+03 -.102480109815591D+03
 0.247489955236253D+03 0.174987606129622D+03 -.118869202557224D+03 -.128455160765446D+03
 0.356896355062188D+03 -.137844577156742D+03 0.300405316453573D+03 0.107996808736242D+03
 0.000000000000000D+00 -.000000000000000D+00 0.000000000000000D+00 0.000000000000000D+00
 0.155166064120628D+04 0.000000000000000D+00 0.000000000000000D+00 0.155166064120628D+04
 0.111271904128920D+04 0.000000000000000D+00 0.000000000000000D+00 -.111271904128920D+04
 0.183081430413121D+03 -.702001424793735D+02 -.837237648631215D+02 0.122938461844795D+03
 0.618875471369706D+03 0.415115191295449D+03 -.447419326930568D+03 -.102480109815591D+03
 0.528929479911763D+03 0.398412007020066D+03 -.323316468888757D+03 -.128455160765446D+03
 0.204819831202268D+03 0.237962791964681D+02 0.152493848067869D+03 0.107996808736242D+03
 0.112867346959863D+04 -.767123335032610D+03 0.701965712614577D+03 0.438941599917077D+03
0.567590901725D-03 0.000000000000D+00 0.000000000000D+00 0.214027363217D-05 0.000000000000D+00  7 -2 2 24 -11 11 -24 21 0 0.30284986D+00 0.24953477D-01 0.26262454D+06 0.26262454D+06 0.26262454D+06 0.10888532D+01  1  2  2  1  7  1       -2 0.413501198537D-03 0.100000000000D+01
-.311669653973D-04 0.000000000000D+00 -.217969851274D-05 0.214027363217D-05 0.000000000000D+00  7 -2 2 24 -11 11 -24 21 2 0.30284986D+00 0.24953477D-01 0.26262454D+06 0.26262454D+06 0.26262454D+06 0.10888532D+01  1  2  3  1  7  1       -2 -.269199668760D-04 0.100000000000D+01
0.353549080112D-04 0.000000000000D+00 0.000000000000D+00 0.214027363217D-05 0.000000000000D+00  7 -2 2 24 -11 11 -24 21 2 0.30284986D+00 0.24953477D-01 0.26262454D+06 0.26262454D+06 0.26262454D+06 0.10888532D+01  1  2 15  1  7  1       -2 0.305372351922D-04 0.100000000000D+01
0.221553192699D-04 0.000000000000D+00 -.124985110077D-03 0.214027363217D-05 0.000000000000D+00  7 -2 2 24 -11 11 -24 21 2 0.87862340D+00 0.24953477D-01 0.26262454D+06 0.26262454D+06 0.26262454D+06 0.10888532D+01  1  2  5  1  7  1       -2 0.321379711763D-07 0.100000000000D+01
0.929283044682D-05 0.000000000000D+00 -.150507019890D-04 0.214027363217D-05 0.000000000000D+00  7 21 2 24 -11 11 -24 2 2 0.87862340D+00 0.24953477D-01 0.26262454D+06 0.26262454D+06 0.26262454D+06 0.10888532D+01  1  2  5  3  7  1       -2 0.232414056679D-09 0.100000000000D+01
  </mgrwgt>
  </event>
  <event>
  8     66 0.27011060E-05 0.58640947E+03 0.75467711E-02 0.90243865E-01
       -2 -1    0    0    0  501 0.00000000E+00 0.00000000E+00 0.13069427E+03 0.13069466E+03 0.32000000E+00 0.0000E+00 0.9000E+01
        2 -1    0    0  501    0 0.00000000E+00 0.00000000E+00 -.28306878E+04 0.28306878E+04 0.32000000E+00 0.0000E+00 0.9000E+01
       25  2    1    2    0    0 -.63789808E+02 -.55256536E+03 -.16959568E+04 0.18099661E+04 0.30051666E+03 0.0000E+00 0.0000E+00
       23  2    1    2    0    0 0.63789808E+02 0.55256536E+03 -.10040367E+04 0.11514163E+04 0.90951890E+02 0.0000E+00 0.0000E+00
       24  1    3    3    0    0 -.13223189E+03 -.41458113E+03 -.10165934E+04 0.11087345E+04 0.80419002E+02 0.0000E+00 0.9000E+01
      -11  1    4    4    0    0 0.22887395E+02 0.13035377E+03 -.16749028E+03 0.21346881E+03 0.51099893E-03 0.0000E+00 0.9000E+01
       11  1    4    4    0    0 0.40902413E+02 0.42221159E+03 -.83654644E+03 0.93794753E+03 0.51099893E-03 0.0000E+00 0.9000E+01
      -24  1    3    3    0    0 0.68442086E+02 -.13798423E+03 -.67936340E+03 0.70123164E+03 0.80419002E+02 0.0000E+00 0.9000E+01
#aMCatNLO 1  0  0  2  2 0.29472824D+03 0.00000000D+00  -5  7  0 0.00000000D+00 0.00000000D+00 0.00000000D+00 0.00000000D+00 0.00000000D+00
  <mgrwgt>
 0.1038070252D-02    4    2    0
 0.608239486903438D+03 0.000000000000000D+00 0.000000000000000D+00 0.608239486903438D+03
 0.608239486903438D+03 0.000000000000000D+00 0.000000000000000D+00 -.608239486903438D+03
 0.442746042514443D+03 -.132231894405959D+03 -.414581131073992D+03 -.139303290359920D+02
 0.147918808045761D+03 0.228873951789185D+02 0.130353774101296D+03 0.660608393312651D+02
 0.426601222730700D+03 0.409024129721570D+02 0.422211589336660D+03 0.453097084320187D+02
 0.199212900515971D+03 0.684420862548832D+02 -.137984232363964D+03 -.974402187272918D+02
 0.000000000000000D+00 0.000000000000000D+00 -.000000000000000D+00 0.000000000000000D+00
 0.962859438470917D+03 0.000000000000000D+00 0.000000000000000D+00 0.962859438470917D+03
 0.690271953012758D+03 0.000000000000000D+00 0.000000000000000D+00 -.690271953012758D+03
 0.411311162801815D+03 -.207419673622766D+03 -.345677134936902D+03 -.139303290359920D+02
 0.169447896649897D+03 -.505229969735933D+01 0.155958422195440D+03 0.660608393312651D+02
 0.500749607950639D+03 -.407378437691604D+02 0.497028800241559D+03 0.453097084320187D+02
 0.170164543606130D+03 0.359235739779019D+02 -.108183439367325D+03 -.974402187272918D+02
 0.401458180475195D+03 0.217286243111384D+03 -.199126648132772D+03 0.272587485458158D+03
0.208960125093D-03 0.000000000000D+00 0.000000000000D+00 0.486120459591D-05 0.000000000000D+00  7 -2 2 24 -11 11 -24 21 0 0.20106842D-01 0.43549046D+00 0.34387607D+06 0.34387607D+06 0.34387607D+06 0.10801931D+01  1  2  2  2  7  2        2 0.118204984306D-02 0.100000000000D+01
-.115900395370D-04 0.000000000000D+00 -.802461900821D-06 0.486120459591D-05 0.000000000000D+00  7 -2 2 24 -11 11 -24 21 2 0.20106842D-01 0.43549046D+00 0.34387607D+06 0.34387607D+06 0.34387607D+06 0.10801931D+01  1  2  3  2  7  2        2 -.764997592365D-04 0.100000000000D+01
0.129139676006D-04 0.000000000000D+00 0.000000000000D+00 0.486120459591D-05 0.000000000000D+00  7 -2 2 24 -11 11 -24 21 2 0.20106842D-01 0.43549046D+00 0.34387607D+06 0.34387607D+06 0.34387607D+06 0.10801931D+01  1  2 15  2  7  2        2 0.852383125251D-04 0.100000000000D+01
-.231374497446D-04 0.000000000000D+00 0.000000000000D+00 0.486120459591D-05 0.000000000000D+00  7 -2 2 24 -11 11 -24 21 2 0.20106842D-01 0.43549046D+00 0.34387607D+06 0.34387607D+06 0.34387607D+06 0.10801931D+01  1  2  4  2  7  2        2 -.152718144676D-03 0.100000000000D+01
  </mgrwgt>
  </event>
  <event>
  8     66 0.27011060E-05 0.17304629E+03 0.75467711E-02 0.10579419E+00
       -2 -1    0    0    0  501 0.00000000E+00 0.00000000E+00 0.34962933E+03 0.34962947E+03 0.32000000E+00 0.0000E+00 0.9000E+01
        2 -1    0    0  501    0 0.00000000E+00 0.00000000E+00 -.45667054E+03 0.45667065E+03 0.32000000E+00 0.0000E+00 0.9000E+01
       25  2    1    2    0    0 0.42290594E+02 -.10624077E+02 -.39620550E+03 0.49878451E+03 0.29984301E+03 0.0000E+00 0.0000E+00
       23  2    1    2    0    0 -.42290594E+02 0.10624077E+02 0.28916428E+03 0.30751562E+03 0.95123630E+02 0.0000E+00 0.0000E+00
       24  1    3    3    0    0 -.32979333E+02 0.10570205E+03 -.23215250E+03 0.26948573E+03 0.80419002E+02 0.0000E+00 0.9000E+01
      -11  1    4    4    0    0 -.30263382E+01 0.92726738E+01 0.25576216E+03 0.25594809E+03 0.51099893E-03 0.0000E+00 0.9000E+01
       11  1    4    4    0    0 -.39264256E+02 0.13514028E+01 0.33402127E+02 0.51567530E+02 0.51099893E-03 0.0000E+00 0.9000E+01
      -24  1    3    3    0    0 0.75269927E+02 -.11632613E+03 -.16405300E+03 0.22929878E+03 0.80419002E+02 0.0000E+00 0.9000E+01
#aMCatNLO 1  0  0  2  2 0.48789268D+02 0.00000000D+00  -5  7  0 0.00000000D+00 0.00000000D+00 0.00000000D+00 0.00000000D+00 0.00000000D+00
  <mgrwgt>
 0.1164941274D-02    4    2    0
 0.399581680346861D+03 0.000000000000000D+00 0.000000000000000D+00 0.399581680346861D+03
 0.399581680346861D+03 0.000000000000000D+00 0.000000000000000D+00 -.399581680346861D+03
 0.240797445574862D+03 -.329793334590789D+02 0.105702050032930D+03 -.198130346046331D+03
 0.292490969169124D+03 -.302633816313380D+01 0.927267376926041D+01 0.292328284372185D+03
 0.565019778056979D+02 -.392642558189682D+02 0.135140276524220D+01 0.406074552453647D+02
 0.209372968144038D+03 0.752699274411809D+02 -.116326126567432D+03 -.134805393571218D+03
 0.000000000000000D+00 -.000000000000000D+00 -.000000000000000D+00 0.000000000000000D+00
 0.550882553789668D+03 0.000000000000000D+00 0.000000000000000D+00 0.550882553789668D+03
 0.404278285183902D+03 0.000000000000000D+00 0.000000000000000D+00 -.404278285183902D+03
 0.247340901600642D+03 -.308314170100339D+02 0.120432949606668D+03 -.198130346046331D+03
 0.293569061128163D+03 -.447544699176064D+00 0.269586259187795D+02 0.292328284372185D+03
 0.563429516648243D+02 -.387677132268864D+02 0.475680480557437D+01 0.406074552453647D+02
 0.203398364114696D+03 0.770862123927378D+02 -.103869631236539D+03 -.134805393571218D+03
 0.154509560465245D+03 -.703953745664139D+01 -.482787490944826D+02 0.146604268605766D+03
0.411567686773D-04 0.000000000000D+00 0.000000000000D+00 0.544493858177D-06 0.000000000000D+00  7 -2 2 24 -11 11 -24 21 0 0.53789147D-01 0.70257026D-01 0.29945019D+05 0.29945019D+05 0.29945019D+05 0.11674098D+01  1  2  2  2  7  2        2 0.116223798130D-02 0.100000000000D+01
-.339536637890D-06 0.000000000000D+00 -.158052828547D-06 0.544493858177D-06 0.000000000000D+00  7 -2 2 24 -11 11 -24 21 2 0.53789147D-01 0.70257026D-01 0.29945019D+05 0.29945019D+05 0.29945019D+05 0.11674098D+01  1  2  3  2  7  2        2 -.130673383889D-04 0.100000000000D+01
0.243208919493D-05 0.000000000000D+00 0.000000000000D+00 0.544493858177D-06 0.000000000000D+00  7 -2 2 24 -11 11 -24 21 2 0.53789147D-01 0.70257026D-01 0.29945019D+05 0.29945019D+05 0.29945019D+05 0.11674098D+01  1  2 15  2  7  2        2 0.936008929685D-04 0.100000000000D+01
-.202231125330D-05 0.000000000000D+00 0.000000000000D+00 0.544493858177D-06 0.000000000000D+00  7 -2 2 24 -11 11 -24 21 2 0.53789147D-01 0.70257026D-01 0.29945019D+05 0.29945019D+05 0.29945019D+05 0.11674098D+01  1  2  4  2  7  2        2 -.778302619674D-04 0.100000000000D+01
  </mgrwgt>
  </event>
  <event>
  8     66 0.27011060E-05 0.19948453E+03 0.75467711E-02 0.95118146E-01
       -2 -1    0    0    0  501 0.00000000E+00 0.00000000E+00 0.80817582E+02 0.80818215E+02 0.32000000E+00 0.0000E+00 0.9000E+01
        2 -1    0    0  501    0 0.00000000E+00 0.00000000E+00 -.22205870E+04 0.22205870E+04 0.32000000E+00 0.0000E+00 0.9000E+01
       25  2    1    2    0    0 -.12874724E+03 0.34101965E+03 -.11423485E+04 0.12356519E+04 0.29833734E+03 0.0000E+00 0.0000E+00
       23  2    1    2    0    0 0.12874724E+03 -.34101965E+03 -.99742087E+03 0.10657533E+04 0.90064005E+02 0.0000E+00 0.0000E+00
       24  1    3    3    0    0 -.29058948E+01 0.30764646E+03 -.77558200E+03 0.83824188E+03 0.80419002E+02 0.0000E+00 0.9000E+01
      -11  1    4    4    0    0 0.28211867E+02 -.67355823E+02 -.11322602E+03 0.13473250E+03 0.51099893E-03 0.0000E+00 0.9000E+01
       11  1    4    4    0    0 0.10053537E+03 -.27366383E+03 -.88419486E+03 0.93102084E+03 0.51099893E-03 0.0000E+00 0.9000E+01
      -24  1    3    3    0    0 -.12584135E+03 0.33373193E+02 -.36676654E+03 0.39741002E+03 0.80419002E+02 0.0000E+00 0.9000E+01
#aMCatNLO 1  0  0  2  1 0.11584238D+03 0.00000000D+00  -5  7  0 0.00000000D+00 0.00000000D+00 0.00000000D+00 0.00000000D+00 0.00000000D+00
  <mgrwgt>
 0.1310214483D-02    9    2    0
 0.423631003667258D+03 0.000000000000000D+00 0.000000000000000D+00 0.423631003667258D+03
 0.423631003667258D+03 0.000000000000000D+00 0.000000000000000D+00 -.423631003667258D+03
 0.318163206521736D+03 -.290589483488110D+01 0.307646455924371D+03 0.102870774375082D+02
 0.800183632701241D+02 0.282118665893277D+02 -.673558234531525D+02 0.327142490502729D+02
 0.295874370723938D+03 0.100535374603303D+03 -.273663825537081D+03 -.504221409409618D+02
 0.153206066818718D+03 -.125841346357750D+03 0.333731930658626D+02 0.742081445318070D+01
 0.000000000000000D+00 0.000000000000000D+00 -.000000000000000D+00 -.000000000000000D+00
 0.461719819328092D+03 0.000000000000000D+00 0.000000000000000D+00 0.461719819328092D+03
 0.525818589270164D+03 0.000000000000000D+00 0.000000000000000D+00 -.525818589270164D+03
 0.362172828875607D+03 -.134427954545132D+02 0.352725685639070D+03 0.102870774375082D+02
 0.709173344493839D+02 0.258742064271750D+02 -.573547877360420D+02 0.327142490502729D+02
 0.259063692178777D+03 0.919406112589774D+02 -.236893495709687D+03 -.504221409409618D+02
 0.162990790271880D+03 -.130738536402163D+03 0.543244730425703D+02 0.742081445318070D+01
 0.132393762822609D+03 0.263665141705242D+02 -.112801875235912D+03 -.640987699420717D+02
0.276662499042D-04 0.000000000000D+00 0.000000000000D+00 0.227671289774D-06 0.000000000000D+00  7 -2 2 24 -11 11 -24 21 0 0.12433525D-01 0.34162882D+00 0.17455469D+06 0.17455469D+06 0.17455469D+06 0.11023933D+01  1  2  2  2  7  2        2 0.796251259776D-03 0.100000000000D+01
-.153665457446D-05 0.000000000000D+00 -.106245684323D-06 0.227671289774D-06 0.000000000000D+00  7 -2 2 24 -11 11 -24 21 2 0.12433525D-01 0.34162882D+00 0.17455469D+06 0.17455469D+06 0.17455469D+06 0.11023933D+01  1  2  3  2  7  2        2 -.537463850935D-04 0.100000000000D+01
0.172872794476D-05 0.000000000000D+00 0.000000000000D+00 0.227671289774D-06 0.000000000000D+00  7 -2 2 24 -11 11 -24 21 2 0.12433525D-01 0.34162882D+00 0.17455469D+06 0.17455469D+06 0.17455469D+06 0.11023933D+01  1  2 15  2  7  2        2 0.604643876283D-04 0.100000000000D+01
0.229628895035D-04 0.000000000000D+00 0.000000000000D+00 0.227671289774D-06 0.000000000000D+00  7 -2 2 24 -11 11 -24 21 2 0.12433525D-01 0.43657352D+00 0.22930749D+06 0.22930749D+06 0.22930749D+06 0.10932931D+01  1  2 12  2  7  2        2 0.343115855134D-03 0.100000000000D+01
-.237446114425D-04 0.000000000000D+00 0.000000000000D+00 0.227671289774D-06 0.000000000000D+00  7 -2 2 24 -11 11 -24 21 2 0.12433525D-01 0.34162882D+00 0.17455469D+06 0.17455469D+06 0.17455469D+06 0.11023933D+01  1  2  4  2  7  2        2 -.830497010644D-03 0.100000000000D+01
-.474628804671D-04 0.000000000000D+00 -.124131450732D-04 0.227671289774D-06 0.000000000000D+00  7 -2 2 24 -11 11 -24 21 2 0.12433525D-01 0.43633942D+00 0.17455469D+06 0.17455469D+06 0.17455469D+06 0.11023933D+01  1  2  5  2  7  2        2 -.731566802783D-03 0.100000000000D+01
0.493772505339D-04 0.000000000000D+00 0.120505717001D-04 0.227671289774D-06 0.000000000000D+00  7 -2 2 24 -11 11 -24 21 2 0.12433525D-01 0.34162882D+00 0.17455469D+06 0.17455469D+06 0.17455469D+06 0.11023933D+01  1  2  6  2  7  2        2 0.172703011214D-02 0.100000000000D+01
0.766160720347D-06 0.000000000000D+00 0.000000000000D+00 0.227671289774D-06 0.000000000000D+00  7 -2 21 24 -11 11 -24 -2 2 0.12433525D-01 0.43657352D+00 0.22930749D+06 0.22930749D+06 0.22930749D+06 0.10932931D+01  1  2 12  4  7  2        2 0.938652718001D-06 0.100000000000D+01
-.138021534644D-05 0.000000000000D+00 -.413496175159D-06 0.227671289774D-06 0.000000000000D+00  7 -2 21 24 -11 11 -24 -2 2 0.12433525D-01 0.43633942D+00 0.17455469D+06 0.17455469D+06 0.17455469D+06 0.11023933D+01  1  2  5  4  7  2        2 -.177558606645D-05 0.100000000000D+01
  </mgrwgt>
  </event>
  <event>
  8     66 0.27011060E-05 0.21426805E+03 0.75467711E-02 0.99920265E-01
       -2 -1    0    0    0  501 0.00000000E+00 0.00000000E+00 0.10121825E+03 0.10121875E+03 0.32000000E+00 0.0000E+00 0.9000E+01
        2 -1    0    0  501    0 0.00000000E+00 0.00000000E+00 -.18538949E+04 0.18538950E+04 0.32000000E+00 0.0000E+00 0.9000E+01
       25  2    1    2    0    0 0.27846817E+02 0.10279301E+03 -.16061136E+03 0.35681553E+03 0.30029896E+03 0.0000E+00 0.0000E+00
       23  2    1    2    0    0 -.27846817E+02 -.10279301E+03 -.15920653E+04 0.15982982E+04 0.92429631E+02 0.0000E+00 0.0000E+00
       24  1    3    3    0    0 0.37593181E+02 0.16401058E+03 -.17318182E+03 0.25450319E+03 0.80419002E+02 0.0000E+00 0.9000E+01
      -11  1    4    4    0    0 0.28808516E+02 -.77095007E+01 -.39681622E+03 0.39793527E+03 0.51099893E-03 0.0000E+00 0.9000E+01
       11  1    4    4    0    0 -.56655334E+02 -.95083505E+02 -.11952491E+04 0.12003629E+04 0.51099893E-03 0.0000E+00 0.9000E+01
      -24  1    3    3    0    0 -.97463639E+01 -.61217570E+02 0.12570459E+02 0.10231234E+03 0.80419002E+02 0.0000E+00 0.9000E+01
#aMCatNLO 1  0  0  1  1 0.22257147D+03 0.00000000D+00  -5  7  0 0.00000000D+00 0.00000000D+00 0.00000000D+00 0.00000000D+00 0.00000000D+00
  <mgrwgt>
 0.5096482530D-03    7    2    0
 0.433184162926117D+03 0.000000000000000D+00 0.000000000000000D+00 0.433184162926117D+03
 0.433184162926117D+03 0.000000000000000D+00 0.000000000000000D+00 -.433184162926117D+03
 0.223982039925199D+03 0.375931813323390D+02 0.164010575933449D+03 0.124048466149224D+03
 0.952460574073367D+02 0.288085161550566D+02 -.770950074344610D+01 -.904568651174267D+02
 0.290824061660056D+03 -.566553335906979D+02 -.950835048186380D+02 -.268938534106928D+03
 0.256316166859643D+03 -.974636389669764D+01 -.612175703713646D+02 0.235346933075131D+03
 0.000000000000000D+00 0.000000000000000D+00 -.000000000000000D+00 0.000000000000000D+00
 0.661827386057077D+03 0.000000000000000D+00 0.000000000000000D+00 0.661827386057077D+03
 0.504966515092091D+03 0.000000000000000D+00 0.000000000000000D+00 -.504966515092091D+03
 0.273098365044905D+03 0.358079899805567D+02 0.226815490951141D+03 0.124048466149224D+03
 0.961488224668778D+02 0.281211495219916D+02 0.164727825353414D+02 -.904568651174267D+02
 0.276264002151828D+03 -.586919471789499D+02 -.234332902876607D+02 -.268938534106928D+03
 0.248989865279828D+03 -.115610963817431D+02 0.262663287852084D+01 0.235346933075131D+03
 0.272292846205728D+03 0.632390405814467D+01 -.222481616077342D+03 0.156860870964986D+03
0.224688004268D-04 0.000000000000D+00 0.000000000000D+00 0.230758540031D-05 0.000000000000D+00  7 -2 2 24 -11 11 -24 21 0 0.15572079D-01 0.28521465D+00 0.45910797D+05 0.45910797D+05 0.45910797D+05 0.11505691D+01  1  2  2  1  7  1       -2 0.741999169414D-03 0.100000000000D+01
-.496203743883D-06 0.000000000000D+00 -.862861098098D-07 0.230758540031D-05 0.000000000000D+00  7 -2 2 24 -11 11 -24 21 2 0.15572079D-01 0.28521465D+00 0.45910797D+05 0.45910797D+05 0.45910797D+05 0.11505691D+01  1  2  3  1  7  1       -2 -.216924678640D-04 0.100000000000D+01
0.134673208340D-05 0.000000000000D+00 0.000000000000D+00 0.230758540031D-05 0.000000000000D+00  7 -2 2 24 -11 11 -24 21 2 0.15572079D-01 0.28521465D+00 0.45910797D+05 0.45910797D+05 0.45910797D+05 0.11505691D+01  1  2 15  1  7  1       -2 0.588748932283D-04 0.100000000000D+01
-.135881191823D-04 0.000000000000D+00 0.000000000000D+00 0.230758540031D-05 0.000000000000D+00  7 -2 2 24 -11 11 -24 21 2 0.15572079D-01 0.28521465D+00 0.45910797D+05 0.45910797D+05 0.45910797D+05 0.11505691D+01  1  2  4  1  7  1       -2 -.594029856342D-03 0.100000000000D+01
-.517735934409D-05 0.000000000000D+00 -.746621142232D-05 0.230758540031D-05 0.000000000000D+00  7 -2 2 24 -11 11 -24 21 2 0.28079504D-01 0.28521465D+00 0.45910797D+05 0.45910797D+05 0.45910797D+05 0.11505691D+01  1  2  5  1  7  1       -2 -.855977075104D-04 0.100000000000D+01
0.908661788564D-05 0.000000000000D+00 0.633329139896D-05 0.230758540031D-05 0.000000000000D+00  7 -2 2 24 -11 11 -24 21 2 0.15572079D-01 0.28521465D+00 0.45910797D+05 0.45910797D+05 0.45910797D+05 0.11505691D+01  1  2  6  1  7  1       -2 0.397238370138D-03 0.100000000000D+01
0.633515981791D-07 0.000000000000D+00 -.482574968227D-06 0.230758540031D-05 0.000000000000D+00  7 21 2 24 -11 11 -24 2 2 0.28079504D-01 0.28521465D+00 0.45910797D+05 0.45910797D+05 0.45910797D+05 0.11505691D+01  1  2  5  3  7  1       -2 0.128558519025D-04 0.100000000000D+01
  </mgrwgt>
  </event>
  <event>
  8     66 0.27011060E-05 0.16245166E+03 0.75467711E-02 0.10583318E+00
       -2 -1    0    0    0  501 0.00000000E+00 0.00000000E+00 0.58496586E+03 0.58496595E+03 0.32000000E+00 0.0000E+00 0.9000E+01
        2 -1    0    0  501    0 0.00000000E+00 0.00000000E+00 -.15369925E+03 0.15369959E+03 0.32000000E+00 0.0000E+00 0.9000E+01
       25  2    1    2    0    0 -.93768330E+02 0.11300182E+03 0.45702088E+03 0.56592230E+03 0.29972995E+03 0.0000E+00 0.0000E+00
       23  2    1    2    0    0 0.93768330E+02 -.11300182E+03 -.25754276E+02 0.17274324E+03 0.87264155E+02 0.0000E+00 0.0000E+00
       24  1    3    3    0    0 -.68920468E+02 0.12355779E+03 0.45261040E+03 0.48097812E+03 0.80419002E+02 0.0000E+00 0.9000E+01
      -11  1    4    4    0    0 -.86818423E+01 -.92162584E+01 -.23728680E+02 0.26895428E+02 0.51099893E-03 0.0000E+00 0.9000E+01
       11  1    4    4    0    0 0.10245017E+03 -.10378557E+03 -.20255955E+01 0.14584781E+03 0.51099893E-03 0.0000E+00 0.9000E+01
      -24  1    3    3    0    0 -.24847863E+02 -.10555971E+02 0.44104814E+01 0.84944176E+02 0.80419002E+02 0.0000E+00 0.9000E+01
#aMCatNLO 1  0  0  2  1 0.74634526D+01 0.00000000D+00  -5  7  0 0.00000000D+00 0.00000000D+00 0.00000000D+00 0.00000000D+00 0.00000000D+00
  <mgrwgt>
 0.7536598965D-03   11    2    0
 0.299848248948367D+03 0.000000000000000D+00 0.000000000000000D+00 0.299848248948367D+03
 0.299848248948367D+03 0.000000000000000D+00 0.000000000000000D+00 -.299848248948367D+03
 0.266945378524995D+03 -.689204676150964D+02 0.123557794777973D+03 0.211603543578086D+03
 0.501922450573080D+02 -.868184234170704D+01 -.921625841926983D+01 -.485689989416690D+02
 0.181102149851703D+03 0.102450172650540D+03 -.103785565808747D+03 -.107380198987250D+03
 0.101456724462728D+03 -.248478626937368D+02 -.105559705499569D+02 -.556543456491673D+02
 0.000000000000000D+00 0.000000000000000D+00 -.000000000000000D+00 -.000000000000000D+00
 0.303186897957406D+03 0.000000000000000D+00 0.000000000000000D+00 0.303186897957406D+03
 0.304071765424930D+03 0.000000000000000D+00 0.000000000000000D+00 -.304071765424930D+03
 0.268680742586335D+03 -.698400271212464D+02 0.126761336531588D+03 0.211603543578086D+03
 0.501156951596767D+02 -.885405037326732D+01 -.861632375955336D+01 -.485689989416690D+02
 0.179522873065263D+03 0.101831053912845D+03 -.101628693182901D+03 -.107380198987250D+03
 0.101423628050238D+03 -.251961663880698D+02 -.934255758399701D+01 -.556543456491673D+02
 0.751572452082221D+01 0.205918996973814D+01 -.717376200513609D+01 -.884867467524817D+00
0.146960606973D-04 0.000000000000D+00 0.000000000000D+00 0.122690904822D-06 0.000000000000D+00  7 -2 2 24 -11 11 -24 21 0 0.89994780D-01 0.23646072D-01 0.41221834D+05 0.41221834D+05 0.41221834D+05 0.11547440D+01  1  2  2  2  7  2        2 0.458048094867D-03 0.100000000000D+01
-.665526896173D-06 0.000000000000D+00 -.564367426394D-07 0.122690904822D-06 0.000000000000D+00  7 -2 2 24 -11 11 -24 21 2 0.89994780D-01 0.23646072D-01 0.41221834D+05 0.41221834D+05 0.41221834D+05 0.11547440D+01  1  2  3  2  7  2        2 -.276596816828D-04 0.100000000000D+01
0.950926326972D-06 0.000000000000D+00 0.000000000000D+00 0.122690904822D-06 0.000000000000D+00  7 -2 2 24 -11 11 -24 21 2 0.89994780D-01 0.23646072D-01 0.41221834D+05 0.41221834D+05 0.41221834D+05 0.11547440D+01  1  2 15  2  7  2        2 0.395210466461D-04 0.100000000000D+01
0.117228034944D-04 0.000000000000D+00 0.000000000000D+00 0.122690904822D-06 0.000000000000D+00  7 -2 2 24 -11 11 -24 21 2 0.89994780D-01 0.24109126D-01 0.42858405D+05 0.42858405D+05 0.42858405D+05 0.11532298D+01  1  2 12  2  7  2        2 0.475086778140D-03 0.100000000000D+01
-.114106660616D-04 0.000000000000D+00 0.000000000000D+00 0.122690904822D-06 0.000000000000D+00  7 -2 2 24 -11 11 -24 21 2 0.89994780D-01 0.23646072D-01 0.41221834D+05 0.41221834D+05 0.41221834D+05 0.11547440D+01  1  2  4  2  7  2        2 -.474233863226D-03 0.100000000000D+01
-.598893379826D-03 0.000000000000D+00 -.847496288689D-04 0.122690904822D-06 0.000000000000D+00  7 -2 2 24 -11 11 -24 21 2 0.89994780D-01 0.24235477D-01 0.41221834D+05 0.41221834D+05 0.41221834D+05 0.11547440D+01  1  2  5  2  7  2        2 -.241969704403D-01 0.100000000000D+01
0.600823533149D-03 0.000000000000D+00 0.847239489168D-04 0.122690904822D-06 0.000000000000D+00  7 -2 2 24 -11 11 -24 21 2 0.89994780D-01 0.23646072D-01 0.41221834D+05 0.41221834D+05 0.41221834D+05 0.11547440D+01  1  2  6  2  7  2        2 0.249705725945D-01 0.100000000000D+01
0.174405851542D-05 0.000000000000D+00 0.000000000000D+00 0.122690904822D-06 0.156256887226D-07  7 -2 2 24 -11 11 -24 21 2 0.90996824D-01 0.23979139D-01 0.42858405D+05 0.42858405D+05 0.42858405D+05 0.11532298D+01  1  2 11  2  7  2        2 0.693377119340D-04 0.100000000000D+01
0.424296482735D-06 0.000000000000D+00 0.000000000000D+00 0.122690904822D-06 0.000000000000D+00  7 -2 21 24 -11 11 -24 -2 2 0.89994780D-01 0.24109126D-01 0.42858405D+05 0.42858405D+05 0.42858405D+05 0.11532298D+01  1  2 12  4  7  2        2 0.108024175282D-03 0.100000000000D+01
-.264670227428D-05 0.000000000000D+00 -.377178868730D-06 0.122690904822D-06 0.000000000000D+00  7 -2 21 24 -11 11 -24 -2 2 0.89994780D-01 0.24235477D-01 0.41221834D+05 0.41221834D+05 0.41221834D+05 0.11547440D+01  1  2  5  4  7  2        2 -.669979620426D-03 0.100000000000D+01
0.763017650178D-08 0.000000000000D+00 0.000000000000D+00 0.122690904822D-06 0.401101295098D-10  7 -2 21 24 -11 11 -24 -2 2 0.90996824D-01 0.23979139D-01 0.42858405D+05 0.42858405D+05 0.42858405D+05 0.11532298D+01  1  2 11  4  7  2        2 0.191310083006D-05 0.100000000000D+01
  </mgrwgt>
  </event>
  <event>
  8     66 0.27011060E-05 0.26396188E+03 0.75467711E-02 0.92352210E-01
       -2 -1    0    0    0  501 0.00000000E+00 0.00000000E+00 0.70566988E+02 0.70567713E+02 0.32000000E+00 0.0000E+00 0.9000E+01
        2 -1    0    0  501    0 0.00000000E+00 0.00000000E+00 -.13702865E+04 0.13702866E+04 0.32000000E+00 0.0000E+00 0.9000E+01
       25  2    1    2    0    0 0.78773660E+02 -.17911335E+03 -.10557214E+04 0.11150000E+04 0.30065004E+03 0.0000E+00 0.0000E+00
       23  2    1    2    0    0 -.78773660E+02 0.17911335E+03 -.24399812E+03 0.32585426E+03 0.91427755E+02 0.0000E+00 0.0000E+00
       24  1    3    3    0    0 -.13987528E+02 -.18298504E+03 -.39449455E+03 0.44246169E+03 0.80419002E+02 0.0000E+00 0.9000E+01
      -13  1    4    4    0    0 -.58931503E+02 0.60463308E+02 -.51623717E+02 0.98963392E+02 0.10565837E+00 0.0000E+00 0.9000E+01
       13  1    4    4    0    0 -.19842157E+02 0.11865004E+03 -.19237440E+03 0.22689087E+03 0.10565837E+00 0.0000E+00 0.9000E+01
      -24  1    3    3    0    0 0.92761188E+02 0.38716901E+01 -.66122686E+03 0.67253833E+03 0.80419002E+02 0.0000E+00 0.9000E+01
#aMCatNLO 1  0  0  1  1 0.49379851D+03 0.00000000D+00  -5  7  0 0.00000000D+00 0.00000000D+00 0.00000000D+00 0.00000000D+00 0.00000000D+00
  <mgrwgt>
 0.7306626861D-03    5    2    0
 0.310962283517742D+03 0.000000000000000D+00 0.000000000000000D+00 0.310962283517742D+03
 0.310962283517742D+03 0.000000000000000D+00 0.000000000000000D+00 -.310962283517742D+03
 0.200652199551887D+03 -.139875274732602D+02 -.182985035759114D+03 0.107198411397025D+02
 0.121390077527243D+03 -.589315549170455D+02 0.604632315488409D+02 0.872170877053376D+02
 0.123622555719100D+03 -.198421055949530D+02 0.118650114304485D+03 0.284776667515674D+02
 0.176259734237254D+03 0.927611879852586D+02 0.387168990578812D+01 -.126414595596607D+03
 0.000000000000000D+00 -.000000000000000D+00 -.000000000000000D+00 0.000000000000000D+00
 0.156999202246282D+04 0.000000000000000D+00 0.000000000000000D+00 0.156999202246282D+04
 0.449031859274233D+03 0.000000000000000D+00 0.000000000000000D+00 -.449031859274233D+03
 0.110662327656738D+03 -.108812199702797D+02 -.744689120770185D+02 0.107198411397025D+02
 0.201648402677744D+03 -.557082653911452D+02 0.173066019431299D+03 0.872170877053376D+02
 0.251567633612532D+03 -.160984444474458D+02 0.249431627634044D+03 0.284776667515674D+02
 0.230241988877192D+03 0.968172767383501D+02 0.145567587164417D+03 -.126414595596607D+03
 0.122490352891285D+04 -.141293469294794D+02 -.493596322152741D+03 0.112096016318859D+04
0.724682889409D-05 0.000000000000D+00 0.000000000000D+00 0.603862316935D-06 0.000000000000D+00  7 -2 2 24 -13 13 -24 21 0 0.10856518D-01 0.21081337D+00 0.69675873D+05 0.69675873D+05 0.69675873D+05 0.11348310D+01  1  2  2  1  7  1       -2 0.755514162332D-03 0.100000000000D+01
-.389457238490D-06 0.000000000000D+00 -.278297310872D-07 0.603862316935D-06 0.000000000000D+00  7 -2 2 24 -13 13 -24 21 2 0.10856518D-01 0.21081337D+00 0.69675873D+05 0.69675873D+05 0.69675873D+05 0.11348310D+01  1  2  3  1  7  1       -2 -.522897746568D-04 0.100000000000D+01
0.446532600643D-06 0.000000000000D+00 0.000000000000D+00 0.603862316935D-06 0.000000000000D+00  7 -2 2 24 -13 13 -24 21 2 0.10856518D-01 0.21081337D+00 0.69675873D+05 0.69675873D+05 0.69675873D+05 0.11348310D+01  1  2 15  1  7  1       -2 0.599528953553D-04 0.100000000000D+01
-.123862184325D-05 0.000000000000D+00 -.386342052452D-05 0.603862316935D-06 0.000000000000D+00  7 -2 2 24 -13 13 -24 21 2 0.77356080D-01 0.21081337D+00 0.69675873D+05 0.69675873D+05 0.69675873D+05 0.11348310D+01  1  2  5  1  7  1       -2 -.500682800426D-05 0.100000000000D+01
-.673970502350D-06 0.000000000000D+00 -.926678018149D-06 0.603862316935D-06 0.000000000000D+00  7 21 2 24 -13 13 -24 2 2 0.77356080D-01 0.21081337D+00 0.69675873D+05 0.69675873D+05 0.69675873D+05 0.11348310D+01  1  2  5  3  7  1       -2 -.275077689521D-04 0.100000000000D+01
  </mgrwgt>
  </event>
  <event>
  8     66 0.27011060E-05 0.73713633E+03 0.75467711E-02 0.88774154E-01
       -2 -1    0    0    0  501 0.00000000E+00 0.00000000E+00 0.39419259E+03 0.39419272E+03 0.32000000E+00 0.0000E+00 0.9000E+01
        2 -1    0    0  501    0 0.00000000E+00 0.00000000E+00 -.19909504E+04 0.19909504E+04 0.32000000E+00 0.0000E+00 0.9000E+01
       25  2    1    2    0    0 0.80478362E+02 -.72375009E+03 -.21428727E+03 0.82031602E+03 0.31097972E+03 0.0000E+00 0.0000E+00
       23  2    1    2    0    0 -.80478362E+02 0.72375009E+03 -.13824705E+04 0.15648271E+04 0.84665113E+02 0.0000E+00 0.0000E+00
       24  1    3    3    0    0 0.32331606E+02 -.32389495E+03 -.23444613E+03 0.40912770E+03 0.80419002E+02 0.0000E+00 0.9000E+01
      -11  1    4    4    0    0 -.57998650E+02 0.47634978E+03 -.99309348E+03 0.11029540E+04 0.51099893E-03 0.0000E+00 0.9000E+01
       11  1    4    4    0    0 -.22479712E+02 0.24740031E+03 -.38937703E+03 0.46187306E+03 0.51099893E-03 0.0000E+00 0.9000E+01
      -24  1    3    3    0    0 0.48146756E+02 -.39985513E+03 0.20158861E+02 0.41118832E+03 0.80419002E+02 0.0000E+00 0.9000E+01
#aMCatNLO 1  0  0  2  1 0.24213998D+03 0.00000000D+00  -5  7  0 0.00000000D+00 0.00000000D+00 0.00000000D+00 0.00000000D+00 0.00000000D+00
  <mgrwgt>
 0.1011468578D-02    4    2    0
 0.885899584909021D+03 0.000000000000000D+00 0.000000000000000D+00 0.885899584909021D+03
 0.885899584909021D+03 0.000000000000000D+00 0.000000000000000D+00 -.885899584909021D+03
 0.339471002820989D+03 0.323316063829285D+02 -.323894951609325D+03 0.531043628396905D+02
 0.589781007423357D+03 -.579986504096461D+02 0.476349776408675D+03 -.342882900978417D+03
 0.270850418501809D+03 -.224797116101760D+02 0.247400310153543D+03 -.107924502799223D+03
 0.571696741071888D+03 0.481467556368936D+02 -.399855134952892D+03 0.397703040937949D+03
 0.000000000000000D+00 -.000000000000000D+00 -.000000000000000D+00 0.000000000000000D+00
 0.102891888056993D+04 0.000000000000000D+00 0.000000000000000D+00 0.102891888056993D+04
 0.100288505109901D+04 0.000000000000000D+00 0.000000000000000D+00 -.100288505109901D+04
 0.325894056787368D+03 0.723652297133454D+02 -.302791876494206D+03 0.531043628396905D+02
 0.618608170813363D+03 0.147075978363256D+02 0.514675695734280D+03 -.342882900978417D+03
 0.286416647920606D+03 0.110498816701400D+02 0.265074891335813D+03 -.107924502799223D+03
 0.557349579266848D+03 0.116079110151631D+03 -.364045696265833D+03 0.397703040937949D+03
 0.243535476880760D+03 -.214201819371442D+03 -.112913014310054D+03 0.260338294709207D+02
0.100572578488D-02 0.000000000000D+00 0.000000000000D+00 0.180488029515D-08 0.000000000000D+00  7 -2 2 24 -11 11 -24 21 0 0.60645026D-01 0.30630007D+00 0.54336997D+06 0.54336997D+06 0.54336997D+06 0.10659666D+01  1  2  2  2  7  2        2 0.219162020838D-02 0.100000000000D+01
-.535779030631D-04 0.000000000000D+00 -.386225182761D-05 0.180488029515D-08 0.000000000000D+00  7 -2 2 24 -11 11 -24 21 2 0.60645026D-01 0.30630007D+00 0.54336997D+06 0.54336997D+06 0.54336997D+06 0.10659666D+01  1  2  3  2  7  2        2 -.132665679327D-03 0.100000000000D+01
0.580996889703D-04 0.000000000000D+00 0.000000000000D+00 0.180488029515D-08 0.000000000000D+00  7 -2 2 24 -11 11 -24 21 2 0.60645026D-01 0.30630007D+00 0.54336997D+06 0.54336997D+06 0.54336997D+06 0.10659666D+01  1  2 15  2  7  2        2 0.143862194399D-03 0.100000000000D+01
-.481133747413D-03 0.000000000000D+00 0.000000000000D+00 0.180488029515D-08 0.000000000000D+00  7 -2 2 24 -11 11 -24 21 2 0.60645026D-01 0.30630007D+00 0.54336997D+06 0.54336997D+06 0.54336997D+06 0.10659666D+01  1  2  4  2  7  2        2 -.119134814539D-02 0.100000000000D+01
  </mgrwgt>
  </event>
  <event>
  8     66 0.27011060E-05 0.21329092E+03 0.75467711E-02 0.10071989E+00
       -2 -1    0    0    0  501 0.00000000E+00 0.00000000E+00 0.72703754E+03 0.72703761E+03 0.32000000E+00 0.0000E+00 0.9000E+01
        2 -1    0    0  501    0 0.00000000E+00 0.00000000E+00 -.14794623E+03 0.14794658E+03 0.32000000E+00 0.0000E+00 0.9000E+01
       25  2    1    2    0    0 -.14936960E+03 -.19570258E+03 0.28797942E+03 0.48317396E+03 0.29985689E+03 0.0000E+00 0.0000E+00
       23  2    1    2    0    0 0.14936960E+03 0.19570258E+03 0.29111189E+03 0.39181023E+03 0.90323551E+02 0.0000E+00 0.0000E+00
       24  1    3    3    0    0 -.12793838E+03 -.22062224E+03 0.29232849E+03 0.39618880E+03 0.80419002E+02 0.0000E+00 0.9000E+01
      -11  1    4    4    0    0 0.88787972E+02 0.13252031E+03 0.12001116E+03 0.19961867E+03 0.51099893E-03 0.0000E+00 0.9000E+01
       11  1    4    4    0    0 0.60581628E+02 0.63182272E+02 0.17110074E+03 0.19219156E+03 0.51099893E-03 0.0000E+00 0.9000E+01
      -24  1    3    3    0    0 -.21431217E+02 0.24919666E+02 -.43490766E+01 0.86985155E+02 0.80419002E+02 0.0000E+00 0.9000E+01
#aMCatNLO 1  0  0  1  2 0.26633783D+01 0.00000000D+00  -5  7  0 0.00000000D+00 0.00000000D+00 0.00000000D+00 0.00000000D+00 0.00000000D+00
  <mgrwgt>
 0.6204800717D-03   11    2    0
 0.327967445913203D+03 0.000000000000000D+00 0.000000000000000D+00 0.327967445913203D+03
 0.327967445913203D+03 0.000000000000000D+00 0.000000000000000D+00 -.327967445913203D+03
 0.270414107518893D+03 -.127938383264295D+03 -.220622243828841D+03 0.401767246862472D+02
 0.160329572749889D+03 0.887879716276664D+02 0.132520305656340D+03 -.161442429725488D+02
 0.105317808403063D+03 0.605816283398554D+02 0.631822724060869D+02 0.585637048701572D+02
 0.119873403154562D+03 -.214312167032269D+02 0.249196657664137D+02 -.825961865838555D+02
 0.000000000000000D+00 0.000000000000000D+00 0.000000000000000D+00 0.000000000000000D+00
 0.337082068523047D+03 0.000000000000000D+00 0.000000000000000D+00 0.337082068523047D+03
 0.328164773277545D+03 0.000000000000000D+00 0.000000000000000D+00 -.328164773277545D+03
 0.271436009357815D+03 -.128647769795801D+03 -.221463029288813D+03 0.401767246862472D+02
 0.159687148674370D+03 0.883690078866530D+02 0.132023737697894D+03 -.161442429725488D+02
 0.104963969929538D+03 0.603063288488630D+02 0.628559794770788D+02 0.585637048701572D+02
 0.119853171073987D+03 -.217450651231224D+02 0.245476835305475D+02 -.825961865838555D+02
 0.930654276488219D+01 0.171749818340791D+01 0.203562858329234D+01 0.891729524550213D+01
0.182615883735D-04 0.000000000000D+00 0.000000000000D+00 0.124656460810D-05 0.000000000000D+00  7 -2 2 24 -11 11 -24 21 0 0.11185196D+00 0.22760991D-01 0.90401695D+05 0.90401695D+05 0.90401695D+05 0.11253361D+01  1  2  2  1  7  1       -2 0.351441370067D-03 0.100000000000D+01
-.100521648005D-05 0.000000000000D+00 -.701293077407D-07 0.124656460810D-05 0.000000000000D+00  7 -2 2 24 -11 11 -24 21 2 0.11185196D+00 0.22760991D-01 0.90401695D+05 0.90401695D+05 0.90401695D+05 0.11253361D+01  1  2  3  1  7  1       -2 -.244984403141D-04 0.100000000000D+01
0.114695722739D-05 0.000000000000D+00 0.000000000000D+00 0.124656460810D-05 0.000000000000D+00  7 -2 2 24 -11 11 -24 21 2 0.11185196D+00 0.22760991D-01 0.90401695D+05 0.90401695D+05 0.90401695D+05 0.11253361D+01  1  2 15  1  7  1       -2 0.279528477055D-04 0.100000000000D+01
0.170175731017D-05 0.000000000000D+00 0.000000000000D+00 0.124656460810D-05 0.000000000000D+00  7 -2 2 24 -11 11 -24 21 2 0.11499362D+00 0.22760991D-01 0.91184223D+05 0.91184223D+05 0.91184223D+05 0.11250260D+01  1  2 12  1  7  1       -2 0.386929384742D-04 0.100000000000D+01
-.178528956023D-02 0.000000000000D+00 0.000000000000D+00 0.124656460810D-05 0.000000000000D+00  7 -2 2 24 -11 11 -24 21 2 0.11185196D+00 0.22760991D-01 0.90401695D+05 0.90401695D+05 0.90401695D+05 0.11253361D+01  1  2  4  1  7  1       -2 -.435098415143D-01 0.100000000000D+01
-.223536009405D-02 0.000000000000D+00 -.757786939372D-04 0.124656460810D-05 0.000000000000D+00  7 -2 2 24 -11 11 -24 21 2 0.11499215D+00 0.22760991D-01 0.90401695D+05 0.90401695D+05 0.90401695D+05 0.11253361D+01  1  2  5  1  7  1       -2 -.508614596259D-01 0.100000000000D+01
0.223662990295D-02 0.000000000000D+00 0.757496570534D-04 0.124656460810D-05 0.000000000000D+00  7 -2 2 24 -11 11 -24 21 2 0.11185196D+00 0.22760991D-01 0.90401695D+05 0.90401695D+05 0.90401695D+05 0.11253361D+01  1  2  6  1  7  1       -2 0.545095959620D-01 0.100000000000D+01
0.178424378135D-02 0.000000000000D+00 0.000000000000D+00 0.124656460810D-05 0.118668594237D-05  7 -2 2 24 -11 11 -24 21 2 0.11496047D+00 0.22774685D-01 0.91184223D+05 0.91184223D+05 0.91184223D+05 0.11250260D+01  1  2 11  1  7  1       -2 0.405691179605D-01 0.100000000000D+01
0.667076993436D-07 0.000000000000D+00 0.000000000000D+00 0.124656460810D-05 0.000000000000D+00  7 21 2 24 -11 11 -24 2 2 0.11499362D+00 0.22760991D-01 0.91184223D+05 0.91184223D+05 0.91184223D+05 0.11250260D+01  1  2 12  3  7  1       -2 0.141843292846D-04 0.100000000000D+01
-.111532222576D-04 0.000000000000D+00 -.377560799777D-06 0.124656460810D-05 0.000000000000D+00  7 21 2 24 -11 11 -24 2 2 0.11499215D+00 0.22760991D-01 0.90401695D+05 0.90401695D+05 0.90401695D+05 0.11253361D+01  1  2  5  3  7  1       -2 -.237397453385D-02 0.100000000000D+01
0.883745716973D-05 0.000000000000D+00 0.000000000000D+00 0.124656460810D-05 0.585868145275D-08  7 21 2 24 -11 11 -24 2 2 0.11496047D+00 0.22774685D-01 0.91184223D+05 0.91184223D+05 0.91184223D+05 0.11250260D+01  1  2 11  3  7  1       -2 0.187926877796D-02 0.100000000000D+01
  </mgrwgt>
  </event>
  <event>
  7     66 0.27011060E-05 0.30525901E+03 0.75467711E-02 0.95922684E-01
       -2 -1    0    0    0  501 0.00000000E+00 0.00000000E+00 0.27346806E+03 0.27346825E+03 0.32000000E+00 0.0000E+00 0.9000E+01
        2 -1    0    0  501    0 0.00000000E+00 0.00000000E+00 -.97475881E+03 0.97475886E+03 0.32000000E+00 0.0000E+00 0.9000E+01
       23  2    1    2    0    0 0.37068600E+03 0.13042127E+03 -.39763605E+02 0.40522383E+03 0.90594636E+02 0.0000E+00 0.0000E+00
       24  1    1    2    0    0 -.27827076E+03 0.32258260E+02 -.51628424E+03 0.59286748E+03 0.80419002E+02 0.0000E+00 0.9000E+01
      -13  1    3    3    0    0 0.34396049E+03 0.13775796E+03 -.53377081E+02 0.37434636E+03 0.10565837E+00 0.0000E+00 0.9000E+01
       13  1    3    3    0    0 0.26725513E+02 -.73366935E+01 0.13613477E+02 0.30877468E+02 0.10565837E+00 0.0000E+00 0.9000E+01
      -24  1    1    2    0    0 -.92415245E+02 -.16267953E+03 -.14524290E+03 0.25013581E+03 0.80419002E+02 0.0000E+00 0.9000E+01
#aMCatNLO 1  0  0  2  1 0.24213998D+03 0.00000000D+00  -5  7  0 0.00000000D+00 0.00000000D+00 0.00000000D+00 0.00000000D+00 0.00000000D+00
  <mgrwgt>
 0.8163942256D-05    1    2    0
 0.516299865945741D+03 0.000000000000000D+00 0.000000000000000D+00 0.516299865945741D+03
 0.516299865945741D+03 0.000000000000000D+00 0.000000000000000D+00 -.516299865945741D+03
 0.366035115279963D+03 -.278270746273255D+03 0.322579047936392D+02 -.221448208415638D+03
 0.416266982902497D+03 0.343961105158666D+03 0.137758221876852D+03 0.189714605389529D+03
 0.465704174883444D+02 0.267251022275877D+02 -.733688350777061D+01 0.374264991197024D+02
 0.203727216220677D+03 -.924154611129989D+02 -.162679243162720D+03 -.569289609359346D+01
 0.000000000000000D+00 0.000000000000000D+00 0.000000000000000D+00 0.000000000000000D+00
 0.554808291311678D+03 0.000000000000000D+00 0.000000000000000D+00 0.554808291311678D+03
 0.548951573256877D+03 0.000000000000000D+00 0.000000000000000D+00 -.548951573256877D+03
 0.374275717657564D+03 -.290610861535420D+03 0.110052269790075D+02 -.221448208415638D+03
 0.397787737384360D+03 0.330391765590597D+03 0.114388521037695D+03 0.189714605389529D+03
 0.462029513321354D+02 0.251786787341459D+02 -.100002006302502D+02 0.374264991197024D+02
 0.216611657742436D+03 -.994220182550732D+02 -.174746237543791D+03 -.569289609359346D+01
 0.688818004520602D+02 0.344624354657499D+02 0.593526901573386D+02 0.585671805480057D+01
0.384353311926D-06 0.000000000000D+00 0.000000000000D+00 0.132633596723D-08 0.000000000000D+00  7 -2 2 24 -13 13 -24 21 2 0.42072028D-01 0.14996291D+00 0.19951069D+06 0.19951069D+06 0.19951069D+06 0.10979071D+01  1  2 14  2  7  2        2 0.816394225650D-05 0.100000000000D+01
  </mgrwgt>
  </event>
  <event>
  9     66 0.27011060E-05 0.34853198E+03 0.75467711E-02 0.95349925E-01
       -2 -1    0    0    0  502 0.00000000E+00 0.00000000E+00 0.89679972E+02 0.89680543E+02 0.32000000E+00 0.0000E+00 0.9000E+01
        2 -1    0    0  501    0 0.00000000E+00 0.00000000E+00 -.33327419E+04 0.33327419E+04 0.32000000E+00 0.0000E+00 0.9000E+01
       25  2    1    2    0    0 0.26409777E+03 -.28276875E+02 -.22540473E+04 0.22894249E+04 0.30031623E+03 0.0000E+00 0.0000E+00
       23  2    1    2    0    0 -.26362387E+03 -.18771469E+03 -.57431008E+03 0.66541549E+03 0.90616543E+02 0.0000E+00 0.0000E+00
       24  1    3    3    0    0 0.17260937E+03 -.13030331E+03 -.10579289E+04 0.10827991E+04 0.80419002E+02 0.0000E+00 0.9000E+01
      -11  1    4    4    0    0 -.24447343E+03 -.19475866E+03 -.55677527E+03 0.63851147E+03 0.51099893E-03 0.0000E+00 0.9000E+01
       11  1    4    4    0    0 -.19150441E+02 0.70439684E+01 -.17534807E+02 0.26904021E+02 0.51099893E-03 0.0000E+00 0.9000E+01
      -24  1    3    3    0    0 0.91488400E+02 0.10202643E+03 -.11961184E+04 0.12066259E+04 0.80419002E+02 0.0000E+00 0.9000E+01
       21  1    1    2  501  502 -.47390420E+00 0.21599157E+03 -.41470454E+03 0.46758208E+03 0.75000000E+00 0.0000E+00 0.9000E+01
#aMCatNLO 2  0  0  1  2 0.21599209D+03 0.00000000D+00  -5  7  0 0.00000000D+00 0.00000000D+00 0.00000000D+00 0.00000000D+00 0.00000000D+00
  <mgrwgt>
 0.6061378014D-04    2    2    0
 0.413770340514256D+03 0.000000000000000D+00 0.000000000000000D+00 0.413770340514256D+03
 0.413770340514256D+03 0.000000000000000D+00 0.000000000000000D+00 -.413770340514256D+03
 0.216389409210836D+03 0.172480177936975D+03 -.714195085879752D+02 -.742091805380279D+02
 0.326255440506988D+03 -.244668020585917D+03 -.106069247438478D+03 0.187961397395351D+03
 0.379835105766443D+02 -.191709838960895D+02 0.164067794754912D+02 0.283908090660433D+02
 0.246912320734043D+03 0.913588265450312D+02 0.161081976550962D+03 -.142143025923366D+03
 0.000000000000000D+00 -.000000000000000D+00 0.000000000000000D+00 0.000000000000000D+00
 0.606407217811423D+03 0.000000000000000D+00 0.000000000000000D+00 0.606407217811423D+03
 0.492871022458036D+03 0.000000000000000D+00 0.000000000000000D+00 -.492871022458036D+03
 0.242378148542142D+03 0.172609374093855D+03 -.130303309379111D+03 -.742091805380279D+02
 0.364729598286386D+03 -.244473428335518D+03 -.194758660380517D+03 0.187961397395351D+03
 0.349627648275836D+02 -.191504410780946D+02 0.704396844675069D+01 0.283908090660433D+02
 0.213193284055341D+03 0.914883995169922D+02 0.102026434550559D+03 -.142143025923366D+03
 0.244014444558005D+03 -.473904197233572D+00 0.215991566762319D+03 0.113536195353387D+03
-.114517838242D-04 0.000000000000D+00 0.000000000000D+00 0.291523000739D-05 0.000000000000D+00  7 -2 2 24 -11 11 -24 21 2 0.14360826D-01 0.43044132D+00 0.22023992D+06 0.22023992D+06 0.22023992D+06 0.10946244D+01  1  2 13  1  7  1       -2 -.144360775826D-03 0.100000000000D+01
0.335255099545D-04 0.000000000000D+00 0.000000000000D+00 0.291523000739D-05 0.429812886012D-09  7 -2 2 24 -11 11 -24 21 2 0.13796949D-01 0.51272901D+00 0.22023992D+06 0.22023992D+06 0.22023992D+06 0.10946244D+01  1  2  1  1  7  1       -2 0.204974555969D-03 0.100000000000D+01
  </mgrwgt>
  </event>
  <event>
  8     66 0.27011060E-05 0.19706857E+03 0.75467711E-02 0.10508483E+00
       -2 -1    0    0    0  501 0.00000000E+00 0.00000000E+00 0.28149859E+03 0.28149877E+03 0.32000000E+00 0.0000E+00 0.9000E+01
        2 -1    0    0  501    0 0.00000000E+00 0.00000000E+00 -.19391569E+03 0.19391595E+03 0.32000000E+00 0.0000E+00 0.9000E+01
       25  2    1    2    0    0 -.88969209E+02 0.39782228E+02 -.19991977E+01 0.31568121E+03 0.30025403E+03 0.0000E+00 0.0000E+00
       23  2    1    2    0    0 0.88969209E+02 -.39782228E+02 0.89582103E+02 0.15973352E+03 0.89396291E+02 0.0000E+00 0.0000E+00
       24  1    3    3    0    0 -.13593171E+03 0.56208112E+02 0.84311562E+02 0.18764977E+03 0.80419002E+02 0.0000E+00 0.9000E+01
      -11  1    4    4    0    0 -.13308157E+02 -.25361200E+02 0.24148156E+02 0.37462393E+02 0.51099893E-03 0.0000E+00 0.9000E+01
       11  1    4    4    0    0 0.10227737E+03 -.14421028E+02 0.65433948E+02 0.12227112E+03 0.51099893E-03 0.0000E+00 0.9000E+01
      -24  1    3    3    0    0 0.46962496E+02 -.16425884E+02 -.86310760E+02 0.12803144E+03 0.80419002E+02 0.0000E+00 0.9000E+01
#aMCatNLO 1  0  0  1  2 0.39637236D+02 0.00000000D+00  -5  7  0 0.00000000D+00 0.00000000D+00 0.00000000D+00 0.00000000D+00 0.00000000D+00
  <mgrwgt>
 0.3900524225D-03    4    2    0
 0.233638819871168D+03 0.000000000000000D+00 0.000000000000000D+00 0.233638819871168D+03
 0.233638819871168D+03 0.000000000000000D+00 0.000000000000000D+00 -.233638819871168D+03
 0.175114758977394D+03 -.135931705332764D+03 0.562081122348075D+02 0.506081264390022D+02
 0.335886128870921D+02 -.133081572527841D+02 -.253611998167890D+02 0.175470057293829D+02
 0.112135894883720D+03 0.102277366693896D+03 -.144210283270990D+02 0.436558486977880D+02
 0.146438372994131D+03 0.469624958916524D+02 -.164258840909195D+02 -.111810980866173D+03
 0.000000000000000D+00 -.000000000000000D+00 -.000000000000000D+00 -.000000000000000D+00
 0.244615324967445D+03 0.000000000000000D+00 0.000000000000000D+00 0.244615324967445D+03
 0.273223104417344D+03 0.000000000000000D+00 0.000000000000000D+00 -.273223104417344D+03
 0.171070092478646D+03 -.125665763976827D+03 0.666685374726073D+02 0.506081264390022D+02
 0.313831322562176D+02 -.113814521337451D+02 -.233979940907659D+02 0.175470057293829D+02
 0.117742401793577D+03 0.109094294421282D+03 -.747495681047471D+01 0.436558486977880D+02
 0.148760131624574D+03 0.557164622308202D+02 -.750607759191579D+01 -.111810980866173D+03
 0.488826712317740D+02 -.277635405415304D+02 -.282895089794509D+02 -.286077794498990D+02
0.550530815941D-05 0.000000000000D+00 0.000000000000D+00 0.128743513046D-06 0.000000000000D+00  7 -2 2 24 -11 11 -24 21 0 0.43307510D-01 0.29833217D-01 0.38836022D+05 0.38836022D+05 0.38836022D+05 0.11570746D+01  1  2  2  1  7  1       -2 0.596051050146D-03 0.100000000000D+01
-.295074997971D-06 0.000000000000D+00 -.211418329131D-07 0.128743513046D-06 0.000000000000D+00  7 -2 2 24 -11 11 -24 21 2 0.43307510D-01 0.29833217D-01 0.38836022D+05 0.38836022D+05 0.38836022D+05 0.11570746D+01  1  2  3  1  7  1       -2 -.427717426664D-04 0.100000000000D+01
0.362929926001D-06 0.000000000000D+00 0.000000000000D+00 0.128743513046D-06 0.000000000000D+00  7 -2 2 24 -11 11 -24 21 2 0.43307510D-01 0.29833217D-01 0.38836022D+05 0.38836022D+05 0.38836022D+05 0.11570746D+01  1  2 15  1  7  1       -2 0.526074574517D-04 0.100000000000D+01
-.148900451983D-05 0.000000000000D+00 0.000000000000D+00 0.128743513046D-06 0.000000000000D+00  7 -2 2 24 -11 11 -24 21 2 0.43307510D-01 0.29833217D-01 0.38836022D+05 0.38836022D+05 0.38836022D+05 0.11570746D+01  1  2  4  1  7  1       -2 -.215834342418D-03 0.100000000000D+01
  </mgrwgt>
  </event>
  <event>
  8     66 0.27011060E-05 0.68039174E+03 0.75467711E-02 0.88741960E-01
       -2 -1    0    0    0  501 0.00000000E+00 0.00000000E+00 0.87292221E+03 0.87292227E+03 0.32000000E+00 0.0000E+00 0.9000E+01
        2 -1    0    0  501    0 0.00000000E+00 0.00000000E+00 -.66845790E+03 0.66845798E+03 0.32000000E+00 0.0000E+00 0.9000E+01
       25  2    1    2    0    0 0.55412325E+03 -.36976847E+03 0.40976615E+03 0.83840093E+03 0.30203729E+03 0.0000E+00 0.0000E+00
       23  2    1    2    0    0 -.55412325E+03 0.36976847E+03 -.20530185E+03 0.70297932E+03 0.90828279E+02 0.0000E+00 0.0000E+00
       24  1    3    3    0    0 0.22387175E+03 -.10790458E+03 0.29544571E+03 0.39435687E+03 0.80419002E+02 0.0000E+00 0.9000E+01
      -13  1    4    4    0    0 -.16241999E+03 0.68199883E+02 -.77045031E+02 0.19226915E+03 0.10565837E+00 0.0000E+00 0.9000E+01
       13  1    4    4    0    0 -.39170326E+03 0.30156859E+03 -.12825682E+03 0.51071017E+03 0.10565837E+00 0.0000E+00 0.9000E+01
      -24  1    3    3    0    0 0.33025150E+03 -.26186389E+03 0.11432044E+03 0.44404406E+03 0.80419002E+02 0.0000E+00 0.9000E+01
#aMCatNLO 1  0  0  2  1 0.33939416D+03 0.00000000D+00  -5  7  0 0.00000000D+00 0.00000000D+00 0.00000000D+00 0.00000000D+00 0.00000000D+00
  <mgrwgt>
 0.7339042167D-03    4    2    0
 0.763879477277260D+03 0.000000000000000D+00 0.000000000000000D+00 0.763879477277260D+03
 0.763879477277260D+03 0.000000000000000D+00 0.000000000000000D+00 -.763879477277260D+03
 0.358332567840866D+03 0.223871748935166D+03 -.107904581562902D+03 0.245301966008230D+03
 0.204294103453038D+03 -.162419678687592D+03 0.681995669349171D+02 -.103463750901413D+03
 0.532429011661360D+03 -.391703571427626D+03 0.301568901865678D+03 -.197750251623266D+03
 0.432703271599257D+03 0.330251501180052D+03 -.261863887237693D+03 0.559120365164488D+02
 0.000000000000000D+00 -.000000000000000D+00 -.000000000000000D+00 0.000000000000000D+00
 0.105261112925093D+04 0.000000000000000D+00 0.000000000000000D+00 0.105261112925093D+04
 0.889114454414261D+03 0.000000000000000D+00 0.000000000000000D+00 -.889114454414261D+03
 0.346964725246911D+03 0.229781988936115D+03 -.307325177028163D+02 0.245301966008230D+03
 0.221625635963815D+03 -.158850562648490D+03 0.114802759165598D+03 -.103463750901413D+03
 0.605562456861871D+03 -.382167447067131D+03 0.426085401704531D+03 -.197750251623266D+03
 0.390850639142692D+03 0.337152706266060D+03 -.171752446835367D+03 0.559120365164488D+02
 0.376722126449898D+03 -.259166854865544D+02 -.338403196331946D+03 0.163496674836665D+03
0.452783815044D-03 0.000000000000D+00 0.000000000000D+00 0.600071392108D-06 0.000000000000D+00  7 -2 2 24 -13 13 -24 21 0 0.13429574D+00 0.10283969D+00 0.46293292D+06 0.46293292D+06 0.46293292D+06 0.10708827D+01  1  2  2  2  7  2        2 0.944378710384D-03 0.100000000000D+01
-.247449463259D-04 0.000000000000D+00 -.173880907048D-05 0.600071392108D-06 0.000000000000D+00  7 -2 2 24 -13 13 -24 21 2 0.13429574D+00 0.10283969D+00 0.46293292D+06 0.46293292D+06 0.46293292D+06 0.10708827D+01  1  2  3  2  7  2        2 -.591868983418D-04 0.100000000000D+01
0.295517189388D-04 0.000000000000D+00 0.000000000000D+00 0.600071392108D-06 0.000000000000D+00  7 -2 2 24 -13 13 -24 21 2 0.13429574D+00 0.10283969D+00 0.46293292D+06 0.46293292D+06 0.46293292D+06 0.10708827D+01  1  2 15  2  7  2        2 0.706841130960D-04 0.100000000000D+01
-.928022613928D-04 0.000000000000D+00 0.000000000000D+00 0.600071392108D-06 0.000000000000D+00  7 -2 2 24 -13 13 -24 21 2 0.13429574D+00 0.10283969D+00 0.46293292D+06 0.46293292D+06 0.46293292D+06 0.10708827D+01  1  2  4  2  7  2        2 -.221971708429D-03 0.100000000000D+01
  </mgrwgt>
  </event>
  <event>
  8     66 0.27011060E-05 0.22492054E+03 0.75467711E-02 0.82045628E-01
       -2 -1    0    0    0  501 0.00000000E+00 0.00000000E+00 0.83369317E+02 0.83369931E+02 0.32000000E+00 0.0000E+00 0.9000E+01
        2 -1    0    0  501    0 0.00000000E+00 0.00000000E+00 -.12678757E+04 0.12678757E+04 0.32000000E+00 0.0000E+00 0.9000E+01
       25  2    1    2    0    0 -.11723111E+03 0.10947276E+02 -.27098849E+03 0.42562054E+03 0.30635781E+03 0.0000E+00 0.0000E+00
       23  2    1    2    0    0 0.11723111E+03 -.10947276E+02 -.91351789E+03 0.92562513E+03 0.91673166E+02 0.0000E+00 0.0000E+00
       24  1    3    3    0    0 0.34399060E+02 -.92562658E+02 -.94864830E+02 0.15880080E+03 0.80419002E+02 0.0000E+00 0.9000E+01
      -11  1    4    4    0    0 0.87479339E+02 0.62332057E+01 -.83897060E+03 0.84354203E+03 0.51099893E-03 0.0000E+00 0.9000E+01
       11  1    4    4    0    0 0.29751772E+02 -.17180482E+02 -.74547287E+02 0.82083097E+02 0.51099893E-03 0.0000E+00 0.9000E+01
      -24  1    3    3    0    0 -.15163017E+03 0.10350993E+03 -.17612366E+03 0.26681974E+03 0.80419002E+02 0.0000E+00 0.9000E+01
#aMCatNLO 1  0  0  2  1 0.17708258D+04 0.00000000D+00  -5  7  0 0.00000000D+00 0.00000000D+00 0.00000000D+00 0.00000000D+00 0.00000000D+00
  <mgrwgt>
 0.1133909457D-02    3    2    0
 0.325119013343277D+03 0.000000000000000D+00 0.000000000000000D+00 0.325119013343277D+03
 0.325119013343277D+03 0.000000000000000D+00 0.000000000000000D+00 -.325119013343277D+03
 0.157189964213786D+03 0.343990600555239D+02 -.925626581761538D+02 0.921429751734873D+02
 0.224635409123342D+03 0.874793388222767D+02 0.623320571288576D+01 -.206808073966587D+03
 0.347760232149348D+02 0.297517715916786D+02 -.171804821529396D+02 -.538840521813245D+01
 0.233636630134490D+03 -.151630170469479D+03 0.103509934616208D+03 0.120053504011233D+03
 0.000000000000000D+00 -.000000000000000D+00 -.000000000000000D+00 0.000000000000000D+00
 0.594667140462783D+04 0.000000000000000D+00 0.000000000000000D+00 0.594667140462783D+04
 0.109989996471541D+04 0.000000000000000D+00 0.000000000000000D+00 -.109989996471541D+04
 0.374125595159534D+03 0.326203947046762D+03 0.136394288943476D+03 0.921429751734873D+02
 0.849607564782009D+03 0.677466483131236D+03 0.469150934040252D+03 -.206808073966587D+03
 0.135752964571341D+03 0.123408339956432D+03 0.563046544107214D+02 -.538840521813245D+01
 0.526947913430045D+03 0.266091996455031D+03 0.431264528000053D+03 0.120053504011233D+03
 0.516013733140031D+04 -.139317076658946D+04 -.109311440539450D+04 0.484677143991242D+04
0.121727409906D-04 0.000000000000D+00 0.000000000000D+00 0.178134820574D-07 0.000000000000D+00  7 -2 2 24 -11 11 -24 21 0 0.12826099D-01 0.19505785D+00 0.50589249D+05 0.50589249D+05 0.50589249D+05 0.11468481D+01  1  2  2  2  7  2        2 0.111715200512D-02 0.100000000000D+01
-.564643740785D-06 0.000000000000D+00 -.467465305602D-07 0.178134820574D-07 0.000000000000D+00  7 -2 2 24 -11 11 -24 21 2 0.12826099D-01 0.19505785D+00 0.50589249D+05 0.50589249D+05 0.50589249D+05 0.11468481D+01  1  2  3  2  7  2        2 -.681569588601D-04 0.100000000000D+01
0.703470213176D-06 0.000000000000D+00 0.000000000000D+00 0.178134820574D-07 0.000000000000D+00  7 -2 2 24 -11 11 -24 21 2 0.12826099D-01 0.19505785D+00 0.50589249D+05 0.50589249D+05 0.50589249D+05 0.11468481D+01  1  2 15  2  7  2        2 0.849144104778D-04 0.100000000000D+01
  </mgrwgt>
  </event>
  <event>
  8     66 0.27011060E-05 0.21621893E+03 0.75467711E-02 0.92505914E-01
       -2 -1    0    0    0  501 0.00000000E+00 0.00000000E+00 0.50261923E+03 0.50261933E+03 0.32000000E+00 0.0000E+00 0.9000E+01
        2 -1    0    0  501    0 0.00000000E+00 0.00000000E+00 -.14663840E+03 0.14663875E+03 0.32000000E+00 0.0000E+00 0.9000E+01
       25  2    1    2    0    0 -.12015480E+03 -.40966268E+02 0.36868016E+03 0.49248656E+03 0.30083640E+03 0.0000E+00 0.0000E+00
       23  2    1    2    0    0 0.12015480E+03 0.40966268E+02 -.12699332E+02 0.15677153E+03 0.91107771E+02 0.0000E+00 0.0000E+00
       24  1    3    3    0    0 -.16960882E+03 -.14074784E+02 0.34261938E+03 0.39092263E+03 0.80419002E+02 0.0000E+00 0.9000E+01
      -13  1    4    4    0    0 -.99225898E+01 0.48279301E+01 0.15329583E+02 0.18888462E+02 0.10565837E+00 0.0000E+00 0.9000E+01
       13  1    4    4    0    0 0.13007739E+03 0.36138338E+02 -.28028915E+02 0.13788306E+03 0.10565837E+00 0.0000E+00 0.9000E+01
      -24  1    3    3    0    0 0.49454014E+02 -.26891484E+02 0.26060786E+02 0.10156393E+03 0.80419002E+02 0.0000E+00 0.9000E+01
#aMCatNLO 1  0  0  2  1 0.53303382D+03 0.00000000D+00  -5  7  0 0.00000000D+00 0.00000000D+00 0.00000000D+00 0.00000000D+00 0.00000000D+00
  <mgrwgt>
 0.1095137367D-02    5    2    0
 0.271483752480062D+03 0.000000000000000D+00 0.000000000000000D+00 0.271483752480062D+03
 0.271483752480062D+03 0.000000000000000D+00 0.000000000000000D+00 -.271483752480062D+03
 0.242820699289654D+03 -.169608817816016D+03 -.140747853347004D+02 0.153393042169395D+03
 0.125354163867130D+02 -.992277768732393D+01 0.482788806934341D+01 0.594698610609707D+01
 0.183251440578576D+03 0.130077585622156D+03 0.361383810341876D+02 -.123915009619746D+03
 0.104359948705181D+03 0.494540098811840D+02 -.268914837688306D+02 -.354250186557456D+02
 0.000000000000000D+00 -.000000000000000D+00 -.000000000000000D+00 -.000000000000000D+00
 0.452137035001881D+03 0.000000000000000D+00 0.000000000000000D+00 0.452137035001881D+03
 0.137115595568286D+04 0.000000000000000D+00 0.000000000000000D+00 -.137115595568286D+04
 0.240057836607714D+03 -.646689209133134D+02 0.153130840278278D+03 0.153393042169395D+03
 0.164024401382038D+02 -.363395875138472D+01 0.148481561998277D+02 0.594698610609707D+01
 0.354728846217955D+03 0.246992278728568D+03 0.222424007199154D+03 -.123915009619746D+03
 0.149691130217786D+03 0.104664776250520D+03 0.610784018878705D+02 -.354250186557456D+02
 0.106241273750309D+04 -.283354175314389D+03 -.451481405565130D+03 -.919018920680982D+03
0.218767995419D-04 0.000000000000D+00 0.000000000000D+00 0.553645894882D-06 0.000000000000D+00  7 -2 2 24 -13 13 -24 21 0 0.77326070D-01 0.22559789D-01 0.46750624D+05 0.46750624D+05 0.46750624D+05 0.11498712D+01  1  2  2  2  7  2        2 0.101003903889D-02 0.100000000000D+01
-.113882184325D-05 0.000000000000D+00 -.840126705345D-07 0.553645894882D-06 0.000000000000D+00  7 -2 2 24 -13 13 -24 21 2 0.77326070D-01 0.22559789D-01 0.46750624D+05 0.46750624D+05 0.46750624D+05 0.11498712D+01  1  2  3  2  7  2        2 -.695198009401D-04 0.100000000000D+01
0.137475334715D-05 0.000000000000D+00 0.000000000000D+00 0.553645894882D-06 0.000000000000D+00  7 -2 2 24 -13 13 -24 21 2 0.77326070D-01 0.22559789D-01 0.46750624D+05 0.46750624D+05 0.46750624D+05 0.11498712D+01  1  2 15  2  7  2        2 0.839223269228D-04 0.100000000000D+01
0.105545524926D-04 0.000000000000D+00 -.132466590173D-04 0.553645894882D-06 0.000000000000D+00  7 -2 2 24 -13 13 -24 21 2 0.77326070D-01 0.16493283D+00 0.46750624D+05 0.46750624D+05 0.46750624D+05 0.11498712D+01  1  2  5  2  7  2        2 0.656066923421D-04 0.100000000000D+01
0.120399084440D-05 0.000000000000D+00 -.321528164301D-05 0.553645894882D-06 0.000000000000D+00  7 -2 21 24 -13 13 -24 -2 2 0.77326070D-01 0.16493283D+00 0.46750624D+05 0.46750624D+05 0.46750624D+05 0.11498712D+01  1  2  5  4  7  2        2 0.508911006999D-05 0.100000000000D+01
  </mgrwgt>
  </event>
  <event>
  9     66 0.27011060E-05 0.36732490E+03 0.75467711E-02 0.97516438E-01
       -2 -1    0    0    0  502 0.00000000E+00 0.00000000E+00 0.44348258E+03 0.44348270E+03 0.32000000E+00 0.0000E+00 0.9000E+01
        2 -1    0    0  501    0 0.00000000E+00 0.00000000E+00 -.41561933E+03 0.41561945E+03 0.32000000E+00 0.0000E+00 0.9000E+01
       25  2    1    2    0    0 -.33442037E+03 -.15188393E+03 0.12083788E+02 0.47411044E+03 0.29954796E+03 0.0000E+00 0.0000E+00
       23  2    1    2    0    0 0.29618370E+03 0.13334609E+03 0.31292558E+02 0.33974889E+03 0.94573354E+02 0.0000E+00 0.0000E+00
       24  1    3    3    0    0 -.22038561E+03 -.61723020E+02 -.11156994E+03 0.26701052E+03 0.80419002E+02 0.0000E+00 0.9000E+01
      -11  1    4    4    0    0 0.11215483E+02 0.20298843E+02 0.23589095E+02 0.33079835E+02 0.51099893E-03 0.0000E+00 0.9000E+01
       11  1    4    4    0    0 0.28496822E+03 0.11304724E+03 0.77034628E+01 0.30666905E+03 0.51099893E-03 0.0000E+00 0.9000E+01
      -24  1    3    3    0    0 -.11403476E+03 -.90160914E+02 0.12365373E+03 0.20709992E+03 0.80419002E+02 0.0000E+00 0.9000E+01
       21  1    1    2  501  502 0.38236668E+02 0.18537848E+02 -.15513091E+02 0.45242823E+02 0.75000000E+00 0.0000E+00 0.9000E+01
#aMCatNLO 2  0  0  1  1 0.42493465D+02 0.00000000D+00  -5  7  0 0.00000000D+00 0.00000000D+00 0.00000000D+00 0.00000000D+00 0.00000000D+00
  <mgrwgt>
 0.5905702601D-03    1    2    0
 0.405795454949627D+03 0.000000000000000D+00 0.000000000000000D+00 0.405795454949627D+03
 0.405795454949627D+03 0.000000000000000D+00 0.000000000000000D+00 -.405795454949627D+03
 0.261926880983776D+03 -.207785040591812D+03 -.556140285762036D+02 -.125979886328345D+03
 0.329036009552480D+02 0.127402357602978D+02 0.210380720548190D+02 0.218571011987059D+02
 0.323122407719358D+03 0.299794415159442D+03 0.120235259067574D+03 -.865340895351861D+01
 0.193638020240873D+03 -.104749610327927D+03 -.856593025461898D+02 0.112776194083157D+03
 0.000000000000000D+00 0.000000000000000D+00 0.000000000000000D+00 -.000000000000000D+00
 0.420440927557783D+03 0.000000000000000D+00 0.000000000000000D+00 0.420440927557783D+03
 0.438390713416740D+03 0.000000000000000D+00 0.000000000000000D+00 -.438390713416740D+03
 0.273345380956615D+03 -.220385612812356D+03 -.617230203568015D+02 -.125979886328345D+03
 0.318678987929907D+02 0.112154828103654D+02 0.202988434645973D+02 0.218571011987059D+02
 0.306694385371806D+03 0.284968218191402D+03 0.113047243013223D+03 -.865340895351861D+01
 0.200794924744581D+03 -.114034755781634D+03 -.901609137639620D+02 0.112776194083157D+03
 0.461290511085309D+02 0.382366675922221D+02 0.185378476429431D+02 -.179497858589565D+02
0.257295422873D-04 0.000000000000D+00 0.000000000000D+00 0.252746929118D-06 0.920973801477D-09  7 -2 2 24 -11 11 -24 21 2 0.68227620D-01 0.63940996D-01 0.15247983D+06 0.15247983D+06 0.15247983D+06 0.11069904D+01  1  2  1  1  7  1       -2 0.590570260087D-03 0.100000000000D+01
  </mgrwgt>
  </event>
  <event>
  8     66 0.27011060E-05 0.13236918E+03 0.75467711E-02 0.10417466E+00
       -2 -1    0    0    0  501 0.00000000E+00 0.00000000E+00 0.13838888E+03 0.13838925E+03 0.32000000E+00 0.0000E+00 0.9000E+01
        2 -1    0    0  501    0 0.00000000E+00 0.00000000E+00 -.47072555E+03 0.47072566E+03 0.32000000E+00 0.0000E+00 0.9000E+01
       25  2    1    2    0    0 -.11525228E+03 -.83185828E+02 -.15417124E+03 0.36277737E+03 0.29603324E+03 0.0000E+00 0.0000E+00
       23  2    1    2    0    0 0.11525228E+03 0.83185828E+02 -.17816543E+03 0.24633754E+03 0.93468112E+02 0.0000E+00 0.0000E+00
       24  1    3    3    0    0 -.75012437E+02 0.55588119E+02 0.17449620E+02 0.12445324E+03 0.80419002E+02 0.0000E+00 0.9000E+01
      -11  1    4    4    0    0 0.13436449E+01 0.24682422E+02 -.83525407E+02 0.87106377E+02 0.51099893E-03 0.0000E+00 0.9000E+01
       11  1    4    4    0    0 0.11390864E+03 0.58503406E+02 -.94640028E+02 0.15923116E+03 0.51099893E-03 0.0000E+00 0.9000E+01
      -24  1    3    3    0    0 -.40239848E+02 -.13877395E+03 -.17162086E+03 0.23832413E+03 0.80419002E+02 0.0000E+00 0.9000E+01
#aMCatNLO 1  0  0  2  1 0.25591496D+02 0.00000000D+00  -5  7  0 0.00000000D+00 0.00000000D+00 0.00000000D+00 0.00000000D+00 0.00000000D+00
  <mgrwgt>
 0.3704203805D-02    9    2    0
 0.255231905746578D+03 0.000000000000000D+00 0.000000000000000D+00 0.255231905746578D+03
 0.255231905746578D+03 0.000000000000000D+00 0.000000000000000D+00 -.255231905746578D+03
 0.159865347586666D+03 -.750124372326185D+02 0.555881186163540D+02 0.101846986866337D+03
 0.495612739299836D+02 0.134364500249907D+01 0.246824224037993D+02 -.429568680882412D+02
 0.128388571408523D+03 0.113908639886399D+03 0.585034059665764D+02 -.926274893658335D+01
 0.172648618567983D+03 -.402398476562792D+02 -.138773946986730D+03 -.496273698415122D+02
 0.000000000000000D+00 0.000000000000000D+00 0.000000000000000D+00 -.000000000000000D+00
 0.265416122583959D+03 0.000000000000000D+00 0.000000000000000D+00 0.265416122583959D+03
 0.272151873036157D+03 0.000000000000000D+00 0.000000000000000D+00 -.272151873036157D+03
 0.157935181017701D+03 -.763207625014624D+02 0.477350806657645D+02 0.101846986866337D+03
 0.483918481046502D+02 0.940390340579969D+00 0.222619431550870D+02 -.429568680882412D+02
 0.124718223226569D+03 0.112866646606553D+03 0.522489882267750D+02 -.926274893658335D+01
 0.180059656148382D+03 -.416918815794708D+02 -.147489575871925D+03 -.496273698415122D+02
 0.264630871228128D+02 0.420560713380041D+01 0.252435638242985D+02 -.673575045219752D+01
0.131461917060D-04 0.000000000000D+00 0.000000000000D+00 0.324108226465D-08 0.000000000000D+00  7 -2 2 24 -11 11 -24 21 0 0.21290633D-01 0.72419352D-01 0.48699457D+05 0.48699457D+05 0.48699457D+05 0.11483035D+01  1  2  2  2  7  2        2 0.187913626283D-02 0.100000000000D+01
-.711555054688D-06 0.000000000000D+00 -.504848376229D-07 0.324108226465D-08 0.000000000000D+00  7 -2 2 24 -11 11 -24 21 2 0.21290633D-01 0.72419352D-01 0.48699457D+05 0.48699457D+05 0.48699457D+05 0.11483035D+01  1  2  3  2  7  2        2 -.134115884017D-03 0.100000000000D+01
0.873221899536D-06 0.000000000000D+00 0.000000000000D+00 0.324108226465D-08 0.000000000000D+00  7 -2 2 24 -11 11 -24 21 2 0.21290633D-01 0.72419352D-01 0.48699457D+05 0.48699457D+05 0.48699457D+05 0.11483035D+01  1  2 15  2  7  2        2 0.164587302455D-03 0.100000000000D+01
0.304208562640D-04 0.000000000000D+00 0.000000000000D+00 0.324108226465D-08 0.000000000000D+00  7 -2 2 24 -11 11 -24 21 2 0.21290633D-01 0.78587674D-01 0.54298744D+05 0.54298744D+05 0.54298744D+05 0.11441580D+01  1  2 12  2  7  2        2 0.520585758969D-02 0.100000000000D+01
-.274543764733D-04 0.000000000000D+00 0.000000000000D+00 0.324108226465D-08 0.000000000000D+00  7 -2 2 24 -11 11 -24 21 2 0.21290633D-01 0.72419352D-01 0.48699457D+05 0.48699457D+05 0.48699457D+05 0.11483035D+01  1  2  4  2  7  2        2 -.517467755529D-02 0.100000000000D+01
-.960007642680D-04 0.000000000000D+00 -.191572310483D-04 0.324108226465D-08 0.000000000000D+00  7 -2 2 24 -11 11 -24 21 2 0.21290633D-01 0.79742191D-01 0.48699457D+05 0.48699457D+05 0.48699457D+05 0.11483035D+01  1  2  5  2  7  2        2 -.162743699381D-01 0.100000000000D+01
0.974820269071D-04 0.000000000000D+00 0.190686976433D-04 0.324108226465D-08 0.000000000000D+00  7 -2 2 24 -11 11 -24 21 2 0.21290633D-01 0.72419352D-01 0.48699457D+05 0.48699457D+05 0.48699457D+05 0.11483035D+01  1  2  6  2  7  2        2 0.183736846900D-01 0.100000000000D+01
0.414313169917D-06 0.000000000000D+00 0.000000000000D+00 0.324108226465D-08 0.000000000000D+00  7 -2 21 24 -11 11 -24 -2 2 0.21290633D-01 0.78587674D-01 0.54298744D+05 0.54298744D+05 0.54298744D+05 0.11441580D+01  1  2 12  4  7  2        2 0.138745287651D-03 0.100000000000D+01
-.145061360472D-05 0.000000000000D+00 -.301229882114D-06 0.324108226465D-08 0.000000000000D+00  7 -2 21 24 -11 11 -24 -2 2 0.21290633D-01 0.79742191D-01 0.48699457D+05 0.48699457D+05 0.48699457D+05 0.11483035D+01  1  2  5  4  7  2        2 -.474643949828D-03 0.100000000000D+01
  </mgrwgt>
  </event>
  <event>
  8     66 0.27011060E-05 0.12397288E+03 0.75467711E-02 0.10170329E+00
       -2 -1    0    0    0  501 0.00000000E+00 0.00000000E+00 0.97540512E+02 0.97541037E+02 0.32000000E+00 0.0000E+00 0.9000E+01
        2 -1    0    0  501    0 0.00000000E+00 0.00000000E+00 -.17778883E+04 0.17778883E+04 0.32000000E+00 0.0000E+00 0.9000E+01
       25  2    1    2    0    0 -.26583798E+02 0.10501092E+03 -.17612952E+03 0.36433556E+03 0.29997467E+03 0.0000E+00 0.0000E+00
       23  2    1    2    0    0 0.26583798E+02 -.10501092E+03 -.15042182E+04 0.15110938E+04 0.94857223E+02 0.0000E+00 0.0000E+00
       24  1    3    3    0    0 0.63121689E+02 0.14185976E+03 -.16055977E+03 0.23739249E+03 0.80419002E+02 0.0000E+00 0.9000E+01
      -13  1    4    4    0    0 0.31014527E+02 -.13149549E+02 -.14909588E+03 0.15285419E+03 0.10565837E+00 0.0000E+00 0.9000E+01
       13  1    4    4    0    0 -.44307289E+01 -.91861376E+02 -.13551224E+04 0.13582396E+04 0.10565837E+00 0.0000E+00 0.9000E+01
      -24  1    3    3    0    0 -.89705488E+02 -.36848833E+02 -.15569753E+02 0.12694307E+03 0.80419002E+02 0.0000E+00 0.9000E+01
#aMCatNLO 1  0  0  2  1 0.11525958D+03 0.00000000D+00  -5  7  0 0.00000000D+00 0.00000000D+00 0.00000000D+00 0.00000000D+00 0.00000000D+00
  <mgrwgt>
 0.9978280004D-03    9    2    0
 0.416433248782657D+03 0.000000000000000D+00 0.000000000000000D+00 0.416433248782657D+03
 0.416433248782657D+03 0.000000000000000D+00 0.000000000000000D+00 -.416433248782657D+03
 0.210617896181416D+03 0.631216892987583D+02 0.141859757440508D+03 0.117405893363606D+03
 0.433851249389078D+02 0.310145690238404D+02 -.131494510138222D+02 -.273396692054819D+02
 0.324428740743503D+03 -.443077070004857D+01 -.918614735505401D+02 -.311120307547646D+03
 0.254434735701488D+03 -.897054876225501D+02 -.368488328761456D+02 0.221054083389522D+03
 0.000000000000000D+00 -.000000000000000D+00 0.000000000000000D+00 -.000000000000000D+00
 0.456288460621126D+03 0.000000000000000D+00 0.000000000000000D+00 0.456288460621126D+03
 0.512949235524664D+03 0.000000000000000D+00 0.000000000000000D+00 -.512949235524664D+03
 0.212879851344888D+03 0.899063462210554D+02 0.130320068550182D+03 0.117405893363606D+03
 0.484604277565907D+02 0.368234585236243D+02 -.156521068372755D+02 -.273396692054819D+02
 0.331987563389934D+03 0.370851183622052D+02 -.109747849514716D+03 -.311120307547646D+03
 0.247476161245397D+03 -.579614907328152D+02 -.505251644157169D+02 0.221054083389522D+03
 0.128433692408980D+03 -.105853432374070D+03 0.456050522175268D+02 -.566607749035381D+02
0.247927977066D-04 0.000000000000D+00 0.000000000000D+00 0.771438056687D-06 0.000000000000D+00  7 -2 2 24 -13 13 -24 21 0 0.15006275D-01 0.27352131D+00 0.45475371D+05 0.45475371D+05 0.45475371D+05 0.11509365D+01  1  2  2  2  7  2        2 0.952194278093D-03 0.100000000000D+01
-.627261882881D-06 0.000000000000D+00 -.952108712869D-07 0.771438056687D-06 0.000000000000D+00  7 -2 2 24 -13 13 -24 21 2 0.15006275D-01 0.27352131D+00 0.45475371D+05 0.45475371D+05 0.45475371D+05 0.11509365D+01  1  2  3  2  7  2        2 -.319118255254D-04 0.100000000000D+01
0.149421863358D-05 0.000000000000D+00 0.000000000000D+00 0.771438056687D-06 0.000000000000D+00  7 -2 2 24 -13 13 -24 21 2 0.15006275D-01 0.27352131D+00 0.45475371D+05 0.45475371D+05 0.45475371D+05 0.11509365D+01  1  2 15  2  7  2        2 0.760180805386D-04 0.100000000000D+01
0.117261095949D-04 0.000000000000D+00 0.000000000000D+00 0.771438056687D-06 0.000000000000D+00  7 -2 2 24 -13 13 -24 21 2 0.15006275D-01 0.34766935D+00 0.78387809D+05 0.78387809D+05 0.78387809D+05 0.11305049D+01  1  2 12  2  7  2        2 0.312775395775D-03 0.100000000000D+01
-.217503065244D-04 0.000000000000D+00 0.000000000000D+00 0.771438056687D-06 0.000000000000D+00  7 -2 2 24 -13 13 -24 21 2 0.15006275D-01 0.27352131D+00 0.45475371D+05 0.45475371D+05 0.45475371D+05 0.11509365D+01  1  2  4  2  7  2        2 -.110654258751D-02 0.100000000000D+01
-.290769697597D-04 0.000000000000D+00 -.122051272838D-04 0.771438056687D-06 0.000000000000D+00  7 -2 2 24 -13 13 -24 21 2 0.15006275D-01 0.34994273D+00 0.45475371D+05 0.45475371D+05 0.45475371D+05 0.11509365D+01  1  2  5  2  7  2        2 -.804618829004D-03 0.100000000000D+01
0.314849798550D-04 0.000000000000D+00 0.118437981120D-04 0.771438056687D-06 0.000000000000D+00  7 -2 2 24 -13 13 -24 21 2 0.15006275D-01 0.27352131D+00 0.45475371D+05 0.45475371D+05 0.45475371D+05 0.11509365D+01  1  2  6  2  7  2        2 0.160179218796D-02 0.100000000000D+01
0.384887740943D-06 0.000000000000D+00 0.000000000000D+00 0.771438056687D-06 0.000000000000D+00  7 -2 21 24 -13 13 -24 -2 2 0.15006275D-01 0.34766935D+00 0.78387809D+05 0.78387809D+05 0.78387809D+05 0.11305049D+01  1  2 12  4  7  2        2 0.166916538266D-05 0.100000000000D+01
-.773826364835D-06 0.000000000000D+00 -.408647554707D-06 0.771438056687D-06 0.000000000000D+00  7 -2 21 24 -13 13 -24 -2 2 0.15006275D-01 0.34994273D+00 0.45475371D+05 0.45475371D+05 0.45475371D+05 0.11509365D+01  1  2  5  4  7  2        2 -.354786533519D-05 0.100000000000D+01
  </mgrwgt>
  </event>
  <event>
  7     66 0.27011060E-05 0.11097452E+03 0.75467711E-02 0.10237615E+00
       -2 -1    0    0    0  501 0.00000000E+00 0.00000000E+00 0.46729876E+02 0.46730972E+02 0.32000000E+00 0.0000E+00 0.9000E+01
        2 -1    0    0  501    0 0.00000000E+00 0.00000000E+00 -.19818753E+04 0.19818753E+04 0.32000000E+00 0.0000E+00 0.9000E+01
       25  2    1    2    0    0 -.11381623E+03 0.94662069E+02 -.68332991E+03 0.76092406E+03 0.30025091E+03 0.0000E+00 0.0000E+00
       24  1    3    3    0    0 -.11397346E+02 -.63148570E+02 -.38963139E+03 0.40298571E+03 0.80419002E+02 0.0000E+00 0.9000E+01
      -13  1    1    2    0    0 0.53391019E+01 -.90580405E+02 -.51949568E+03 0.52736049E+03 0.10565837E+00 0.0000E+00 0.9000E+01
       13  1    1    2    0    0 0.10847713E+03 -.40816633E+01 -.73231980E+03 0.74032172E+03 0.10565837E+00 0.0000E+00 0.9000E+01
      -24  1    3    3    0    0 -.10241888E+03 0.15781064E+03 -.29369852E+03 0.35793835E+03 0.80419002E+02 0.0000E+00 0.9000E+01
#aMCatNLO 1  0  0  2  1 0.25213198D+02 0.00000000D+00  -5  7  0 0.00000000D+00 0.00000000D+00 0.00000000D+00 0.00000000D+00 0.00000000D+00
  <mgrwgt>
 0.8860492138D-03    6    2    0
 0.304325358024497D+03 0.000000000000000D+00 0.000000000000000D+00 0.304325358024497D+03
 0.304325358024497D+03 0.000000000000000D+00 0.000000000000000D+00 -.304325358024497D+03
 0.104338813342365D+03 -.113974587968828D+02 -.631484757913510D+02 -.173706635890776D+02
 0.105983542980410D+03 0.533979393798298D+01 -.905799355323415D+02 -.547656211718368D+02
 0.139120707942365D+03 0.108476826726983D+03 -.408245839978917D+01 -.870096717327617D+02
 0.259207651783854D+03 -.102419161868083D+03 0.157810869723482D+03 0.159145956493676D+03
 0.000000000000000D+00 0.000000000000000D+00 0.000000000000000D+00 0.000000000000000D+00
 0.319865171407366D+03 0.000000000000000D+00 0.000000000000000D+00 0.319865171407366D+03
 0.314988105417481D+03 0.000000000000000D+00 0.000000000000000D+00 -.314988105417481D+03
 0.105418920348782D+03 -.156507230625421D+02 -.640253678414040D+02 -.173706635890776D+02
 0.106615458630170D+03 0.102891719197207D+01 -.914687055008234D+02 -.547656211718368D+02
 0.134873108439892D+03 0.102921045360914D+03 -.522788934586830D+01 -.870096717327617D+02
 0.262265229888345D+03 -.112993084145450D+03 0.155630852728591D+03 0.159145956493676D+03
 0.256805595176581D+02 0.246938446551063D+02 0.509110995950508D+01 0.487706598988427D+01
0.636764642801D-05 0.000000000000D+00 0.000000000000D+00 0.118891914731D-08 0.000000000000D+00  7 -2 2 24 -13 13 -24 21 0 0.71892980D-02 0.30490397D+00 0.64204853D+05 0.64204853D+05 0.64204853D+05 0.11378639D+01  1  2  2  2  7  2        2 0.587799505328D-03 0.100000000000D+01
-.339325497718D-06 0.000000000000D+00 -.244534389234D-07 0.118891914731D-08 0.000000000000D+00  7 -2 2 24 -13 13 -24 21 2 0.71892980D-02 0.30490397D+00 0.64204853D+05 0.64204853D+05 0.64204853D+05 0.11378639D+01  1  2  3  2  7  2        2 -.405552830908D-04 0.100000000000D+01
0.407327004673D-06 0.000000000000D+00 0.000000000000D+00 0.118891914731D-08 0.000000000000D+00  7 -2 2 24 -13 13 -24 21 2 0.71892980D-02 0.30490397D+00 0.64204853D+05 0.64204853D+05 0.64204853D+05 0.11378639D+01  1  2 15  2  7  2        2 0.486826427608D-04 0.100000000000D+01
0.116035095146D-04 0.000000000000D+00 0.000000000000D+00 0.118891914731D-08 0.000000000000D+00  7 -2 2 24 -13 13 -24 21 2 0.71892980D-02 0.32304905D+00 0.70803743D+05 0.70803743D+05 0.70803743D+05 0.11342384D+01  1  2 12  2  7  2        2 0.118941880388D-02 0.100000000000D+01
-.754465177542D-05 0.000000000000D+00 0.000000000000D+00 0.118891914731D-08 0.000000000000D+00  7 -2 2 24 -13 13 -24 21 2 0.71892980D-02 0.30490397D+00 0.64204853D+05 0.64204853D+05 0.64204853D+05 0.11378639D+01  1  2  4  2  7  2        2 -.901716760548D-03 0.100000000000D+01
0.122088145295D-06 0.000000000000D+00 0.000000000000D+00 0.118891914731D-08 0.000000000000D+00  7 -2 21 24 -13 13 -24 -2 2 0.71892980D-02 0.32304905D+00 0.70803743D+05 0.70803743D+05 0.70803743D+05 0.11342384D+01  1  2 12  4  7  2        2 0.242030549514D-05 0.100000000000D+01
  </mgrwgt>
  </event>
  <event>
  8     66 0.27011060E-05 0.45936628E+02 0.75467711E-02 0.10652867E+00
       -2 -1    0    0    0  501 0.00000000E+00 0.00000000E+00 0.27631977E+03 0.27631995E+03 0.32000000E+00 0.0000E+00 0.9000E+01
        2 -1    0    0  501    0 0.00000000E+00 0.00000000E+00 -.15677089E+03 0.15677122E+03 0.32000000E+00 0.0000E+00 0.9000E+01
       25  2    1    2    0    0 0.16657090E+02 0.68266784E+01 0.37780876E+02 0.30327191E+03 0.30037043E+03 0.0000E+00 0.0000E+00
       23  2    1    2    0    0 -.16657090E+02 -.68266784E+01 0.81768002E+02 0.12981926E+03 0.99211755E+02 0.0000E+00 0.0000E+00
       24  1    3    3    0    0 -.74933127E+02 -.51651357E+01 0.11445852E+03 0.15877538E+03 0.80419002E+02 0.0000E+00 0.9000E+01
      -11  1    4    4    0    0 0.40461671E+02 0.88805185E+01 0.29987760E+02 0.51139770E+02 0.51099893E-03 0.0000E+00 0.9000E+01
       11  1    4    4    0    0 -.57118761E+02 -.15707197E+02 0.51780243E+02 0.78679491E+02 0.51099893E-03 0.0000E+00 0.9000E+01
      -24  1    3    3    0    0 0.91590217E+02 0.11991814E+02 -.76677641E+02 0.14449653E+03 0.80419002E+02 0.0000E+00 0.9000E+01
#aMCatNLO 1  0  0  1  2 0.57992773D+02 0.00000000D+00  -5  7  0 0.00000000D+00 0.00000000D+00 0.00000000D+00 0.00000000D+00 0.00000000D+00
  <mgrwgt>
 0.1315807781D-02    9    2    0
 0.208132186734321D+03 0.000000000000000D+00 0.000000000000000D+00 0.208132186734321D+03
 0.208132186734321D+03 0.000000000000000D+00 0.000000000000000D+00 -.208132186734321D+03
 0.132321739158970D+03 -.749331261004867D+02 -.516513539248260D+01 0.734858808810914D+02
 0.445946877770338D+02 0.404616692111947D+02 0.888051805117080D+01 0.165129010690981D+02
 0.669889748702611D+02 -.571187605670836D+02 -.157071970030880D+02 0.312770508161310D+02
 0.172358971662376D+03 0.915902174563756D+02 0.119918143443998D+02 -.121275832766320D+03
 0.000000000000000D+00 0.000000000000000D+00 -.000000000000000D+00 0.000000000000000D+00
 0.246954602306338D+03 0.000000000000000D+00 0.000000000000000D+00 0.246954602306338D+03
 0.232982274645061D+03 0.000000000000000D+00 0.000000000000000D+00 -.232982274645061D+03
 0.140312653726794D+03 -.880260759830647D+02 0.846522885919005D+01 0.734858808810914D+02
 0.420126186895711D+02 0.363024539668163D+02 0.132104528092213D+02 0.165129010690981D+02
 0.715704231698170D+02 -.637729146343551D+02 -.877991594442086D+01 0.312770508161310D+02
 0.166388958407682D+03 0.753222417828417D+02 0.289275267740847D+02 -.121275832766320D+03
 0.596522229575353D+02 0.401742948677618D+02 -.418232924980752D+02 0.139723276612770D+02
0.649632858783D-05 0.000000000000D+00 0.000000000000D+00 0.614795895109D-08 0.000000000000D+00  7 -2 2 24 -11 11 -24 21 0 0.42510773D-01 0.24118638D-01 0.27751855D+05 0.27751855D+05 0.27751855D+05 0.11704877D+01  1  2  2  1  7  1       -2 0.923034203787D-03 0.100000000000D+01
-.339155073429D-06 0.000000000000D+00 -.249476122999D-07 0.614795895109D-08 0.000000000000D+00  7 -2 2 24 -11 11 -24 21 2 0.42510773D-01 0.24118638D-01 0.27751855D+05 0.27751855D+05 0.27751855D+05 0.11704877D+01  1  2  3  1  7  1       -2 -.660209624410D-04 0.100000000000D+01
0.382784312016D-06 0.000000000000D+00 0.000000000000D+00 0.614795895109D-08 0.000000000000D+00  7 -2 2 24 -11 11 -24 21 2 0.42510773D-01 0.24118638D-01 0.27751855D+05 0.27751855D+05 0.27751855D+05 0.11704877D+01  1  2 15  1  7  1       -2 0.745139632768D-04 0.100000000000D+01
0.439238664477D-05 0.000000000000D+00 0.000000000000D+00 0.614795895109D-08 0.000000000000D+00  7 -2 2 24 -11 11 -24 21 2 0.52586941D-01 0.24118638D-01 0.38897200D+05 0.38897200D+05 0.38897200D+05 0.11570129D+01  1  2 12  1  7  1       -2 0.558233583424D-03 0.100000000000D+01
-.455591866853D-05 0.000000000000D+00 0.000000000000D+00 0.614795895109D-08 0.000000000000D+00  7 -2 2 24 -11 11 -24 21 2 0.42510773D-01 0.24118638D-01 0.27751855D+05 0.27751855D+05 0.27751855D+05 0.11704877D+01  1  2  4  1  7  1       -2 -.886869042702D-03 0.100000000000D+01
-.933654182434D-05 0.000000000000D+00 -.346725531238D-05 0.614795895109D-08 0.000000000000D+00  7 -2 2 24 -11 11 -24 21 2 0.55733122D-01 0.24118638D-01 0.27751855D+05 0.27751855D+05 0.27751855D+05 0.11704877D+01  1  2  5  1  7  1       -2 -.108105455564D-02 0.100000000000D+01
0.100288863627D-04 0.000000000000D+00 0.334388075254D-05 0.614795895109D-08 0.000000000000D+00  7 -2 2 24 -11 11 -24 21 2 0.42510773D-01 0.24118638D-01 0.27751855D+05 0.27751855D+05 0.27751855D+05 0.11704877D+01  1  2  6  1  7  1       -2 0.195225364959D-02 0.100000000000D+01
0.131742885964D-06 0.000000000000D+00 0.000000000000D+00 0.614795895109D-08 0.000000000000D+00  7 21 2 24 -11 11 -24 2 2 0.52586941D-01 0.24118638D-01 0.38897200D+05 0.38897200D+05 0.38897200D+05 0.11570129D+01  1  2 12  3  7  1       -2 0.184042980341D-03 0.100000000000D+01
-.268921060872D-06 0.000000000000D+00 -.124433626979D-06 0.614795895109D-08 0.000000000000D+00  7 21 2 24 -11 11 -24 2 2 0.55733122D-01 0.24118638D-01 0.27751855D+05 0.27751855D+05 0.27751855D+05 0.11704877D+01  1  2  5  3  7  1       -2 -.342326038810D-03 0.100000000000D+01
  </mgrwgt>
  </event>
  <event>
  8     66 0.27011060E-05 0.98976216E+03 0.75467711E-02 0.82420697E-01
       -2 -1    0    0    0  501 0.00000000E+00 0.00000000E+00 0.90629146E+03 0.90629152E+03 0.32000000E+00 0.0000E+00 0.9000E+01
        2 -1    0    0  501    0 0.00000000E+00 0.00000000E+00 -.19229509E+04 0.19229509E+04 0.32000000E+00 0.0000E+00 0.9000E+01
       25  2    1    2    0    0 -.25673069E+03 0.12701882E+04 -.64446810E+03 0.14780046E+04 0.29978266E+03 0.0000E+00 0.0000E+00
       23  2    1    2    0    0 0.25673069E+03 -.12701882E+04 -.37219133E+03 0.13512379E+04 0.89602459E+02 0.0000E+00 0.0000E+00
       24  1    3    3    0    0 0.14233800E+02 0.16691465E+03 -.13854393E+03 0.23178597E+03 0.80419002E+02 0.0000E+00 0.9000E+01
      -13  1    4    4    0    0 0.78870597E+02 -.21817457E+03 -.62843780E+02 0.24035404E+03 0.10565837E+00 0.0000E+00 0.9000E+01
       13  1    4    4    0    0 0.17786009E+03 -.10520136E+04 -.30934755E+03 0.11108838E+04 0.10565837E+00 0.0000E+00 0.9000E+01
      -24  1    3    3    0    0 -.27096449E+03 0.11032736E+04 -.50592416E+03 0.12462186E+04 0.80419002E+02 0.0000E+00 0.9000E+01
#aMCatNLO 1  0  0  1  2 0.72989193D+03 0.00000000D+00  -5  7  0 0.00000000D+00 0.00000000D+00 0.00000000D+00 0.00000000D+00 0.00000000D+00
  <mgrwgt>
 0.5756888136D-03    9    2    0
 0.132013411507942D+04 0.000000000000000D+00 0.000000000000000D+00 0.132013411507942D+04
 0.132013411507942D+04 0.000000000000000D+00 0.000000000000000D+00 -.132013411507942D+04
 0.195028182509512D+03 0.142337999367039D+02 0.166914646136640D+03 -.592087481968256D+02
 0.233357374232871D+03 0.788704592021085D+02 -.218173411889467D+03 0.252086714964882D+02
 0.107127811852299D+04 0.177860229535875D+03 -.105201480454513D+04 0.962673204855683D+02
 0.114060455489347D+04 -.270964488674688D+03 0.110327357029796D+04 -.622672437852308D+02
 0.000000000000000D+00 -.000000000000000D+00 0.000000000000000D+00 0.000000000000000D+00
 0.225182722744721D+04 0.000000000000000D+00 0.000000000000000D+00 0.225182722744721D+04
 0.152062306491046D+04 0.000000000000000D+00 0.000000000000000D+00 -.152062306491046D+04
 0.156268948870877D+03 0.149936499439981D+02 0.119257213723782D+03 -.592087481968256D+02
 0.302763219432737D+03 0.800300793658334D+02 -.290904239087979D+03 0.252086714964882D+02
 0.140303172807344D+04 0.183212121672304D+03 -.138768294342030D+04 0.962673204855683D+02
 0.877235021630393D+03 -.266599934341678D+03 0.829530790616545D+03 -.622672437852308D+02
 0.103315137435022D+04 -.116359166404572D+02 0.729799178167948D+03 0.731204162536754D+03
0.173453463321D-02 0.000000000000D+00 0.000000000000D+00 0.661467883695D-05 0.000000000000D+00  7 -2 2 24 -13 13 -24 21 0 0.13942946D+00 0.29583860D+00 0.17209015D+07 0.17209015D+07 0.17209015D+07 0.10325219D+01  1  2  2  1  7  1       -2 0.525763999011D-03 0.100000000000D+01
-.963583714030D-04 0.000000000000D+00 -.666106970499D-05 0.661467883695D-05 0.000000000000D+00  7 -2 2 24 -13 13 -24 21 2 0.13942946D+00 0.29583860D+00 0.17209015D+07 0.17209015D+07 0.17209015D+07 0.10325219D+01  1  2  3  1  7  1       -2 -.311383705746D-04 0.100000000000D+01
0.105212703435D-03 0.000000000000D+00 0.000000000000D+00 0.661467883695D-05 0.000000000000D+00  7 -2 2 24 -13 13 -24 21 2 0.13942946D+00 0.29583860D+00 0.17209015D+07 0.17209015D+07 0.17209015D+07 0.10325219D+01  1  2 15  1  7  1       -2 0.339996629356D-04 0.100000000000D+01
0.610615448488D-03 0.000000000000D+00 0.000000000000D+00 0.661467883695D-05 0.000000000000D+00  7 -2 2 24 -13 13 -24 21 2 0.24211089D+00 0.29583860D+00 0.29772971D+07 0.29772971D+07 0.29772971D+07 0.10177077D+01  1  2 12  1  7  1       -2 0.329368575628D-04 0.100000000000D+01
-.116101442908D-02 0.000000000000D+00 0.000000000000D+00 0.661467883695D-05 0.000000000000D+00  7 -2 2 24 -13 13 -24 21 2 0.13942946D+00 0.29583860D+00 0.17209015D+07 0.17209015D+07 0.17209015D+07 0.10325219D+01  1  2  4  1  7  1       -2 -.375183774992D-03 0.100000000000D+01
-.130398929418D-02 0.000000000000D+00 -.500470147147D-03 0.661467883695D-05 0.000000000000D+00  7 -2 2 24 -13 13 -24 21 2 0.25385630D+00 0.29583860D+00 0.17209015D+07 0.17209015D+07 0.17209015D+07 0.10325219D+01  1  2  5  1  7  1       -2 -.634878094764D-04 0.100000000000D+01
0.141945003014D-02 0.000000000000D+00 0.422351099771D-03 0.661467883695D-05 0.000000000000D+00  7 -2 2 24 -13 13 -24 21 2 0.13942946D+00 0.29583860D+00 0.17209015D+07 0.17209015D+07 0.17209015D+07 0.10325219D+01  1  2  6  1  7  1       -2 0.458697676259D-03 0.100000000000D+01
0.373033706552D-04 0.000000000000D+00 0.000000000000D+00 0.661467883695D-05 0.000000000000D+00  7 21 2 24 -13 13 -24 2 2 0.24211089D+00 0.29583860D+00 0.29772971D+07 0.29772971D+07 0.29772971D+07 0.10177077D+01  1  2 12  3  7  1       -2 0.139712141701D-04 0.100000000000D+01
-.584298033775D-04 0.000000000000D+00 -.328103481412D-04 0.661467883695D-05 0.000000000000D+00  7 21 2 24 -13 13 -24 2 2 0.25385630D+00 0.29583860D+00 0.17209015D+07 0.17209015D+07 0.17209015D+07 0.10325219D+01  1  2  5  3  7  1       -2 -.198706412624D-04 0.100000000000D+01
  </mgrwgt>
  </event>
  <event>
  8     66 0.27011060E-05 0.68907849E+02 0.75467711E-02 0.10581995E+00
       -2 -1    0    0    0  501 0.00000000E+00 0.00000000E+00 0.68680289E+02 0.68681034E+02 0.32000000E+00 0.0000E+00 0.9000E+01
        2 -1    0    0  501    0 0.00000000E+00 0.00000000E+00 -.16823722E+04 0.16823722E+04 0.32000000E+00 0.0000E+00 0.9000E+01
       25  2    1    2    0    0 -.77049092E+02 0.26315376E+02 -.29803197E+03 0.43017872E+03 0.29933528E+03 0.0000E+00 0.0000E+00
       23  2    1    2    0    0 0.77049092E+02 -.26315376E+02 -.13156599E+04 0.13208745E+04 0.84376749E+02 0.0000E+00 0.0000E+00
       24  1    3    3    0    0 -.20244529E+02 0.97961185E+02 -.24360272E+02 0.13064024E+03 0.80419002E+02 0.0000E+00 0.9000E+01
      -13  1    4    4    0    0 0.31726069E+02 0.70104129E+00 -.10232638E+04 0.10237557E+04 0.10565837E+00 0.0000E+00 0.9000E+01
       13  1    4    4    0    0 0.45323023E+02 -.27016417E+02 -.29239619E+03 0.29711884E+03 0.10565837E+00 0.0000E+00 0.9000E+01
      -24  1    3    3    0    0 -.56804562E+02 -.71645809E+02 -.27367170E+03 0.29953847E+03 0.80419002E+02 0.0000E+00 0.9000E+01
#aMCatNLO 1  0  0  2  1 0.67224754D+02 0.00000000D+00  -5  7  0 0.00000000D+00 0.00000000D+00 0.00000000D+00 0.00000000D+00 0.00000000D+00
  <mgrwgt>
 0.1122087796D-02    9    2    0
 0.339921296619559D+03 0.000000000000000D+00 0.000000000000000D+00 0.339921296619559D+03
 0.339921296619559D+03 0.000000000000000D+00 0.000000000000000D+00 -.339921296619559D+03
 0.278664584861928D+03 -.202445295844856D+02 0.979611851924745D+02 0.247346922599592D+03
 0.208016509104251D+03 0.317260477496627D+02 0.701084407719406D+00 -.205581697713484D+03
 0.712420876853239D+02 0.453230440606259D+02 -.270164603321042D+02 -.478682316987559D+02
 0.121919411587615D+03 -.568045622258030D+02 -.716458092680897D+02 0.610300681264773D+01
 0.000000000000000D+00 -.000000000000000D+00 0.000000000000000D+00 -.000000000000000D+00
 0.353160518716846D+03 0.000000000000000D+00 0.000000000000000D+00 0.353160518716846D+03
 0.439131189140070D+03 0.000000000000000D+00 0.000000000000000D+00 -.439131189140070D+03
 0.272944999023020D+03 0.230517441912714D+01 0.827402114374558D+02 0.247346922599592D+03
 0.211592458914788D+03 0.488795894982489D+02 -.108774981190853D+02 -.205581697713484D+03
 0.767987751085378D+02 0.513749288247189D+02 -.311014620309247D+02 -.478682316987559D+02
 0.121821961727666D+03 -.468404572097451D+02 -.783715463738792D+02 0.610300681264773D+01
 0.109133513082905D+03 -.557192355323499D+02 0.376102950864334D+02 -.859706704232240D+02
0.165679355750D-04 0.000000000000D+00 0.000000000000D+00 0.299530722847D-07 0.000000000000D+00  7 -2 2 24 -13 13 -24 21 0 0.10566258D-01 0.25882655D+00 0.27991559D+05 0.27991559D+05 0.27991559D+05 0.11701384D+01  1  2  2  2  7  2        2 0.124240442678D-02 0.100000000000D+01
-.358062077750D-06 0.000000000000D+00 -.636252350456D-07 0.299530722847D-07 0.000000000000D+00  7 -2 2 24 -13 13 -24 21 2 0.10566258D-01 0.25882655D+00 0.27991559D+05 0.27991559D+05 0.27991559D+05 0.11701384D+01  1  2  3  2  7  2        2 -.367643941315D-04 0.100000000000D+01
0.982988992763D-06 0.000000000000D+00 0.000000000000D+00 0.299530722847D-07 0.000000000000D+00  7 -2 2 24 -13 13 -24 21 2 0.10566258D-01 0.25882655D+00 0.27991559D+05 0.27991559D+05 0.27991559D+05 0.11701384D+01  1  2 15  2  7  2        2 0.100929411413D-03 0.100000000000D+01
0.251836653435D-04 0.000000000000D+00 0.000000000000D+00 0.299530722847D-07 0.000000000000D+00  7 -2 2 24 -13 13 -24 21 2 0.10566258D-01 0.33834702D+00 0.42938138D+05 0.42938138D+05 0.42938138D+05 0.11531577D+01  1  2 12  2  7  2        2 0.132976911816D-02 0.100000000000D+01
-.315572951201D-04 0.000000000000D+00 0.000000000000D+00 0.299530722847D-07 0.000000000000D+00  7 -2 2 24 -13 13 -24 21 2 0.10566258D-01 0.25882655D+00 0.27991559D+05 0.27991559D+05 0.27991559D+05 0.11701384D+01  1  2  4  2  7  2        2 -.324017791219D-02 0.100000000000D+01
-.337856466638D-04 0.000000000000D+00 -.774767754013D-05 0.299530722847D-07 0.000000000000D+00  7 -2 2 24 -13 13 -24 21 2 0.10566258D-01 0.33872942D+00 0.27991559D+05 0.27991559D+05 0.27991559D+05 0.11701384D+01  1  2  5  2  7  2        2 -.185244607722D-02 0.100000000000D+01
0.348725532040D-04 0.000000000000D+00 0.747548735177D-05 0.299530722847D-07 0.000000000000D+00  7 -2 2 24 -13 13 -24 21 2 0.10566258D-01 0.25882655D+00 0.27991559D+05 0.27991559D+05 0.27991559D+05 0.11701384D+01  1  2  6  2  7  2        2 0.358057546450D-02 0.100000000000D+01
0.896712449813D-06 0.000000000000D+00 0.000000000000D+00 0.299530722847D-07 0.000000000000D+00  7 -2 21 24 -13 13 -24 -2 2 0.10566258D-01 0.33834702D+00 0.42938138D+05 0.42938138D+05 0.42938138D+05 0.11531577D+01  1  2 12  4  7  2        2 0.851599660399D-05 0.100000000000D+01
-.106043932910D-05 0.000000000000D+00 -.276719934798D-06 0.299530722847D-07 0.000000000000D+00  7 -2 21 24 -13 13 -24 -2 2 0.10566258D-01 0.33872942D+00 0.27991559D+05 0.27991559D+05 0.27991559D+05 0.11701384D+01  1  2  5  4  7  2        2 -.107182377354D-04 0.100000000000D+01
  </mgrwgt>
  </event>
  <event>
  7     66 0.27011060E-05 0.10444927E+03 0.75467711E-02 0.10003155E+00
       -2 -1    0    0    0  501 0.00000000E+00 0.00000000E+00 0.12879183E+03 0.12879223E+03 0.32000000E+00 0.0000E+00 0.9000E+01
        2 -1    0    0  501    0 0.00000000E+00 0.00000000E+00 -.62358938E+03 0.62358946E+03 0.32000000E+00 0.0000E+00 0.9000E+01
       25  2    1    2    0    0 -.64346294E+02 0.37638609E+02 -.14110932E+03 0.34517558E+03 0.30606737E+03 0.0000E+00 0.0000E+00
       24  1    3    3    0    0 -.15466083E+03 -.29066733E+02 -.85019570E+02 0.19611321E+03 0.80419002E+02 0.0000E+00 0.9000E+01
      -13  1    1    2    0    0 -.41963426E+02 -.53235300E+02 -.47661631E+02 0.82864761E+02 0.10565837E+00 0.0000E+00 0.9000E+01
       13  1    1    2    0    0 0.10630972E+03 0.15596691E+02 -.30602660E+03 0.32434134E+03 0.10565837E+00 0.0000E+00 0.9000E+01
      -24  1    3    3    0    0 0.90314532E+02 0.66705342E+02 -.56089747E+02 0.14906238E+03 0.80419002E+02 0.0000E+00 0.9000E+01
#aMCatNLO 1  0  0  1  2 0.14216282D+03 0.00000000D+00  -5  7  0 0.00000000D+00 0.00000000D+00 0.00000000D+00 0.00000000D+00 0.00000000D+00
  <mgrwgt>
 0.1437104033D-02    9    2    0
 0.283396183776337D+03 0.000000000000000D+00 0.000000000000000D+00 0.283396183776337D+03
 0.283396183776337D+03 0.000000000000000D+00 0.000000000000000D+00 -.283396183776337D+03
 0.186124242659826D+03 -.154673481162632D+03 -.290593301170400D+02 0.583668339856223D+02
 0.683635945556955D+02 -.419374823158550D+02 -.532259320638334D+02 0.904592690215146D+01
 0.163395395576647D+03 0.106306557145873D+03 0.155739976570375D+02 -.123103297276795D+03
 0.148909134760506D+03 0.903044063326141D+02 0.667112645238359D+02 0.556905363890209D+02
 0.000000000000000D+00 0.000000000000000D+00 0.000000000000000D+00 0.000000000000000D+00
 0.378507551393368D+03 0.000000000000000D+00 0.000000000000000D+00 0.378507551393368D+03
 0.350698700243787D+03 0.000000000000000D+00 0.000000000000000D+00 -.350698700243787D+03
 0.226438590099606D+03 -.193949894698410D+03 -.615139835232392D+02 0.583668339856223D+02
 0.870936857316430D+02 -.567371781267307D+02 -.654551290505088D+02 0.904592690215146D+01
 0.145413945754368D+03 0.769075845997918D+02 -.871878721274945D+01 -.123103297276795D+03
 0.125402864305431D+03 0.641896168808413D+02 0.451322463769495D+02 0.556905363890209D+02
 0.144857165746108D+03 0.109589871344507D+03 0.905556534095480D+02 0.278088511495808D+02
0.104914344242D-04 0.000000000000D+00 0.000000000000D+00 0.565288593464D-11 0.000000000000D+00  7 -2 2 24 -13 13 -24 21 0 0.19814164D-01 0.95936865D-01 0.60035483D+05 0.60035483D+05 0.60035483D+05 0.11403729D+01  1  2  2  1  7  1       -2 0.123317840585D-02 0.100000000000D+01
-.567854683162D-06 0.000000000000D+00 -.402898706472D-07 0.565288593464D-11 0.000000000000D+00  7 -2 2 24 -13 13 -24 21 2 0.19814164D-01 0.95936865D-01 0.60035483D+05 0.60035483D+05 0.60035483D+05 0.11403729D+01  1  2  3  1  7  1       -2 -.868004644252D-04 0.100000000000D+01
0.626229809019D-06 0.000000000000D+00 0.000000000000D+00 0.565288593464D-11 0.000000000000D+00  7 -2 2 24 -13 13 -24 21 2 0.19814164D-01 0.95936865D-01 0.60035483D+05 0.60035483D+05 0.60035483D+05 0.11403729D+01  1  2 15  1  7  1       -2 0.957235008737D-04 0.100000000000D+01
0.204531543771D-05 0.000000000000D+00 0.000000000000D+00 0.565288593464D-11 0.000000000000D+00  7 -2 2 24 -13 13 -24 21 2 0.28159782D-01 0.95936865D-01 0.10154777D+06 0.10154777D+06 0.10154777D+06 0.11211751D+01  1  2 12  1  7  1       -2 0.166793486896D-03 0.100000000000D+01
-.424118503025D-05 0.000000000000D+00 0.000000000000D+00 0.565288593464D-11 0.000000000000D+00  7 -2 2 24 -13 13 -24 21 2 0.19814164D-01 0.95936865D-01 0.60035483D+05 0.60035483D+05 0.60035483D+05 0.11403729D+01  1  2  4  1  7  1       -2 -.648294081663D-03 0.100000000000D+01
-.559610360130D-05 0.000000000000D+00 -.378377033782D-05 0.565288593464D-11 0.000000000000D+00  7 -2 2 24 -13 13 -24 21 2 0.32470350D-01 0.95936865D-01 0.60035483D+05 0.60035483D+05 0.60035483D+05 0.11403729D+01  1  2  5  1  7  1       -2 -.369244463918D-03 0.100000000000D+01
0.701112575054D-05 0.000000000000D+00 0.336489525863D-05 0.565288593464D-11 0.000000000000D+00  7 -2 2 24 -13 13 -24 21 2 0.19814164D-01 0.95936865D-01 0.60035483D+05 0.60035483D+05 0.60035483D+05 0.11403729D+01  1  2  6  1  7  1       -2 0.107169842802D-02 0.100000000000D+01
0.886276563864D-07 0.000000000000D+00 0.000000000000D+00 0.565288593464D-11 0.000000000000D+00  7 21 2 24 -13 13 -24 2 2 0.28159782D-01 0.95936865D-01 0.10154777D+06 0.10154777D+06 0.10154777D+06 0.11211751D+01  1  2 12  3  7  1       -2 0.867856923989D-04 0.100000000000D+01
-.144177273639D-06 0.000000000000D+00 -.211289738568D-06 0.565288593464D-11 0.000000000000D+00  7 21 2 24 -13 13 -24 2 2 0.32470350D-01 0.95936865D-01 0.60035483D+05 0.60035483D+05 0.60035483D+05 0.11403729D+01  1  2  5  3  7  1       -2 -.112736470890D-03 0.100000000000D+01
  </mgrwgt>
  </event>
  <event>
  8     66 0.27011060E-05 0.15285649E+03 0.75467711E-02 0.10009031E+00
       -2 -1    0    0    0  501 0.00000000E+00 0.00000000E+00 0.59172425E+02 0.59173290E+02 0.32000000E+00 0.0000E+00 0.9000E+01
        2 -1    0    0  501    0 0.00000000E+00 0.00000000E+00 -.21061515E+04 0.21061515E+04 0.32000000E+00 0.0000E+00 0.9000E+01
       25  2    1    2    0    0 0.13564100E+03 0.19047870E+02 -.19425053E+04 0.19706321E+04 0.30216291E+03 0.0000E+00 0.0000E+00
       23  2    1    2    0    0 -.13564100E+03 -.19047870E+02 -.10447371E+03 0.19469273E+03 0.90714935E+02 0.0000E+00 0.0000E+00
       24  1    3    3    0    0 -.72294931E+02 0.20427463E+01 -.62662854E+03 0.63589408E+03 0.80419002E+02 0.0000E+00 0.9000E+01
      -13  1    4    4    0    0 -.12514535E+03 -.48153952E+01 -.11827526E+03 0.17226026E+03 0.10565837E+00 0.0000E+00 0.9000E+01
       13  1    4    4    0    0 -.10495652E+02 -.14232475E+02 0.13801548E+02 0.22432475E+02 0.10565837E+00 0.0000E+00 0.9000E+01
      -24  1    3    3    0    0 0.20793594E+03 0.17005124E+02 -.13158768E+04 0.13347380E+04 0.80419002E+02 0.0000E+00 0.9000E+01
#aMCatNLO 1  0  0  2  1 0.15469357D+03 0.00000000D+00  -5  7  0 0.00000000D+00 0.00000000D+00 0.00000000D+00 0.00000000D+00 0.00000000D+00
  <mgrwgt>
 0.1058541572D-02    7    2    0
 0.353025570915504D+03 0.000000000000000D+00 0.000000000000000D+00 0.353025570915504D+03
 0.353025570915504D+03 0.000000000000000D+00 0.000000000000000D+00 -.353025570915504D+03
 0.133448843342423D+03 -.722949312670817D+02 0.204274634350877D+01 -.781706334599127D+02
 0.185386704824457D+03 -.125145507643014D+03 -.481538244975000D+01 0.136688127993274D+03
 0.108809399711257D+03 -.104954971890321D+02 -.142324879220007D+02 0.107362778893941D+03
 0.278406193952871D+03 0.207935936099127D+03 0.170051240282420D+02 -.165880273427302D+03
 0.000000000000000D+00 -.000000000000000D+00 -.000000000000000D+00 -.000000000000000D+00
 0.372289380051881D+03 0.000000000000000D+00 0.000000000000000D+00 0.372289380051881D+03
 0.910763638678887D+03 0.000000000000000D+00 0.000000000000000D+00 -.910763638678887D+03
 0.127338024155215D+03 -.551267143202552D+02 0.244571845091090D+02 -.781706334599127D+02
 0.172273900417411D+03 -.101599863174619D+03 0.259252817462245D+02 0.136688127993274D+03
 0.107516563915533D+03 0.374575318685061D+01 0.436056847632607D+01 0.107362778893941D+03
 0.315670456479019D+03 0.247045408579566D+03 0.680655722574960D+02 -.165880273427302D+03
 0.560254073763590D+03 -.940645842715421D+02 -.122808606989155D+03 -.538474258627005D+03
0.187398599236D-04 0.000000000000D+00 0.000000000000D+00 0.136632682846D-06 0.000000000000D+00  7 -2 2 24 -13 13 -24 21 0 0.91035184D-02 0.32402337D+00 0.56328338D+05 0.56328338D+05 0.56328338D+05 0.11427705D+01  1  2  2  2  7  2        2 0.104168987893D-02 0.100000000000D+01
-.841532839547D-06 0.000000000000D+00 -.719659964252D-07 0.136632682846D-06 0.000000000000D+00  7 -2 2 24 -13 13 -24 21 2 0.91035184D-02 0.32402337D+00 0.56328338D+05 0.56328338D+05 0.56328338D+05 0.11427705D+01  1  2  3  2  7  2        2 -.610887477235D-04 0.100000000000D+01
0.110584399846D-05 0.000000000000D+00 0.000000000000D+00 0.136632682846D-06 0.000000000000D+00  7 -2 2 24 -13 13 -24 21 2 0.91035184D-02 0.32402337D+00 0.56328338D+05 0.56328338D+05 0.56328338D+05 0.11427705D+01  1  2 15  2  7  2        2 0.802756848799D-04 0.100000000000D+01
0.135586749524D-04 0.000000000000D+00 0.000000000000D+00 0.136632682846D-06 0.000000000000D+00  7 -2 2 24 -13 13 -24 21 2 0.91035184D-02 0.82926795D+00 0.10061297D+06 0.10061297D+06 0.10061297D+06 0.11215043D+01  1  2 12  2  7  2        2 0.147614141092D-05 0.100000000000D+01
-.397802560368D-04 0.000000000000D+00 -.440877337877D-05 0.136632682846D-06 0.000000000000D+00  7 -2 2 24 -13 13 -24 21 2 0.91035184D-02 0.83815328D+00 0.56328338D+05 0.56328338D+05 0.56328338D+05 0.11427705D+01  1  2  5  2  7  2        2 -.381048549080D-05 0.100000000000D+01
0.140792415333D-05 0.000000000000D+00 0.000000000000D+00 0.136632682846D-06 0.000000000000D+00  7 -2 21 24 -13 13 -24 -2 2 0.91035184D-02 0.82926795D+00 0.10061297D+06 0.10061297D+06 0.10061297D+06 0.11215043D+01  1  2 12  4  7  2        2 0.680373632712D-09 0.100000000000D+01
-.391856411587D-05 0.000000000000D+00 -.463835361075D-06 0.136632682846D-06 0.000000000000D+00  7 -2 21 24 -13 13 -24 -2 2 0.91035184D-02 0.83815328D+00 0.56328338D+05 0.56328338D+05 0.56328338D+05 0.11427705D+01  1  2  5  4  7  2        2 -.157992539036D-08 0.100000000000D+01
  </mgrwgt>
  </event>
  <event>
  8     66 0.27011060E-05 0.39070861E+03 0.75467711E-02 0.84152721E-01
       -2 -1    0    0    0  501 0.00000000E+00 0.00000000E+00 0.13987686E+03 0.13987723E+03 0.32000000E+00 0.0000E+00 0.9000E+01
        2 -1    0    0  501    0 0.00000000E+00 0.00000000E+00 -.21171813E+04 0.21171813E+04 0.32000000E+00 0.0000E+00 0.9000E+01
       25  2    1    2    0    0 0.19133182E+03 0.26610090E+03 -.27866461E+03 0.52502331E+03 0.30096172E+03 0.0000E+00 0.0000E+00
       23  2    1    2    0    0 -.19133182E+03 -.26610090E+03 -.16986398E+04 0.17320352E+04 0.84565095E+02 0.0000E+00 0.0000E+00
       24  1    3    3    0    0 -.54463103E+02 0.83036857E+02 -.70992828E+02 0.14617984E+03 0.80419002E+02 0.0000E+00 0.9000E+01
      -13  1    4    4    0    0 -.19508403E+03 -.26882012E+03 -.16888701E+04 0.17212217E+04 0.10565837E+00 0.0000E+00 0.9000E+01
       13  1    4    4    0    0 0.37522141E+01 0.27192144E+01 -.97697732E+01 0.10813550E+02 0.10565837E+00 0.0000E+00 0.9000E+01
      -24  1    3    3    0    0 0.24579492E+03 0.18306405E+03 -.20767178E+03 0.37884347E+03 0.80419002E+02 0.0000E+00 0.9000E+01
#aMCatNLO 1  0  0  1  1 0.13280423D+04 0.00000000D+00  -5  7  0 0.00000000D+00 0.00000000D+00 0.00000000D+00 0.00000000D+00 0.00000000D+00
  <mgrwgt>
 0.2045226800D-02    5    2    0
 0.544192173910320D+03 0.000000000000000D+00 0.000000000000000D+00 0.544192173910320D+03
 0.544192173910320D+03 0.000000000000000D+00 0.000000000000000D+00 -.544192173910320D+03
 0.174168284287416D+03 -.544631023982257D+02 0.830368573981328D+02 0.118347057791287D+03
 0.501191272504464D+03 -.195084345156837D+03 -.268820543059184D+03 -.375326931539342D+03
 0.467496308255017D+01 0.375252447724492D+01 0.271963828283608D+01 -.614334991203631D+00
 0.408349827946209D+03 0.245794923077818D+03 0.183064047378215D+03 0.257594208739258D+03
 0.000000000000000D+00 -.000000000000000D+00 0.000000000000000D+00 0.000000000000000D+00
 0.154430951290210D+04 0.000000000000000D+00 0.000000000000000D+00 0.154430951290210D+04
 0.150147794492534D+04 0.000000000000000D+00 0.000000000000000D+00 -.150147794492534D+04
 0.201610871572640D+03 0.123015899613660D+03 0.709985206627340D+02 0.118347057791287D+03
 0.575390962143753D+03 0.313381166060202D+03 -.303309575412191D+03 -.375326931539342D+03
 0.117190480177362D+02 0.114953507720971D+02 0.219444516610395D+01 -.614334991203631D+00
 0.928333792705524D+03 0.877105285292935D+03 0.140242493060577D+03 0.257594208739258D+03
 0.132873278338778D+04 -.132499770173889D+04 0.898741165227763D+02 0.428315679767636D+02
0.148877493514D-03 0.000000000000D+00 0.000000000000D+00 0.736628691406D-07 0.000000000000D+00  7 -2 2 24 -13 13 -24 21 0 0.21519548D-01 0.32572023D+00 0.15265322D+06 0.15265322D+06 0.15265322D+06 0.11069515D+01  1  2  2  1  7  1       -2 0.201233969910D-02 0.100000000000D+01
-.716692676333D-05 0.000000000000D+00 -.571728775438D-06 0.736628691406D-07 0.000000000000D+00  7 -2 2 24 -13 13 -24 21 2 0.21519548D-01 0.32572023D+00 0.15265322D+06 0.15265322D+06 0.15265322D+06 0.11069515D+01  1  2  3  1  7  1       -2 -.118703190349D-03 0.100000000000D+01
0.872148317761D-05 0.000000000000D+00 0.000000000000D+00 0.736628691406D-07 0.000000000000D+00  7 -2 2 24 -13 13 -24 21 2 0.21519548D-01 0.32572023D+00 0.15265322D+06 0.15265322D+06 0.15265322D+06 0.11069515D+01  1  2 15  1  7  1       -2 0.144450740456D-03 0.100000000000D+01
0.841273984578D-03 0.000000000000D+00 -.201851523964D-03 0.736628691406D-07 0.000000000000D+00  7 -2 2 24 -13 13 -24 21 2 0.44388256D+00 0.32572023D+00 0.15265322D+06 0.15265322D+06 0.15265322D+06 0.11069515D+01  1  2  5  1  7  1       -2 0.226165252771D-05 0.100000000000D+01
0.219562090552D-03 0.000000000000D+00 -.652263522300D-04 0.736628691406D-07 0.000000000000D+00  7 21 2 24 -13 13 -24 2 2 0.44388256D+00 0.32572023D+00 0.15265322D+06 0.15265322D+06 0.15265322D+06 0.11069515D+01  1  2  5  3  7  1       -2 0.487789781547D-05 0.100000000000D+01
  </mgrwgt>
  </event>
  <event>
  8     66 0.27011060E-05 0.15270565E+03 0.75467711E-02 0.10782904E+00
       -4 -1    0    0    0  501 0.00000000E+00 0.00000000E+00 0.42789002E+03 0.42789283E+03 0.15500000E+01 0.0000E+00 0.9000E+01
        4 -1    0    0  501    0 0.00000000E+00 0.00000000E+00 -.11160729E+03 0.11161805E+03 0.15500000E+01 0.0000E+00 0.9000E+01
       25  2    1    2    0    0 -.59853471E+02 0.23209203E+02 0.15771526E+03 0.34565867E+03 0.30080676E+03 0.0000E+00 0.0000E+00
       23  2    1    2    0    0 0.59853471E+02 -.23209203E+02 0.15856748E+03 0.19385221E+03 0.91180752E+02 0.0000E+00 0.0000E+00
       24  1    3    3    0    0 -.10673039E+03 0.50553641E+02 0.19498395E+03 0.24172920E+03 0.80419002E+02 0.0000E+00 0.9000E+01
      -13  1    4    4    0    0 0.54556953E+02 -.24878973E+02 0.17047499E+03 0.18071291E+03 0.10565837E+00 0.0000E+00 0.9000E+01
       13  1    4    4    0    0 0.52965173E+01 0.16697696E+01 -.11907509E+02 0.13139298E+02 0.10565837E+00 0.0000E+00 0.9000E+01
      -24  1    3    3    0    0 0.46876916E+02 -.27344438E+02 -.37268696E+02 0.10392947E+03 0.80419002E+02 0.0000E+00 0.9000E+01
#aMCatNLO 1  0  0  2  2 0.48406034D+02 0.00000000D+00  -5  7  0 0.00000000D+00 0.00000000D+00 0.00000000D+00 0.00000000D+00 0.00000000D+00
  <mgrwgt>
 0.1471652128D-03    4    2    0
 0.218539024000602D+03 0.000000000000000D+00 0.000000000000000D+00 0.218539024000602D+03
 0.218539024000602D+03 0.000000000000000D+00 0.000000000000000D+00 -.218539024000602D+03
 0.157284179377744D+03 -.106730387504805D+03 0.505536386203868D+02 0.657575176954960D+02
 0.997038345074280D+02 0.545570638825685D+02 -.248790252196762D+02 0.796581163480324D+02
 0.248351202787309D+02 0.529646249096680D+01 0.166980067005020D+01 -.242062481616444D+02
 0.155254913837300D+03 0.468768611312695D+02 -.273444140707609D+02 -.121209385881884D+03
 0.000000000000000D+00 -.000000000000000D+00 0.000000000000000D+00 0.000000000000000D+00
 0.318220965322787D+03 0.000000000000000D+00 0.000000000000000D+00 0.318220965322787D+03
 0.225831562753551D+03 0.000000000000000D+00 0.000000000000000D+00 -.225831562753551D+03
 0.151572897768465D+03 -.105146000386590D+03 0.335767010408803D+02 0.657575176954960D+02
 0.103618283037533D+03 0.556000736360212D+02 -.360550258798775D+02 0.796581163480324D+02
 0.248573393788222D+02 0.555137681470940D+01 -.106164325078658D+01 -.242062481616444D+02
 0.159701822797280D+03 0.484925385213738D+02 -.446566314481182D+02 -.121209385881884D+03
 0.104302185094238D+03 -.449798858551456D+01 0.481965995379020D+02 0.923894025692359D+02
0.108297283115D-04 0.000000000000D+00 0.000000000000D+00 0.278969438058D-06 0.000000000000D+00  7 -4 4 24 -13 13 -24 21 0 0.65830278D-01 0.17171396D-01 0.23319015D+05 0.23319015D+05 0.23319015D+05 0.11776254D+01  1  2  2  2  7  2        4 0.159251953106D-03 0.100000000000D+01
-.507659867512D-06 0.000000000000D+00 -.415890082492D-07 0.278969438058D-06 0.000000000000D+00  7 -4 4 24 -13 13 -24 21 2 0.65830278D-01 0.17171396D-01 0.23319015D+05 0.23319015D+05 0.23319015D+05 0.11776254D+01  1  2  3  2  7  2        4 -.103527181071D-04 0.100000000000D+01
0.665413120206D-06 0.000000000000D+00 0.000000000000D+00 0.278969438058D-06 0.000000000000D+00  7 -4 4 24 -13 13 -24 21 2 0.65830278D-01 0.17171396D-01 0.23319015D+05 0.23319015D+05 0.23319015D+05 0.11776254D+01  1  2 15  2  7  2        4 0.135697834301D-04 0.100000000000D+01
-.750443299150D-06 0.000000000000D+00 0.000000000000D+00 0.278969438058D-06 0.000000000000D+00  7 -4 4 24 -13 13 -24 21 2 0.65830278D-01 0.17171396D-01 0.23319015D+05 0.23319015D+05 0.23319015D+05 0.11776254D+01  1  2  4  2  7  2        4 -.153038056161D-04 0.100000000000D+01
  </mgrwgt>
  </event>
  <event>
  8     66 0.27011060E-05 0.33457665E+03 0.75467711E-02 0.99396005E-01
       -2 -1    0    0    0  501 0.00000000E+00 0.00000000E+00 0.13126008E+03 0.13126047E+03 0.32000000E+00 0.0000E+00 0.9000E+01
        2 -1    0    0  501    0 0.00000000E+00 0.00000000E+00 -.15475648E+04 0.15475648E+04 0.32000000E+00 0.0000E+00 0.9000E+01
       25  2    1    2    0    0 0.18977762E+03 -.23762457E+03 -.12524721E+04 0.13231549E+04 0.29928472E+03 0.0000E+00 0.0000E+00
       23  2    1    2    0    0 -.18977762E+03 0.23762457E+03 -.16383254E+03 0.35567040E+03 0.84731064E+02 0.0000E+00 0.0000E+00
       24  1    3    3    0    0 0.34821407E+02 -.36245306E+02 -.73488821E+03 0.74098188E+03 0.80419002E+02 0.0000E+00 0.9000E+01
      -13  1    4    4    0    0 -.13713001E+03 0.20231200E+03 -.95343161E+02 0.26234540E+03 0.10565837E+00 0.0000E+00 0.9000E+01
       13  1    4    4    0    0 -.52647615E+02 0.35312576E+02 -.68489378E+02 0.93324999E+02 0.10565837E+00 0.0000E+00 0.9000E+01
      -24  1    3    3    0    0 0.15495621E+03 -.20137927E+03 -.51758392E+03 0.58217297E+03 0.80419002E+02 0.0000E+00 0.9000E+01
#aMCatNLO 1  0  0  2  2 0.11214075D+01 0.00000000D+00  -5  7  0 0.00000000D+00 0.00000000D+00 0.00000000D+00 0.00000000D+00 0.00000000D+00
  <mgrwgt>
 0.5021460486D-03    6    2    0
 0.450703706167328D+03 0.000000000000000D+00 0.000000000000000D+00 0.450703706167328D+03
 0.450703706167328D+03 0.000000000000000D+00 0.000000000000000D+00 -.450703706167328D+03
 0.225373667222645D+03 0.348214072490250D+02 -.362453058727264D+02 -.204450046031795D+03
 0.338800752333364D+03 -.137130136676766D+03 0.202312255240561D+03 0.234629552222526D+03
 0.662010942689073D+02 -.526474831314787D+02 0.353123162689687D+02 0.190753170888914D+02
 0.271031898509739D+03 0.154956212559219D+03 -.201379265636803D+03 -.492548232796223D+02
 0.000000000000000D+00 -.000000000000000D+00 0.000000000000000D+00 0.000000000000000D+00
 0.451501195735678D+03 0.000000000000000D+00 0.000000000000000D+00 0.451501195735678D+03
 0.451098450401593D+03 0.000000000000000D+00 0.000000000000000D+00 -.451098450401593D+03
 0.225432493990269D+03 0.350737279672192D+02 -.363676460109898D+02 -.204450046031795D+03
 0.338537700867660D+03 -.136751023568568D+03 0.202128438586874D+03 0.234629552222526D+03
 0.661230446526463D+02 -.525734199871834D+02 0.352764060378226D+02 0.190753170888914D+02
 0.271314870374561D+03 0.155259769471279D+03 -.201526448138731D+03 -.492548232796223D+02
 0.119153625213419D+01 -.100905388274683D+01 0.489249525024661D+00 0.402745334084327D+00
0.194489684449D-04 0.000000000000D+00 0.000000000000D+00 0.738198958228D-07 0.000000000000D+00  7 -2 2 24 -13 13 -24 21 0 0.20193891D-01 0.23808692D+00 0.11194154D+06 0.11194154D+06 0.11194154D+06 0.11177238D+01  1  2  2  2  7  2        2 0.598603098138D-03 0.100000000000D+01
-.963877648531D-06 0.000000000000D+00 -.746891598593D-07 0.738198958228D-07 0.000000000000D+00  7 -2 2 24 -13 13 -24 21 2 0.20193891D-01 0.23808692D+00 0.11194154D+06 0.11194154D+06 0.11194154D+06 0.11177238D+01  1  2  3  2  7  2        2 -.370623778431D-04 0.100000000000D+01
0.125265730754D-05 0.000000000000D+00 0.000000000000D+00 0.738198958228D-07 0.000000000000D+00  7 -2 2 24 -13 13 -24 21 2 0.20193891D-01 0.23808692D+00 0.11194154D+06 0.11194154D+06 0.11194154D+06 0.11177238D+01  1  2 15  2  7  2        2 0.481663398988D-04 0.100000000000D+01
-.599061321817D-03 0.000000000000D+00 0.000000000000D+00 0.738198958228D-07 0.000000000000D+00  7 -2 2 24 -13 13 -24 21 2 0.20193891D-01 0.23808692D+00 0.11194154D+06 0.11194154D+06 0.11194154D+06 0.11177238D+01  1  2  4  2  7  2        2 -.230347047617D-01 0.100000000000D+01
0.599062689232D-03 0.000000000000D+00 0.000000000000D+00 0.738198958228D-07 0.391043443697D-06  7 -2 2 24 -13 13 -24 21 2 0.20229623D-01 0.23829544D+00 0.11231074D+06 0.11231074D+06 0.11231074D+06 0.11176077D+01  1  2 11  2  7  2        2 0.229220992570D-01 0.100000000000D+01
0.380545747061D-06 0.000000000000D+00 0.000000000000D+00 0.738198958228D-07 0.641936501474D-10  7 -2 21 24 -13 13 -24 -2 2 0.20229623D-01 0.23829544D+00 0.11231074D+06 0.11231074D+06 0.11231074D+06 0.11176077D+01  1  2 11  4  7  2        2 0.504449312568D-05 0.100000000000D+01
  </mgrwgt>
  </event>
  <event>
  8     66 0.27011060E-05 0.28576623E+03 0.75467711E-02 0.10125909E+00
       -2 -1    0    0    0  501 0.00000000E+00 0.00000000E+00 0.95373973E+03 0.95373978E+03 0.32000000E+00 0.0000E+00 0.9000E+01
        2 -1    0    0  501    0 0.00000000E+00 0.00000000E+00 -.87918321E+02 0.87918904E+02 0.32000000E+00 0.0000E+00 0.9000E+01
       25  2    1    2    0    0 0.17949909E+03 0.84613225E+02 0.49943431E+03 0.61540579E+03 0.29985052E+03 0.0000E+00 0.0000E+00
       23  2    1    2    0    0 -.17949909E+03 -.84613225E+02 0.36638710E+03 0.42625289E+03 0.89848225E+02 0.0000E+00 0.0000E+00
       24  1    3    3    0    0 0.14405638E+03 -.70613228E+02 0.22030443E+03 0.28414737E+03 0.80419002E+02 0.0000E+00 0.9000E+01
      -11  1    4    4    0    0 -.18349378E+03 -.92023983E+02 0.36330511E+03 0.41728765E+03 0.51099893E-03 0.0000E+00 0.9000E+01
       11  1    4    4    0    0 0.39946944E+01 0.74107576E+01 0.30819879E+01 0.89652418E+01 0.51099893E-03 0.0000E+00 0.9000E+01
      -24  1    3    3    0    0 0.35442710E+02 0.15522645E+03 0.27912988E+03 0.33125842E+03 0.80419002E+02 0.0000E+00 0.9000E+01
#aMCatNLO 1  0  0  2  2 0.77376669D+01 0.00000000D+00  -5  7  0 0.00000000D+00 0.00000000D+00 0.00000000D+00 0.00000000D+00 0.00000000D+00
  <mgrwgt>
 0.7898212114D-03    8    2    0
 0.289571281060958D+03 0.000000000000000D+00 0.000000000000000D+00 0.289571281060958D+03
 0.289571281060958D+03 0.000000000000000D+00 0.000000000000000D+00 -.289571281060958D+03
 0.181717401209546D+03 0.144056379776493D+03 -.706132275578574D+02 -.285574769111962D+02
 0.207399653043520D+03 -.183493784539366D+03 -.920239830714368D+02 0.296012441910990D+02
 0.115174937886474D+02 0.399469439689074D+01 0.741075757785763D+01 -.785975521051434D+01
 0.178508014080202D+03 0.354427103659822D+02 0.155226453051437D+03 0.681598793061157D+01
 0.000000000000000D+00 0.000000000000000D+00 0.000000000000000D+00 0.000000000000000D+00
 0.310542925291846D+03 0.000000000000000D+00 0.000000000000000D+00 0.310542925291846D+03
 0.290311724946430D+03 0.000000000000000D+00 0.000000000000000D+00 -.290311724946430D+03
 0.181963599977865D+03 0.143227326840359D+03 -.728967703068210D+02 -.285574769111962D+02
 0.209410474629964D+03 -.184443951468708D+03 -.946411221071185D+02 0.296012441910990D+02
 0.114072401271060D+02 0.394243481252726D+01 0.726681382018451D+01 -.785975521051434D+01
 0.176412934848275D+03 0.346336269828967D+02 0.152997914423533D+03 0.681598793061157D+01
 0.216604006550660D+02 0.264056283292477D+01 0.727316417022244D+01 0.202312003454158D+02
0.541814910106D-04 0.000000000000D+00 0.000000000000D+00 0.645400174790D-06 0.000000000000D+00  7 -2 2 24 -11 11 -24 21 0 0.14672924D+00 0.13525945D-01 0.81662338D+05 0.81662338D+05 0.81662338D+05 0.11290140D+01  1  2  2  2  7  2        2 0.966602916933D-03 0.100000000000D+01
-.300944249759D-05 0.000000000000D+00 -.208071191795D-06 0.645400174790D-06 0.000000000000D+00  7 -2 2 24 -11 11 -24 21 2 0.14672924D+00 0.13525945D-01 0.81662338D+05 0.81662338D+05 0.81662338D+05 0.11290140D+01  1  2  3  2  7  2        2 -.684355609219D-04 0.100000000000D+01
0.355928843362D-05 0.000000000000D+00 0.000000000000D+00 0.645400174790D-06 0.000000000000D+00  7 -2 2 24 -11 11 -24 21 2 0.14672924D+00 0.13525945D-01 0.81662338D+05 0.81662338D+05 0.81662338D+05 0.11290140D+01  1  2 15  2  7  2        2 0.809392107121D-04 0.100000000000D+01
-.833988450430D-05 0.000000000000D+00 0.000000000000D+00 0.645400174790D-06 0.000000000000D+00  7 -2 2 24 -11 11 -24 21 2 0.14672924D+00 0.13525945D-01 0.81662338D+05 0.81662338D+05 0.81662338D+05 0.11290140D+01  1  2  4  2  7  2        2 -.189651297386D-03 0.100000000000D+01
0.116930418912D-05 0.000000000000D+00 0.000000000000D+00 0.645400174790D-06 0.000000000000D+00  7 -2 2 24 -11 11 -24 21 2 0.14672924D+00 0.14690394D-01 0.81662338D+05 0.81662338D+05 0.81662338D+05 0.11290140D+01  1  2  5  2  7  2        2 0.240228507875D-04 0.100000000000D+01
-.116532807718D-05 0.000000000000D+00 0.000000000000D+00 0.645400174790D-06 0.000000000000D+00  7 -2 2 24 -11 11 -24 21 2 0.14672924D+00 0.13525945D-01 0.81662338D+05 0.81662338D+05 0.81662338D+05 0.11290140D+01  1  2  6  2  7  2        2 -.264998851728D-04 0.100000000000D+01
0.935047734814D-07 0.000000000000D+00 0.000000000000D+00 0.645400174790D-06 0.733114288970D-07  7 -2 2 24 -11 11 -24 21 2 0.15735582D+00 0.13560531D-01 0.83897915D+05 0.83897915D+05 0.83897915D+05 0.11280334D+01  1  2 11  2  7  2        2 0.174666175042D-05 0.100000000000D+01
0.664670649455D-08 0.000000000000D+00 0.000000000000D+00 0.645400174790D-06 0.360796216872D-10  7 -2 21 24 -11 11 -24 -2 2 0.15735582D+00 0.13560531D-01 0.83897915D+05 0.83897915D+05 0.83897915D+05 0.11280334D+01  1  2 11  4  7  2        2 0.109631473529D-05 0.100000000000D+01
  </mgrwgt>
  </event>
  <event>
  9     66 0.27011060E-05 0.20467694E+03 0.75467711E-02 0.99377326E-01
       -2 -1    0    0    0  502 0.00000000E+00 0.00000000E+00 0.22935983E+03 0.22936005E+03 0.32000000E+00 0.0000E+00 0.9000E+01
        2 -1    0    0  501    0 0.00000000E+00 0.00000000E+00 -.68444431E+03 0.68444438E+03 0.32000000E+00 0.0000E+00 0.9000E+01
       25  2    1    2    0    0 -.18274744E+03 -.17886999E+03 -.37143477E+03 0.54178404E+03 0.30029162E+03 0.0000E+00 0.0000E+00
       23  2    1    2    0    0 -.89639882E+01 0.10842833E+03 -.91807235E+02 0.16761294E+03 0.88478662E+02 0.0000E+00 0.0000E+00
       24  1    3    3    0    0 -.80832979E+02 -.16099079E+03 -.35965473E+03 0.41020818E+03 0.80419002E+02 0.0000E+00 0.9000E+01
      -13  1    4    4    0    0 -.23805626E+01 -.14946319E+02 -.29294662E+01 0.15415981E+02 0.10565837E+00 0.0000E+00 0.9000E+01
       13  1    4    4    0    0 -.65834256E+01 0.12337465E+03 -.88877768E+02 0.15219696E+03 0.10565837E+00 0.0000E+00 0.9000E+01
      -24  1    3    3    0    0 -.10191446E+03 -.17879202E+02 -.11780034E+02 0.13157586E+03 0.80419002E+02 0.0000E+00 0.9000E+01
       21  1    1    2  501  502 0.19171143E+03 0.70441660E+02 0.81575271E+01 0.20440745E+03 0.75000000E+00 0.0000E+00 0.9000E+01
#aMCatNLO 2  0  0  1  2 0.20424323D+03 0.00000000D+00  -5  7  0 0.00000000D+00 0.00000000D+00 0.00000000D+00 0.00000000D+00 0.00000000D+00
  <mgrwgt>
 0.1472780913D-03    2    2    0
 0.248463090830210D+03 0.000000000000000D+00 0.000000000000000D+00 0.248463090830210D+03
 0.248463090830210D+03 0.000000000000000D+00 0.000000000000000D+00 -.248463090830210D+03
 0.196319300988885D+03 -.152064139580752D+01 -.131848592856980D+03 -.121192772877650D+03
 0.162391906542904D+02 0.393481445545760D+01 -.126260209059568D+02 0.942401954528203D+01
 0.149367947576759D+03 0.441524303059025D+02 0.142017029279881D+03 0.138747993100138D+02
 0.134999742440485D+03 -.465666033655526D+02 0.245758448305542D+01 0.978939540223538D+02
 0.000000000000000D+00 0.000000000000000D+00 0.000000000000000D+00 0.000000000000000D+00
 0.500604616273541D+03 0.000000000000000D+00 0.000000000000000D+00 0.500604616273541D+03
 0.313588204511656D+03 0.000000000000000D+00 0.000000000000000D+00 -.313588204511656D+03
 0.231531661649318D+03 -.808329799065905D+02 -.160990793380773D+03 -.121192772877650D+03
 0.178291192729641D+02 -.238055600153391D+01 -.149465147369976D+02 0.942401954528203D+01
 0.124327011530066D+03 -.658343133976014D+01 0.123374852266978D+03 0.138747993100138D+02
 0.163574646392148D+03 -.101914458262793D+03 -.178792044234763D+02 0.978939540223538D+02
 0.276930381940701D+03 0.191711425510678D+03 0.704416602742686D+02 0.187016411761885D+03
-.144193265132D-10 0.000000000000D+00 0.000000000000D+00 0.102253572349D-06 0.000000000000D+00  7 -2 2 24 -13 13 -24 21 2 0.35566314D-01 0.83430794D-01 0.11264600D+06 0.11264600D+06 0.11264600D+06 0.11175027D+01  1  2 13  1  7  1       -2 -.905022236047D-09 0.100000000000D+01
0.303084888340D-05 0.000000000000D+00 0.000000000000D+00 0.102253572349D-06 0.218745385107D-10  7 -2 2 24 -13 13 -24 21 2 0.35286099D-01 0.10529899D+00 0.11264600D+06 0.11264600D+06 0.11264600D+06 0.11175027D+01  1  2  1  1  7  1       -2 0.147278996337D-03 0.100000000000D+01
  </mgrwgt>
  </event>
  <event>
  8     66 0.27011060E-05 0.50045759E+03 0.75467711E-02 0.93954484E-01
       -2 -1    0    0    0  501 0.00000000E+00 0.00000000E+00 0.23031916E+03 0.23031938E+03 0.32000000E+00 0.0000E+00 0.9000E+01
        2 -1    0    0  501    0 0.00000000E+00 0.00000000E+00 -.13673079E+04 0.13673079E+04 0.32000000E+00 0.0000E+00 0.9000E+01
       25  2    1    2    0    0 0.16696848E+01 -.48380685E+03 -.35077439E+03 0.66939650E+03 0.30162419E+03 0.0000E+00 0.0000E+00
       23  2    1    2    0    0 -.16696848E+01 0.48380685E+03 -.78621435E+03 0.92823082E+03 0.96992703E+02 0.0000E+00 0.0000E+00
       24  1    3    3    0    0 -.21060424E+02 -.28471034E+03 -.34283220E+03 0.45332620E+03 0.80419002E+02 0.0000E+00 0.9000E+01
      -13  1    4    4    0    0 -.33322891E+02 0.19161637E+03 -.37955569E+03 0.42648538E+03 0.10565837E+00 0.0000E+00 0.9000E+01
       13  1    4    4    0    0 0.31653206E+02 0.29219048E+03 -.40665866E+03 0.50174544E+03 0.10565837E+00 0.0000E+00 0.9000E+01
      -24  1    3    3    0    0 0.22730108E+02 -.19909652E+03 -.79421937E+01 0.21607030E+03 0.80419002E+02 0.0000E+00 0.9000E+01
#aMCatNLO 1  0  0  1  2 0.57047365D+02 0.00000000D+00  -5  7  0 0.00000000D+00 0.00000000D+00 0.00000000D+00 0.00000000D+00 0.00000000D+00
  <mgrwgt>
 0.8570565998D-03    4    2    0
 0.561175031149445D+03 0.000000000000000D+00 0.000000000000000D+00 0.561175031149445D+03
 0.561175031149445D+03 0.000000000000000D+00 0.000000000000000D+00 -.561175031149445D+03
 0.297990790952920D+03 -.210604235744131D+02 -.284710336116689D+03 -.287711418884365D+02
 0.222581220095199D+03 -.333229661691690D+02 0.191616252827117D+03 -.108236736449554D+03
 0.302255074238818D+03 0.316532814120925D+02 0.292190600024820D+03 -.705751580663898D+02
 0.299522977011953D+03 0.227301083314896D+02 -.199096516735249D+03 0.207583036404380D+03
 0.000000000000000D+00 -.000000000000000D+00 0.000000000000000D+00 -.000000000000000D+00
 0.565620851684548D+03 0.000000000000000D+00 0.000000000000000D+00 0.565620851684548D+03
 0.780528156684622D+03 0.000000000000000D+00 0.000000000000000D+00 -.780528156684622D+03
 0.311763141132256D+03 -.161563596234566D+02 -.299399788998646D+03 -.287711418884365D+02
 0.213093866785280D+03 -.298189650049716D+02 0.181120496549354D+03 -.108236736449554D+03
 0.289067458940220D+03 0.364091072719355D+02 0.277945174071651D+03 -.705751580663898D+02
 0.309874476098298D+03 0.276313052313322D+02 -.213777381757694D+03 0.207583036404380D+03
 0.222350065413116D+03 -.180650878748394D+02 0.541115001353346D+02 -.214907305000075D+03
0.618690492291D-04 0.000000000000D+00 0.000000000000D+00 0.221475568558D-07 0.000000000000D+00  7 -2 2 24 -13 13 -24 21 0 0.35433737D-01 0.21035508D+00 0.25045780D+06 0.25045780D+06 0.25045780D+06 0.10903993D+01  1  2  2  1  7  1       -2 0.878952773520D-03 0.100000000000D+01
-.338237083576D-05 0.000000000000D+00 -.237593439534D-06 0.221475568558D-07 0.000000000000D+00  7 -2 2 24 -13 13 -24 21 2 0.35433737D-01 0.21035508D+00 0.25045780D+06 0.25045780D+06 0.25045780D+06 0.10903993D+01  1  2  3  1  7  1       -2 -.571326644544D-04 0.100000000000D+01
0.384853955568D-05 0.000000000000D+00 0.000000000000D+00 0.221475568558D-07 0.000000000000D+00  7 -2 2 24 -13 13 -24 21 2 0.35433737D-01 0.21035508D+00 0.25045780D+06 0.25045780D+06 0.25045780D+06 0.10903993D+01  1  2 15  1  7  1       -2 0.650068634549D-04 0.100000000000D+01
-.176246708270D-05 0.000000000000D+00 0.000000000000D+00 0.221475568558D-07 0.000000000000D+00  7 -2 2 24 -13 13 -24 21 2 0.35433737D-01 0.21035508D+00 0.25045780D+06 0.25045780D+06 0.25045780D+06 0.10903993D+01  1  2  4  1  7  1       -2 -.297703727171D-04 0.100000000000D+01
  </mgrwgt>
  </event>
  <event>
  8     66 0.27011060E-05 0.84769114E+02 0.75467711E-02 0.99587784E-01
       -2 -1    0    0    0  501 0.00000000E+00 0.00000000E+00 0.40089418E+02 0.40090695E+02 0.32000000E+00 0.0000E+00 0.9000E+01
        2 -1    0    0  501    0 0.00000000E+00 0.00000000E+00 -.15044927E+04 0.15044928E+04 0.32000000E+00 0.0000E+00 0.9000E+01
       25  2    1    2    0    0 0.13079376E+03 0.18651907E+02 -.10857419E+04 0.11337421E+04 0.29846412E+03 0.0000E+00 0.0000E+00
       23  2    1    2    0    0 -.13079376E+03 -.18651907E+02 -.37866145E+03 0.41084137E+03 0.89169698E+02 0.0000E+00 0.0000E+00
       24  1    3    3    0    0 0.12446140E+03 0.89484133E+02 -.92088152E+03 0.93701016E+03 0.80419002E+02 0.0000E+00 0.9000E+01
      -11  1    4    4    0    0 -.79043113E+01 -.25162826E+02 -.24843899E+02 0.36233483E+02 0.51099893E-03 0.0000E+00 0.9000E+01
       11  1    4    4    0    0 -.12288945E+03 0.65109192E+01 -.35381755E+03 0.37460789E+03 0.51099893E-03 0.0000E+00 0.9000E+01
      -24  1    3    3    0    0 0.63323587E+01 -.70832226E+02 -.16486033E+03 0.19673192E+03 0.80419002E+02 0.0000E+00 0.9000E+01
#aMCatNLO 1  0  0  2  1 0.18588689D+03 0.00000000D+00  -5  7  0 0.00000000D+00 0.00000000D+00 0.00000000D+00 0.00000000D+00 0.00000000D+00
  <mgrwgt>
 0.9710463229D-03    8    2    0
 0.245591633603416D+03 0.000000000000000D+00 0.000000000000000D+00 0.245591633603416D+03
 0.245591633603416D+03 0.000000000000000D+00 0.000000000000000D+00 -.245591633603416D+03
 0.201041961947006D+03 0.124461404678505D+03 0.894841331980651D+02 -.102237973182059D+03
 0.398713701537665D+02 -.790431126926882D+01 -.251628260723430D+02 0.299011739794642D+02
 0.123134390369542D+03 -.122889452102118D+03 0.651091918330205D+01 0.422712492226684D+01
 0.127135544736517D+03 0.633235869288240D+01 -.708322263090242D+02 0.681096742803275D+02
 0.000000000000000D+00 -.000000000000000D+00 0.000000000000000D+00 -.000000000000000D+00
 0.317073815865791D+03 0.000000000000000D+00 0.000000000000000D+00 0.317073815865791D+03
 0.421143068503962D+03 0.000000000000000D+00 0.000000000000000D+00 -.421143068503962D+03
 0.248078094787350D+03 0.201905574082069D+03 0.621052425578183D+02 -.102237973182059D+03
 0.429848753267695D+02 0.638303353959001D+01 -.302138409398772D+02 0.299011739794642D+02
 0.869882415636807D+02 -.866568847541308D+02 -.629840534914306D+01 0.422712492226684D+01
 0.147129651443397D+03 0.536253708751959D+02 -.875517575346740D+02 0.681096742803275D+02
 0.213036021248556D+03 -.175257093742725D+03 0.619587612658759D+02 -.104069252638171D+03
0.292565375133D-05 0.000000000000D+00 0.000000000000D+00 0.192336289857D-07 0.000000000000D+00  7 -2 2 24 -11 11 -24 21 0 0.61677037D-02 0.23146052D+00 0.46202215D+05 0.46202215D+05 0.46202215D+05 0.11503253D+01  1  2  2  2  7  2        2 0.608758655475D-03 0.100000000000D+01
-.159025949722D-06 0.000000000000D+00 -.112352807474D-07 0.192336289857D-07 0.000000000000D+00  7 -2 2 24 -11 11 -24 21 2 0.61677037D-02 0.23146052D+00 0.46202215D+05 0.46202215D+05 0.46202215D+05 0.11503253D+01  1  2  3  2  7  2        2 -.437856271120D-04 0.100000000000D+01
0.195189682759D-06 0.000000000000D+00 0.000000000000D+00 0.192336289857D-07 0.000000000000D+00  7 -2 2 24 -11 11 -24 21 2 0.61677037D-02 0.23146052D+00 0.46202215D+05 0.46202215D+05 0.46202215D+05 0.11503253D+01  1  2 15  2  7  2        2 0.537428179511D-04 0.100000000000D+01
0.402773643428D-07 0.000000000000D+00 0.000000000000D+00 0.192336289857D-07 0.000000000000D+00  7 -2 2 24 -11 11 -24 21 2 0.61677037D-02 0.41098332D+00 0.10893296D+06 0.10893296D+06 0.10893296D+06 0.11186854D+01  1  2 12  2  7  2        2 0.239583569222D-05 0.100000000000D+01
-.112148028533D-05 0.000000000000D+00 -.831468624184D-06 0.192336289857D-07 0.000000000000D+00  7 -2 2 24 -11 11 -24 21 2 0.61677037D-02 0.43551306D+00 0.46202215D+05 0.46202215D+05 0.46202215D+05 0.11503253D+01  1  2  5  2  7  2        2 -.582868534203D-04 0.100000000000D+01
0.148309265212D-05 0.000000000000D+00 0.689142412582D-06 0.192336289857D-07 0.000000000000D+00  7 -2 2 24 -11 11 -24 21 2 0.61677037D-02 0.23146052D+00 0.46202215D+05 0.46202215D+05 0.46202215D+05 0.11503253D+01  1  2  6  2  7  2        2 0.408349341425D-03 0.100000000000D+01
0.254444909787D-08 0.000000000000D+00 0.000000000000D+00 0.192336289857D-07 0.000000000000D+00  7 -2 21 24 -11 11 -24 -2 2 0.61677037D-02 0.41098332D+00 0.10893296D+06 0.10893296D+06 0.10893296D+06 0.11186854D+01  1  2 12  4  7  2        2 0.156035458889D-07 0.100000000000D+01
-.301842011632D-07 0.000000000000D+00 -.571823462510D-07 0.192336289857D-07 0.000000000000D+00  7 -2 21 24 -11 11 -24 -2 2 0.61677037D-02 0.43551306D+00 0.46202215D+05 0.46202215D+05 0.46202215D+05 0.11503253D+01  1  2  5  4  7  2        2 -.143450655171D-06 0.100000000000D+01
  </mgrwgt>
  </event>
  <event>
  9     66 0.27011060E-05 0.23438598E+03 0.75467711E-02 0.10342010E+00
       -2 -1    0    0    0  502 0.00000000E+00 0.00000000E+00 0.76138139E+03 0.76138145E+03 0.32000000E+00 0.0000E+00 0.9000E+01
        2 -1    0    0  501    0 0.00000000E+00 0.00000000E+00 -.27231782E+03 0.27231801E+03 0.32000000E+00 0.0000E+00 0.9000E+01
       25  2    1    2    0    0 -.14982721E+03 -.70603700E+02 -.12135232E+03 0.36361645E+03 0.30009575E+03 0.0000E+00 0.0000E+00
       23  2    1    2    0    0 0.16457564E+03 0.87764990E+02 0.61324285E+03 0.64726679E+03 0.89998175E+02 0.0000E+00 0.0000E+00
       24  1    3    3    0    0 -.16898442E+03 -.69143522E+02 -.17472596E+03 0.26520358E+03 0.80419002E+02 0.0000E+00 0.9000E+01
      -13  1    4    4    0    0 0.40017662E+02 0.31593711E+02 0.66999549E+02 0.84193388E+02 0.10565837E+00 0.0000E+00 0.9000E+01
       13  1    4    4    0    0 0.12455797E+03 0.56171279E+02 0.54624330E+03 0.56307340E+03 0.10565837E+00 0.0000E+00 0.9000E+01
      -24  1    3    3    0    0 0.19157216E+02 -.14601783E+01 0.53373636E+02 0.98412865E+02 0.80419002E+02 0.0000E+00 0.9000E+01
       21  1    1    2  501  502 -.14748428E+02 -.17161290E+02 -.28269620E+01 0.22816227E+02 0.75000000E+00 0.0000E+00 0.9000E+01
#aMCatNLO 2  0  0  1  2 0.22627991D+02 0.00000000D+00  -5  7  0 0.00000000D+00 0.00000000D+00 0.00000000D+00 0.00000000D+00 0.00000000D+00
  <mgrwgt>
 0.3028149588D-03    2    2    0
 0.441422870165878D+03 0.000000000000000D+00 0.000000000000000D+00 0.441422870165878D+03
 0.441422870165878D+03 0.000000000000000D+00 0.000000000000000D+00 -.441422870165878D+03
 0.405183746361538D+03 -.175716232612641D+03 -.769766622375665D+02 -.347714036858428D+03
 0.577909733140497D+02 0.390417240442982D+02 0.304582093995116D+02 0.297966082031090D+02
 0.337215075239991D+03 0.118900087704478D+03 0.495876531804624D+02 0.311637354572641D+03
 0.826559454161773D+02 0.177744208638649D+02 -.306920034240752D+01 0.628007408267774D+01
 0.000000000000000D+00 -.000000000000000D+00 -.000000000000000D+00 -.000000000000000D+00
 0.447436348033820D+03 0.000000000000000D+00 0.000000000000000D+00 0.447436348033820D+03
 0.463380280672898D+03 0.000000000000000D+00 0.000000000000000D+00 -.463380280672898D+03
 0.400885058054648D+03 -.168984424643993D+03 -.691435218690957D+02 -.347714036858428D+03
 0.590542314283833D+02 0.400175458055102D+02 0.315936768498282D+02 0.297966082031090D+02
 0.340276028005778D+03 0.124558091069118D+03 0.561713131373291D+02 0.311637354572641D+03
 0.829203613398072D+02 0.191572158500157D+02 -.146017832666038D+01 0.628007408267774D+01
 0.276809498781029D+02 -.147484280806510D+02 -.171612897914013D+02 -.159439326390779D+02
-.122367833030D-04 0.000000000000D+00 0.000000000000D+00 0.295297859200D-05 0.000000000000D+00  7 -2 2 24 -13 13 -24 21 2 0.11556003D+00 0.39909409D-01 0.54936790D+05 0.54936790D+05 0.54936790D+05 0.11437157D+01  1  2  8  1  7  1       -2 -.152146502811D-03 0.100000000000D+01
0.402544263489D-04 0.000000000000D+00 0.000000000000D+00 0.295297859200D-05 0.400232145235D-07  7 -2 2 24 -13 13 -24 21 2 0.11713430D+00 0.41894597D-01 0.60625010D+05 0.60625010D+05 0.60625010D+05 0.11400067D+01  1  2  1  1  7  1       -2 0.454961461613D-03 0.100000000000D+01
  </mgrwgt>
  </event>
  <event>
  8     66 0.27011060E-05 0.14523696E+03 0.75467711E-02 0.10433816E+00
       -2 -1    0    0    0  501 0.00000000E+00 0.00000000E+00 0.66390341E+02 0.66391112E+02 0.32000000E+00 0.0000E+00 0.9000E+01
        2 -1    0    0  501    0 0.00000000E+00 0.00000000E+00 -.18551476E+04 0.18551476E+04 0.32000000E+00 0.0000E+00 0.9000E+01
       25  2    1    2    0    0 -.66463780E+02 -.70264954E+02 -.32794447E+03 0.45450078E+03 0.29944747E+03 0.0000E+00 0.0000E+00
       23  2    1    2    0    0 0.66463780E+02 0.70264954E+02 -.14608128E+04 0.14670379E+04 0.94190133E+02 0.0000E+00 0.0000E+00
       24  1    3    3    0    0 -.20670889E+02 -.19008860E+02 0.22775279E+02 0.88173418E+02 0.80419002E+02 0.0000E+00 0.9000E+01
      -13  1    4    4    0    0 0.61684054E+02 0.52169489E+02 -.53766930E+03 0.54370476E+03 0.10565837E+00 0.0000E+00 0.9000E+01
       13  1    4    4    0    0 0.47797251E+01 0.18095465E+02 -.92314346E+03 0.92333318E+03 0.10565837E+00 0.0000E+00 0.9000E+01
      -24  1    3    3    0    0 -.45792890E+02 -.51256094E+02 -.35071975E+03 0.36632736E+03 0.80419002E+02 0.0000E+00 0.9000E+01
#aMCatNLO 1  0  0  1  1 0.12903789D+03 0.00000000D+00  -5  7  0 0.00000000D+00 0.00000000D+00 0.00000000D+00 0.00000000D+00 0.00000000D+00
  <mgrwgt>
 0.1166341276D-02    4    2    0
 0.350948213502855D+03 0.000000000000000D+00 0.000000000000000D+00 0.350948213502855D+03
 0.350948213502855D+03 0.000000000000000D+00 0.000000000000000D+00 -.350948213502855D+03
 0.299428913133286D+03 -.206708895986957D+02 -.190088609066160D+02 0.287057199171249D+03
 0.118236596682406D+03 0.616841218285630D+02 0.521695290784317D+02 -.863325092014103D+02
 0.175155400079897D+03 0.477965832150254D+01 0.180954256899508D+02 -.174152590025466D+03
 0.109075517110121D+03 -.457928905513698D+02 -.512560938617665D+02 -.265720999443729D+02
 0.000000000000000D+00 -.000000000000000D+00 -.000000000000000D+00 -.000000000000000D+00
 0.380448819653494D+03 0.000000000000000D+00 0.000000000000000D+00 0.380448819653494D+03
 0.533071192846220D+03 0.000000000000000D+00 0.000000000000000D+00 -.533071192846220D+03
 0.299391407331415D+03 0.261666978838227D+02 0.902591576124898D+01 0.287057199171249D+03
 0.134874079324390D+03 0.814815352179881D+02 0.640193294803223D+02 -.863325092014103D+02
 0.180553231396072D+03 0.326019174794977D+02 0.347485212871777D+02 -.174152590025466D+03
 0.988404250653019D+02 -.295304478822659D+02 -.415221606511277D+02 -.265720999443729D+02
 0.199860869382536D+03 -.110719702699043D+03 -.662716058776212D+02 -.152622373192726D+03
0.183959526703D-04 0.000000000000D+00 0.000000000000D+00 0.215881216420D-06 0.000000000000D+00  7 -2 2 24 -13 13 -24 21 0 0.10213960D-01 0.28540738D+00 0.21093775D+05 0.21093775D+05 0.21093775D+05 0.11818002D+01  1  2  2  1  7  1       -2 0.118681973934D-02 0.100000000000D+01
-.547527855031D-07 0.000000000000D+00 -.706453020194D-07 0.215881216420D-06 0.000000000000D+00  7 -2 2 24 -13 13 -24 21 2 0.10213960D-01 0.28540738D+00 0.21093775D+05 0.21093775D+05 0.21093775D+05 0.11818002D+01  1  2  3  1  7  1       -2 -.493351911971D-05 0.100000000000D+01
0.115846318904D-05 0.000000000000D+00 0.000000000000D+00 0.215881216420D-06 0.000000000000D+00  7 -2 2 24 -13 13 -24 21 2 0.10213960D-01 0.28540738D+00 0.21093775D+05 0.21093775D+05 0.21093775D+05 0.11818002D+01  1  2 15  1  7  1       -2 0.104383735733D-03 0.100000000000D+01
-.133098283572D-05 0.000000000000D+00 0.000000000000D+00 0.215881216420D-06 0.000000000000D+00  7 -2 2 24 -13 13 -24 21 2 0.10213960D-01 0.28540738D+00 0.21093775D+05 0.21093775D+05 0.21093775D+05 0.11818002D+01  1  2  4  1  7  1       -2 -.119928679568D-03 0.100000000000D+01
  </mgrwgt>
  </event>
  <event>
  8     66 0.27011060E-05 0.17827524E+03 0.75467711E-02 0.10287569E+00
       -2 -1    0    0    0  501 0.00000000E+00 0.00000000E+00 0.86687906E+02 0.86688496E+02 0.32000000E+00 0.0000E+00 0.9000E+01
        2 -1    0    0  501    0 0.00000000E+00 0.00000000E+00 -.85499918E+03 0.85499924E+03 0.32000000E+00 0.0000E+00 0.9000E+01
       25  2    1    2    0    0 0.13788123E+03 0.72258802E+02 -.35212447E+03 0.48818299E+03 0.30016399E+03 0.0000E+00 0.0000E+00
       23  2    1    2    0    0 -.13788123E+03 -.72258802E+02 -.41618680E+03 0.45350475E+03 0.90678185E+02 0.0000E+00 0.0000E+00
       24  1    3    3    0    0 0.10947476E+03 0.16271702E+03 -.24600175E+03 0.32472393E+03 0.80419002E+02 0.0000E+00 0.9000E+01
      -13  1    4    4    0    0 -.59478143E+02 -.32698885E+02 -.30156412E+03 0.30910807E+03 0.10565837E+00 0.0000E+00 0.9000E+01
       13  1    4    4    0    0 -.78403087E+02 -.39559918E+02 -.11462268E+03 0.14439668E+03 0.10565837E+00 0.0000E+00 0.9000E+01
      -24  1    3    3    0    0 0.28406471E+02 -.90458218E+02 -.10612272E+03 0.16345906E+03 0.80419002E+02 0.0000E+00 0.9000E+01
#aMCatNLO 1  0  0  1  2 0.21199234D+02 0.00000000D+00  -5  7  0 0.00000000D+00 0.00000000D+00 0.00000000D+00 0.00000000D+00 0.00000000D+00
  <mgrwgt>
 0.1112957626D-02    6    2    0
 0.272246936942961D+03 0.000000000000000D+00 0.000000000000000D+00 0.272246936942961D+03
 0.272246936942961D+03 0.000000000000000D+00 0.000000000000000D+00 -.272246936942961D+03
 0.214479220539382D+03 0.109474759297720D+03 0.162717020349630D+03 0.327500909014691D+02
 0.109070423934080D+03 -.594781180123631D+02 -.326988759436399D+02 -.853785357504437D+02
 0.879912000272497D+02 -.784031126465145D+02 -.395599270827921D+02 0.551501394174105D+01
 0.132953029385210D+03 0.284064713611579D+02 -.904582173231983D+02 0.471134309072336D+02
 0.000000000000000D+00 -.000000000000000D+00 -.000000000000000D+00 -.000000000000000D+00
 0.281959369778690D+03 0.000000000000000D+00 0.000000000000000D+00 0.281959369778690D+03
 0.284272039171759D+03 0.000000000000000D+00 0.000000000000000D+00 -.284272039171759D+03
 0.220989178653026D+03 0.109499194020811D+03 0.171191002047733D+03 0.327500909014691D+02
 0.107873294853077D+03 -.594659450057687D+02 -.284772674275455D+02 -.853785357504437D+02
 0.865088500654926D+02 -.783933212117941D+02 -.361642496156184D+02 0.551501394174105D+01
 0.129535077757677D+03 0.284211999252161D+02 -.853503394151263D+02 0.471134309072336D+02
 0.213250076211758D+02 -.611277284643550D-01 -.211991455894426D+02 -.231266939306823D+01
0.402376398912D-05 0.000000000000D+00 0.000000000000D+00 0.969822056235D-06 0.000000000000D+00  7 -2 2 24 -13 13 -24 21 0 0.13336651D-01 0.13153839D+00 0.60511487D+05 0.60511487D+05 0.60511487D+05 0.11400769D+01  1  2  2  1  7  1       -2 0.609142289239D-03 0.100000000000D+01
-.220747017122D-06 0.000000000000D+00 -.154523131996D-07 0.969822056235D-06 0.000000000000D+00  7 -2 2 24 -13 13 -24 21 2 0.13336651D-01 0.13153839D+00 0.60511487D+05 0.60511487D+05 0.60511487D+05 0.11400769D+01  1  2  3  1  7  1       -2 -.434359586875D-04 0.100000000000D+01
0.262620196613D-06 0.000000000000D+00 0.000000000000D+00 0.969822056235D-06 0.000000000000D+00  7 -2 2 24 -13 13 -24 21 2 0.13336651D-01 0.13153839D+00 0.60511487D+05 0.60511487D+05 0.60511487D+05 0.11400769D+01  1  2 15  1  7  1       -2 0.516752622948D-04 0.100000000000D+01
0.732666446640D-05 0.000000000000D+00 0.000000000000D+00 0.969822056235D-06 0.000000000000D+00  7 -2 2 24 -13 13 -24 21 2 0.14095550D-01 0.13153839D+00 0.65709539D+05 0.65709539D+05 0.65709539D+05 0.11370022D+01  1  2 12  1  7  1       -2 0.131427783406D-02 0.100000000000D+01
-.514017380284D-05 0.000000000000D+00 0.000000000000D+00 0.969822056235D-06 0.000000000000D+00  7 -2 2 24 -13 13 -24 21 2 0.13336651D-01 0.13153839D+00 0.60511487D+05 0.60511487D+05 0.60511487D+05 0.11400769D+01  1  2  4  1  7  1       -2 -.101142194290D-02 0.100000000000D+01
0.776495484892D-07 0.000000000000D+00 0.000000000000D+00 0.969822056235D-06 0.000000000000D+00  7 21 2 24 -13 13 -24 2 2 0.14095550D-01 0.13153839D+00 0.65709539D+05 0.65709539D+05 0.65709539D+05 0.11370022D+01  1  2 12  3  7  1       -2 0.192720141913D-03 0.100000000000D+01
  </mgrwgt>
  </event>
  <event>
  8     66 0.27011060E-05 0.17000554E+03 0.75467711E-02 0.10754184E+00
       -2 -1    0    0    0  501 0.00000000E+00 0.00000000E+00 0.36621579E+02 0.36622977E+02 0.32000000E+00 0.0000E+00 0.9000E+01
        2 -1    0    0  501    0 0.00000000E+00 0.00000000E+00 -.11239257E+04 0.11239257E+04 0.32000000E+00 0.0000E+00 0.9000E+01
       25  2    1    2    0    0 -.15813744E+02 0.35831728E+02 -.79344783E+03 0.85030439E+03 0.30318989E+03 0.0000E+00 0.0000E+00
       23  2    1    2    0    0 0.15813744E+02 -.35831728E+02 -.29385625E+03 0.31024429E+03 0.91466046E+02 0.0000E+00 0.0000E+00
       24  1    3    3    0    0 0.93041845E+02 0.57868594E+02 -.20408876E+03 0.24520399E+03 0.80419002E+02 0.0000E+00 0.9000E+01
      -11  1    4    4    0    0 -.15721952E+02 -.31417259E+02 -.35541396E+02 0.49974140E+02 0.51099893E-03 0.0000E+00 0.9000E+01
       11  1    4    4    0    0 0.31535696E+02 -.44144697E+01 -.25831485E+03 0.26027015E+03 0.51099893E-03 0.0000E+00 0.9000E+01
      -24  1    3    3    0    0 -.10885559E+03 -.22036866E+02 -.58935907E+03 0.60510040E+03 0.80419002E+02 0.0000E+00 0.9000E+01
#aMCatNLO 1  0  0  1  1 0.26150236D+02 0.00000000D+00  -5  7  0 0.00000000D+00 0.00000000D+00 0.00000000D+00 0.00000000D+00 0.00000000D+00
  <mgrwgt>
 0.1817556807D-02    4    2    0
 0.202881171268277D+03 0.000000000000000D+00 0.000000000000000D+00 0.202881171268277D+03
 0.202881171268277D+03 0.000000000000000D+00 0.000000000000000D+00 -.202881171268277D+03
 0.154436757978648D+03 0.930418037375897D+02 0.578686265777029D+02 0.733344467208363D+02
 0.476957115077110D+02 -.157219341612380D+02 -.314172981888072D+02 0.322591856216499D+02
 0.522211971128844D+02 0.315357147030151D+02 -.441451294180798D+01 -.413891797642739D+02
 0.151408675937311D+03 -.108855584279367D+03 -.220368154470877D+02 -.642044525782123D+02
 0.000000000000000D+00 -.000000000000000D+00 0.000000000000000D+00 -.000000000000000D+00
 0.206870042841042D+03 0.000000000000000D+00 0.000000000000000D+00 0.206870042841042D+03
 0.251216753977108D+03 0.000000000000000D+00 0.000000000000000D+00 -.251216753977108D+03
 0.153128294857266D+03 0.961904684671824D+02 0.484820733027802D+02 0.733344467208363D+02
 0.493920554464414D+02 -.147280084058091D+02 -.343803119917590D+02 0.322591856216499D+02
 0.532456221811363D+02 0.326154201214020D+02 -.763324637368497D+01 -.413891797642739D+02
 0.150838151273783D+03 -.105761364322659D+03 -.312610622190604D+02 -.642044525782123D+02
 0.514826730595235D+02 -.831651586011659D+01 0.247925472817242D+02 -.443467111360661D+02
0.534983341113D-05 0.000000000000D+00 0.000000000000D+00 0.136253806388D-07 0.000000000000D+00  7 -2 2 24 -11 11 -24 21 0 0.56342001D-02 0.17291175D+00 0.28901883D+05 0.28901883D+05 0.28901883D+05 0.11688415D+01  1  2  2  1  7  1       -2 0.204368251566D-02 0.100000000000D+01
-.285918600996D-06 0.000000000000D+00 -.205447689422D-07 0.136253806388D-07 0.000000000000D+00  7 -2 2 24 -11 11 -24 21 2 0.56342001D-02 0.17291175D+00 0.28901883D+05 0.28901883D+05 0.28901883D+05 0.11688415D+01  1  2  3  1  7  1       -2 -.149219931814D-03 0.100000000000D+01
0.346822522834D-06 0.000000000000D+00 0.000000000000D+00 0.136253806388D-07 0.000000000000D+00  7 -2 2 24 -11 11 -24 21 2 0.56342001D-02 0.17291175D+00 0.28901883D+05 0.28901883D+05 0.28901883D+05 0.11688415D+01  1  2 15  1  7  1       -2 0.181005478583D-03 0.100000000000D+01
-.494180800169D-06 0.000000000000D+00 0.000000000000D+00 0.136253806388D-07 0.000000000000D+00  7 -2 2 24 -11 11 -24 21 2 0.56342001D-02 0.17291175D+00 0.28901883D+05 0.28901883D+05 0.28901883D+05 0.11688415D+01  1  2  4  1  7  1       -2 -.257911255331D-03 0.100000000000D+01
  </mgrwgt>
  </event>
  <event>
  8     66 0.27011060E-05 0.10630495E+03 0.75467711E-02 0.98833930E-01
       -2 -1    0    0    0  501 0.00000000E+00 0.00000000E+00 0.54709113E+03 0.54709123E+03 0.32000000E+00 0.0000E+00 0.9000E+01
        2 -1    0    0  501    0 0.00000000E+00 0.00000000E+00 -.39340445E+03 0.39340458E+03 0.32000000E+00 0.0000E+00 0.9000E+01
       25  2    1    2    0    0 0.21701141E+03 -.30144693E+02 0.43563599E+03 0.57271683E+03 0.30037177E+03 0.0000E+00 0.0000E+00
       23  2    1    2    0    0 -.21701141E+03 0.30144693E+02 -.28194930E+03 0.36777898E+03 0.88109693E+02 0.0000E+00 0.0000E+00
       24  1    3    3    0    0 0.23164722E+03 0.24760442E+02 0.39629545E+03 0.46668063E+03 0.80419002E+02 0.0000E+00 0.9000E+01
      -13  1    4    4    0    0 -.21480501E+03 0.11666560E+02 -.27163897E+03 0.34650403E+03 0.10565837E+00 0.0000E+00 0.9000E+01
       13  1    4    4    0    0 -.22063989E+01 0.18478133E+02 -.10310332E+02 0.21274955E+02 0.10565837E+00 0.0000E+00 0.9000E+01
      -24  1    3    3    0    0 -.14635814E+02 -.54905135E+02 0.39340542E+02 0.10603620E+03 0.80419002E+02 0.0000E+00 0.9000E+01
#aMCatNLO 1  0  0  2  1 0.11933407D+03 0.00000000D+00  -5  7  0 0.00000000D+00 0.00000000D+00 0.00000000D+00 0.00000000D+00 0.00000000D+00
  <mgrwgt>
 0.8900285448D-03    9    2    0
 0.463926925920488D+03 0.000000000000000D+00 0.000000000000000D+00 0.463926925920488D+03
 0.463926925920488D+03 0.000000000000000D+00 0.000000000000000D+00 -.463926925920488D+03
 0.407398043094537D+03 0.231647219584865D+03 0.247604419537168D+02 0.324395492779641D+03
 0.396219055371286D+03 -.214805312127326D+03 0.116665500707921D+02 -.332734292387547D+03
 0.232720581325471D+02 -.220609325234139D+01 0.184781426712496D+02 -.139742651222727D+02
 0.100964695242605D+03 -.146358142051975D+02 -.549051346957585D+02 0.223130647301797D+02
 0.000000000000000D+00 -.000000000000000D+00 0.000000000000000D+00 -.000000000000000D+00
 0.513417917667396D+03 0.000000000000000D+00 0.000000000000000D+00 0.513417917667396D+03
 0.545702504108666D+03 0.000000000000000D+00 0.000000000000000D+00 -.545702504108666D+03
 0.431099458647885D+03 0.272094729048593D+03 -.105617224142594D+02 0.324395492779641D+03
 0.377686698453609D+03 -.177473584558885D+03 -.209346517039544D+02 -.332734292387547D+03
 0.216868167126730D+02 -.373634564841860D-01 0.165842255590553D+02 -.139742651222727D+02
 0.105023360188417D+03 -.469934593409618D+01 -.635824938252189D+02 0.223130647301797D+02
 0.123624087773477D+03 -.898844350991277D+02 0.784946423843774D+02 -.322845864412703D+02
0.564643882783D-04 0.000000000000D+00 0.000000000000D+00 0.613540778790D-06 0.000000000000D+00  7 -2 2 24 -13 13 -24 21 0 0.84167884D-01 0.60523779D-01 0.83710652D+05 0.83710652D+05 0.83710652D+05 0.11281144D+01  1  2  2  2  7  2        2 0.717050699053D-03 0.100000000000D+01
-.228660769638D-05 0.000000000000D+00 -.216838118404D-06 0.613540778790D-06 0.000000000000D+00  7 -2 2 24 -13 13 -24 21 2 0.84167884D-01 0.60523779D-01 0.83710652D+05 0.83710652D+05 0.83710652D+05 0.11281144D+01  1  2  3  2  7  2        2 -.369549978977D-04 0.100000000000D+01
0.354227583738D-05 0.000000000000D+00 0.000000000000D+00 0.613540778790D-06 0.000000000000D+00  7 -2 2 24 -13 13 -24 21 2 0.84167884D-01 0.60523779D-01 0.83710652D+05 0.83710652D+05 0.83710652D+05 0.11281144D+01  1  2 15  2  7  2        2 0.572484717561D-04 0.100000000000D+01
0.420074856717D-04 0.000000000000D+00 0.000000000000D+00 0.613540778790D-06 0.000000000000D+00  7 -2 2 24 -13 13 -24 21 2 0.84167884D-01 0.73956218D-01 0.12291148D+06 0.12291148D+06 0.12291148D+06 0.11144433D+01  1  2 12  2  7  2        2 0.526642596058D-03 0.100000000000D+01
-.493003763307D-04 0.000000000000D+00 0.000000000000D+00 0.613540778790D-06 0.000000000000D+00  7 -2 2 24 -13 13 -24 21 2 0.84167884D-01 0.60523779D-01 0.83710652D+05 0.83710652D+05 0.83710652D+05 0.11281144D+01  1  2  4  2  7  2        2 -.796767764991D-03 0.100000000000D+01
-.869305438801D-04 0.000000000000D+00 -.358433788945D-04 0.613540778790D-06 0.000000000000D+00  7 -2 2 24 -13 13 -24 21 2 0.84167884D-01 0.77500733D-01 0.83710652D+05 0.83710652D+05 0.83710652D+05 0.11281144D+01  1  2  5  2  7  2        2 -.107068776994D-02 0.100000000000D+01
0.939741081040D-04 0.000000000000D+00 0.347750011043D-04 0.613540778790D-06 0.000000000000D+00  7 -2 2 24 -13 13 -24 21 2 0.84167884D-01 0.60523779D-01 0.83710652D+05 0.83710652D+05 0.83710652D+05 0.11281144D+01  1  2  6  2  7  2        2 0.151876203903D-02 0.100000000000D+01
0.120413394189D-05 0.000000000000D+00 0.000000000000D+00 0.613540778790D-06 0.000000000000D+00  7 -2 21 24 -13 13 -24 -2 2 0.84167884D-01 0.73956218D-01 0.12291148D+06 0.12291148D+06 0.12291148D+06 0.11144433D+01  1  2 12  4  7  2        2 0.308141454470D-04 0.100000000000D+01
-.232819708727D-05 0.000000000000D+00 -.120319346940D-05 0.613540778790D-06 0.000000000000D+00  7 -2 21 24 -13 13 -24 -2 2 0.84167884D-01 0.77500733D-01 0.83710652D+05 0.83710652D+05 0.83710652D+05 0.11281144D+01  1  2  5  4  7  2        2 -.560788737564D-04 0.100000000000D+01
  </mgrwgt>
  </event>
  <event>
  8     66 0.27011060E-05 0.15046837E+03 0.75467711E-02 0.10569850E+00
       -2 -1    0    0    0  501 0.00000000E+00 0.00000000E+00 0.82910758E+02 0.82911375E+02 0.32000000E+00 0.0000E+00 0.9000E+01
        2 -1    0    0  501    0 0.00000000E+00 0.00000000E+00 -.15586309E+04 0.15586309E+04 0.32000000E+00 0.0000E+00 0.9000E+01
       25  2    1    2    0    0 -.81454169E+02 0.48690950E+01 -.14868582E+04 0.15187721E+04 0.29876899E+03 0.0000E+00 0.0000E+00
       23  2    1    2    0    0 0.81454169E+02 -.48690950E+01 0.11138079E+02 0.12277018E+03 0.91049279E+02 0.0000E+00 0.0000E+00
       24  1    3    3    0    0 0.32993846E+02 -.95520121E+02 -.81679073E+03 0.82693833E+03 0.80419002E+02 0.0000E+00 0.9000E+01
      -11  1    4    4    0    0 0.74428369E+02 0.11069561E+02 0.42847834E+02 0.86591305E+02 0.51099893E-03 0.0000E+00 0.9000E+01
       11  1    4    4    0    0 0.70258004E+01 -.15938656E+02 -.31709755E+02 0.36178877E+02 0.51099893E-03 0.0000E+00 0.9000E+01
      -24  1    3    3    0    0 -.11444801E+03 0.10038922E+03 -.67006746E+03 0.69183377E+03 0.80419002E+02 0.0000E+00 0.9000E+01
#aMCatNLO 1  0  0  1  2 0.23913222D+02 0.00000000D+00  -5  7  0 0.00000000D+00 0.00000000D+00 0.00000000D+00 0.00000000D+00 0.00000000D+00
  <mgrwgt>
 0.8096906181D-03    9    2    0
 0.359482684631026D+03 0.000000000000000D+00 0.000000000000000D+00 0.359482684631026D+03
 0.359482684631026D+03 0.000000000000000D+00 0.000000000000000D+00 -.359482684631026D+03
 0.211553611726792D+03 0.329938457934198D+02 -.955201211915227D+02 -.167556042169767D+03
 0.285653116254984D+03 0.744283685208023D+02 0.110695607385853D+02 0.275564122502495D+03
 0.175174415349208D+02 0.702580035569949D+01 -.159386556962035D+02 0.185960799339556D+01
 0.204241199745356D+03 -.114448014669922D+03 0.100389216149141D+03 -.109867688326123D+03
 0.000000000000000D+00 0.000000000000000D+00 0.000000000000000D+00 0.000000000000000D+00
 0.375870737888820D+03 0.000000000000000D+00 0.000000000000000D+00 0.375870737888820D+03
 0.368512048166692D+03 0.000000000000000D+00 0.000000000000000D+00 -.368512048166692D+03
 0.214626397656926D+03 0.318393785182544D+02 -.102510981483903D+03 -.167556042169767D+03
 0.285044471252667D+03 0.728824215634446D+02 0.170810075543517D+01 0.275564122502495D+03
 0.180120991184978D+02 0.692955536277891D+01 -.165214658925796D+02 0.185960799339556D+01
 0.201679975421003D+03 -.115547603347729D+03 0.937306724285891D+02 -.109867688326123D+03
 0.250198426064193D+02 0.389624790325134D+01 0.235936741924579D+02 0.735868972212775D+01
0.105949720385D-04 0.000000000000D+00 0.000000000000D+00 0.888581294699D-06 0.000000000000D+00  7 -2 2 24 -11 11 -24 21 0 0.12755551D-01 0.23978942D+00 0.38806882D+05 0.38806882D+05 0.38806882D+05 0.11571040D+01  1  2  2  1  7  1       -2 0.686737232361D-03 0.100000000000D+01
-.329689902109D-06 0.000000000000D+00 -.406874823482D-07 0.888581294699D-06 0.000000000000D+00  7 -2 2 24 -11 11 -24 21 2 0.12755551D-01 0.23978942D+00 0.38806882D+05 0.38806882D+05 0.38806882D+05 0.11571040D+01  1  2  3  1  7  1       -2 -.286115396726D-04 0.100000000000D+01
0.641950134260D-06 0.000000000000D+00 0.000000000000D+00 0.888581294699D-06 0.000000000000D+00  7 -2 2 24 -11 11 -24 21 2 0.12755551D-01 0.23978942D+00 0.38806882D+05 0.38806882D+05 0.38806882D+05 0.11571040D+01  1  2 15  1  7  1       -2 0.557104770777D-04 0.100000000000D+01
0.263577216345D-04 0.000000000000D+00 0.000000000000D+00 0.888581294699D-06 0.000000000000D+00  7 -2 2 24 -11 11 -24 21 2 0.13491524D-01 0.23978942D+00 0.43677488D+05 0.43677488D+05 0.43677488D+05 0.11524958D+01  1  2 12  1  7  1       -2 0.207510397902D-02 0.100000000000D+01
-.241415574913D-04 0.000000000000D+00 0.000000000000D+00 0.888581294699D-06 0.000000000000D+00  7 -2 2 24 -11 11 -24 21 2 0.12755551D-01 0.23978942D+00 0.38806882D+05 0.38806882D+05 0.38806882D+05 0.11571040D+01  1  2  4  1  7  1       -2 -.209508124301D-02 0.100000000000D+01
-.936213207709D-04 0.000000000000D+00 -.195360333072D-04 0.888581294699D-06 0.000000000000D+00  7 -2 2 24 -11 11 -24 21 2 0.13692941D-01 0.23978942D+00 0.38806882D+05 0.38806882D+05 0.38806882D+05 0.11571040D+01  1  2  5  1  7  1       -2 -.727318343850D-02 0.100000000000D+01
0.948172075055D-04 0.000000000000D+00 0.194870148677D-04 0.888581294699D-06 0.000000000000D+00  7 -2 2 24 -11 11 -24 21 2 0.12755551D-01 0.23978942D+00 0.38806882D+05 0.38806882D+05 0.38806882D+05 0.11571040D+01  1  2  6  1  7  1       -2 0.822853923287D-02 0.100000000000D+01
0.317084975067D-06 0.000000000000D+00 0.000000000000D+00 0.888581294699D-06 0.000000000000D+00  7 21 2 24 -11 11 -24 2 2 0.13491524D-01 0.23978942D+00 0.43677488D+05 0.43677488D+05 0.43677488D+05 0.11524958D+01  1  2 12  3  7  1       -2 0.351375991812D-03 0.100000000000D+01
-.108900512353D-05 0.000000000000D+00 -.234267241749D-06 0.888581294699D-06 0.000000000000D+00  7 21 2 24 -11 11 -24 2 2 0.13692941D-01 0.23978942D+00 0.38806882D+05 0.38806882D+05 0.38806882D+05 0.11571040D+01  1  2  5  3  7  1       -2 -.119090007385D-02 0.100000000000D+01
  </mgrwgt>
  </event>
  <event>
  8     66 0.27011060E-05 0.42491998E+03 0.75467711E-02 0.94272299E-01
       -2 -1    0    0    0  501 0.00000000E+00 0.00000000E+00 0.24783194E+03 0.24783214E+03 0.32000000E+00 0.0000E+00 0.9000E+01
        2 -1    0    0  501    0 0.00000000E+00 0.00000000E+00 -.83446433E+03 0.83446439E+03 0.32000000E+00 0.0000E+00 0.9000E+01
       25  2    1    2    0    0 -.22529649E+03 -.29358491E+03 -.13904827E+03 0.49606639E+03 0.29966121E+03 0.0000E+00 0.0000E+00
       23  2    1    2    0    0 0.22529649E+03 0.29358491E+03 -.44758413E+03 0.58623014E+03 0.79897589E+02 0.0000E+00 0.0000E+00
       24  1    3    3    0    0 -.22372831E+03 -.93164410E+02 -.39931463E+02 0.25844865E+03 0.80419002E+02 0.0000E+00 0.9000E+01
      -13  1    4    4    0    0 0.21699624E+03 0.23695855E+03 -.37616313E+03 0.49470742E+03 0.10565837E+00 0.0000E+00 0.9000E+01
       13  1    4    4    0    0 0.83002505E+01 0.56626363E+02 -.71420992E+02 0.91522721E+02 0.10565837E+00 0.0000E+00 0.9000E+01
      -24  1    3    3    0    0 -.15681709E+01 -.20042050E+03 -.99116804E+02 0.23761775E+03 0.80419002E+02 0.0000E+00 0.9000E+01
#aMCatNLO 1  0  0  1  2 0.16491960D+03 0.00000000D+00  -5  7  0 0.00000000D+00 0.00000000D+00 0.00000000D+00 0.00000000D+00 0.00000000D+00
  <mgrwgt>
 0.1534553965D-02    4    2    0
 0.454760439215170D+03 0.000000000000000D+00 0.000000000000000D+00 0.454760439215170D+03
 0.454760439215170D+03 0.000000000000000D+00 0.000000000000000D+00 -.454760439215170D+03
 0.281789008963502D+03 -.223728314663960D+03 -.931644095525398D+02 0.119179963201089D+03
 0.346062534872223D+03 0.216996599666780D+03 0.236958862767139D+03 -.128538909017264D+03
 0.628423238171225D+02 0.829988593496471D+01 0.566260472751003D+02 -.259568936161622D+02
 0.218827010777492D+03 -.156817093778480D+01 -.200420500489699D+03 0.353158394323366D+02
 0.000000000000000D+00 -.000000000000000D+00 -.000000000000000D+00 -.000000000000000D+00
 0.493364618155951D+03 0.000000000000000D+00 0.000000000000000D+00 0.493364618155951D+03
 0.680192204702966D+03 0.000000000000000D+00 0.000000000000000D+00 -.680192204702966D+03
 0.267443856043750D+03 -.221209200368268D+03 -.438363573417965D+02 0.119179963201089D+03
 0.396623248709839D+03 0.220403006118083D+03 0.303661431828131D+03 -.128538909017264D+03
 0.741982241686216D+02 0.892843682023582D+01 0.689340203348341D+02 -.259568936161622D+02
 0.186086715829717D+03 0.289008452244044D+00 -.164054130741116D+03 0.353158394323366D+02
 0.249204778106989D+03 -.841125102229473D+01 -.164704964080052D+03 -.186827586547015D+03
0.649674200927D-04 0.000000000000D+00 0.000000000000D+00 0.211460565602D-07 0.000000000000D+00  7 -2 2 24 -13 13 -24 21 0 0.38128011D-01 0.12837915D+00 0.18055699D+06 0.18055699D+06 0.18055699D+06 0.11012530D+01  1  2  2  1  7  1       -2 0.170097280408D-02 0.100000000000D+01
-.358908679219D-05 0.000000000000D+00 -.249491999470D-06 0.211460565602D-07 0.000000000000D+00  7 -2 2 24 -13 13 -24 21 2 0.38128011D-01 0.12837915D+00 0.18055699D+06 0.18055699D+06 0.18055699D+06 0.11012530D+01  1  2  3  1  7  1       -2 -.113961963045D-03 0.100000000000D+01
0.426312050393D-05 0.000000000000D+00 0.000000000000D+00 0.211460565602D-07 0.000000000000D+00  7 -2 2 24 -13 13 -24 21 2 0.38128011D-01 0.12837915D+00 0.18055699D+06 0.18055699D+06 0.18055699D+06 0.11012530D+01  1  2 15  1  7  1       -2 0.135364121699D-03 0.100000000000D+01
-.591518297479D-05 0.000000000000D+00 0.000000000000D+00 0.211460565602D-07 0.000000000000D+00  7 -2 2 24 -13 13 -24 21 2 0.38128011D-01 0.12837915D+00 0.18055699D+06 0.18055699D+06 0.18055699D+06 0.11012530D+01  1  2  4  1  7  1       -2 -.187820998100D-03 0.100000000000D+01
  </mgrwgt>
  </event>
  <event>
  8     66 0.27011060E-05 0.53992062E+03 0.75467711E-02 0.88093708E-01
       -2 -1    0    0    0  501 0.00000000E+00 0.00000000E+00 0.13627405E+04 0.13627405E+04 0.32000000E+00 0.0000E+00 0.9000E+01
        2 -1    0    0  501    0 0.00000000E+00 0.00000000E+00 -.28389157E+03 0.28389175E+03 0.32000000E+00 0.0000E+00 0.9000E+01
       25  2    1    2    0    0 -.26239897E+03 -.45033418E+03 0.22454187E+03 0.64173394E+03 0.29958188E+03 0.0000E+00 0.0000E+00
       23  2    1    2    0    0 0.26239897E+03 0.45033418E+03 0.85430707E+03 0.10048983E+04 0.91247109E+02 0.0000E+00 0.0000E+00
       24  1    3    3    0    0 -.13823872E+03 -.30328793E+03 0.10736177E+02 0.34303935E+03 0.80419002E+02 0.0000E+00 0.9000E+01
      -13  1    4    4    0    0 0.13484033E+03 0.31378008E+03 0.52640387E+03 0.62748776E+03 0.10565837E+00 0.0000E+00 0.9000E+01
       13  1    4    4    0    0 0.12755865E+03 0.13655410E+03 0.32790320E+03 0.37741059E+03 0.10565837E+00 0.0000E+00 0.9000E+01
      -24  1    3    3    0    0 -.12416025E+03 -.14704624E+03 0.21380569E+03 0.29869459E+03 0.80419002E+02 0.0000E+00 0.9000E+01
#aMCatNLO 1  0  0  1  1 0.64572806D+03 0.00000000D+00  -5  7  0 0.00000000D+00 0.00000000D+00 0.00000000D+00 0.00000000D+00 0.00000000D+00
  <mgrwgt>
 0.5300601166D-03    3    2    0
 0.621989321418871D+03 0.000000000000000D+00 0.000000000000000D+00 0.621989321418871D+03
 0.621989321418871D+03 0.000000000000000D+00 0.000000000000000D+00 -.621989321418871D+03
 0.444764033038292D+03 -.138238719679806D+03 -.303287934773643D+03 -.283291923873842D+03
 0.374067213737470D+03 0.134840336002889D+03 0.313780315901229D+03 0.152598419168965D+03
 0.215195151813814D+03 0.127558637638809D+03 0.136553862487742D+03 0.106727643877209D+03
 0.209952244248166D+03 -.124160253961892D+03 -.147046243615328D+03 0.239658608276681D+02
 0.000000000000000D+00 -.000000000000000D+00 -.000000000000000D+00 -.000000000000000D+00
 0.739476799274966D+03 0.000000000000000D+00 0.000000000000000D+00 0.739476799274966D+03
 0.339554557208608D+04 0.000000000000000D+00 0.000000000000000D+00 -.339554557208608D+04
 0.342997745679967D+03 0.566563078367798D+01 -.175766390652051D+03 -.283291923873842D+03
 0.581869225513997D+03 0.309465985648754D+03 0.468525689577250D+03 0.152598419168965D+03
 0.339026510462479D+03 0.228801056955508D+03 0.226270327627879D+03 0.106727643877209D+03
 0.137694044189901D+03 -.606539825480650D+02 -.907698505388646D+02 0.239658608276681D+02
 0.273343484551470D+04 -.483278690839875D+03 -.428259776014212D+03 -.265606877281111D+04
0.342055843771D-03 0.000000000000D+00 0.000000000000D+00 0.247031131563D-05 0.000000000000D+00  7 -2 2 24 -13 13 -24 21 0 0.20965240D+00 0.43675642D-01 0.29151427D+06 0.29151427D+06 0.29151427D+06 0.10854750D+01  1  2  2  1  7  1       -2 0.526144019841D-03 0.100000000000D+01
-.185404830881D-04 0.000000000000D+00 -.131358450545D-05 0.247031131563D-05 0.000000000000D+00  7 -2 2 24 -13 13 -24 21 2 0.20965240D+00 0.43675642D-01 0.29151427D+06 0.29151427D+06 0.29151427D+06 0.10854750D+01  1  2  3  1  7  1       -2 -.336022484802D-04 0.100000000000D+01
0.207012410663D-04 0.000000000000D+00 0.000000000000D+00 0.247031131563D-05 0.000000000000D+00  7 -2 2 24 -13 13 -24 21 2 0.20965240D+00 0.43675642D-01 0.29151427D+06 0.29151427D+06 0.29151427D+06 0.10854750D+01  1  2 15  1  7  1       -2 0.375183452802D-04 0.100000000000D+01
  </mgrwgt>
  </event>
  <event>
  8     66 0.27011060E-05 0.15103012E+03 0.75467711E-02 0.10477636E+00
       -2 -1    0    0    0  501 0.00000000E+00 0.00000000E+00 0.63035335E+02 0.63036147E+02 0.32000000E+00 0.0000E+00 0.9000E+01
        2 -1    0    0  501    0 0.00000000E+00 0.00000000E+00 -.13290591E+04 0.13290591E+04 0.32000000E+00 0.0000E+00 0.9000E+01
       25  2    1    2    0    0 0.14904551E+02 0.73087923E+02 -.12336267E+04 0.12716934E+04 0.29967530E+03 0.0000E+00 0.0000E+00
       23  2    1    2    0    0 -.14904551E+02 -.73087923E+02 -.32396994E+02 0.12040181E+03 0.88786494E+02 0.0000E+00 0.0000E+00
       24  1    3    3    0    0 -.20793409E+02 0.64332669E+02 -.14278146E+03 0.17727047E+03 0.80419002E+02 0.0000E+00 0.9000E+01
      -13  1    4    4    0    0 -.37681706E+02 -.76754878E+02 -.65501959E+01 0.85756274E+02 0.10565837E+00 0.0000E+00 0.9000E+01
       13  1    4    4    0    0 0.22777155E+02 0.36669546E+01 -.25846799E+02 0.34645541E+02 0.10565837E+00 0.0000E+00 0.9000E+01
      -24  1    3    3    0    0 0.35697960E+02 0.87552544E+01 -.10908453E+04 0.10944230E+04 0.80419002E+02 0.0000E+00 0.9000E+01
#aMCatNLO 1  0  0  2  1 0.13733326D+03 0.00000000D+00  -5  7  0 0.00000000D+00 0.00000000D+00 0.00000000D+00 0.00000000D+00 0.00000000D+00
  <mgrwgt>
 0.1003810818D-02    7    2    0
 0.289444772375735D+03 0.000000000000000D+00 0.000000000000000D+00 0.289444772375735D+03
 0.289444772375735D+03 0.000000000000000D+00 0.000000000000000D+00 -.289444772375735D+03
 0.114033260557358D+03 -.207934088451114D+02 0.643326689703858D+02 0.443318216489982D+02
 0.191899017073809D+03 -.376817911472362D+02 -.767549920155614D+02 0.171796352029143D+03
 0.267876618179886D+02 0.227772403817179D+02 0.366706829605786D+01 0.136135504693084D+02
 0.246169605302314D+03 0.356979596106297D+02 0.875525474911773D+01 -.229741724147449D+03
 0.000000000000000D+00 -.000000000000000D+00 -.000000000000000D+00 -.000000000000000D+00
 0.361097729524429D+03 0.000000000000000D+00 0.000000000000000D+00 0.361097729524429D+03
 0.371592708236080D+03 0.000000000000000D+00 0.000000000000000D+00 -.371592708236080D+03
 0.130617302557555D+03 -.132394339613646D+02 0.919405827189789D+02 0.443318216489982D+02
 0.177302513941649D+03 -.262821072191773D+02 -.350919608974369D+02 0.171796352029143D+03
 0.297963615885895D+02 0.245243620159071D+02 0.100523666492173D+02 0.136135504693084D+02
 0.257240568375892D+03 0.512415486372433D+02 0.655632362150923D+02 -.229741724147449D+03
 0.137733691296824D+03 -.362443694726086D+02 -.132464224685852D+03 -.104949787116511D+02
0.809758672864D-05 0.000000000000D+00 0.000000000000D+00 0.364461649798D-06 0.000000000000D+00  7 -2 2 24 -13 13 -24 21 0 0.96978093D-02 0.20447069D+00 0.22810096D+05 0.22810096D+05 0.22810096D+05 0.11785401D+01  1  2  2  2  7  2        2 0.106213351769D-02 0.100000000000D+01
-.218425347512D-06 0.000000000000D+00 -.310968651815D-07 0.364461649798D-06 0.000000000000D+00  7 -2 2 24 -13 13 -24 21 2 0.96978093D-02 0.20447069D+00 0.22810096D+05 0.22810096D+05 0.22810096D+05 0.11785401D+01  1  2  3  2  7  2        2 -.397937836361D-04 0.100000000000D+01
0.479846698591D-06 0.000000000000D+00 0.000000000000D+00 0.364461649798D-06 0.000000000000D+00  7 -2 2 24 -13 13 -24 21 2 0.96978093D-02 0.20447069D+00 0.22810096D+05 0.22810096D+05 0.22810096D+05 0.11785401D+01  1  2 15  2  7  2        2 0.874207866428D-04 0.100000000000D+01
-.323689535866D-05 0.000000000000D+00 0.000000000000D+00 0.364461649798D-06 0.000000000000D+00  7 -2 2 24 -13 13 -24 21 2 0.96978093D-02 0.20447069D+00 0.22810096D+05 0.22810096D+05 0.22810096D+05 0.11785401D+01  1  2  4  2  7  2        2 -.589713213335D-03 0.100000000000D+01
-.300028684781D-05 0.000000000000D+00 -.316197722469D-05 0.364461649798D-06 0.000000000000D+00  7 -2 2 24 -13 13 -24 21 2 0.96978093D-02 0.29784577D+00 0.22810096D+05 0.22810096D+05 0.22810096D+05 0.11785401D+01  1  2  5  2  7  2        2 -.263643305289D-03 0.100000000000D+01
0.410690733425D-05 0.000000000000D+00 0.295075365028D-05 0.364461649798D-06 0.000000000000D+00  7 -2 2 24 -13 13 -24 21 2 0.96978093D-02 0.20447069D+00 0.22810096D+05 0.22810096D+05 0.22810096D+05 0.11785401D+01  1  2  6  2  7  2        2 0.748216192553D-03 0.100000000000D+01
-.374059117956D-07 0.000000000000D+00 -.143905111356D-06 0.364461649798D-06 0.000000000000D+00  7 -2 21 24 -13 13 -24 -2 2 0.96978093D-02 0.29784577D+00 0.22810096D+05 0.22810096D+05 0.22810096D+05 0.11785401D+01  1  2  5  4  7  2        2 -.809376140778D-06 0.100000000000D+01
  </mgrwgt>
  </event>
  <event>
  8     66 0.27011060E-05 0.74165202E+03 0.75467711E-02 0.89844919E-01
       -2 -1    0    0    0  501 0.00000000E+00 0.00000000E+00 0.26243108E+03 0.26243128E+03 0.32000000E+00 0.0000E+00 0.9000E+01
        2 -1    0    0  501    0 0.00000000E+00 0.00000000E+00 -.36749415E+04 0.36749415E+04 0.32000000E+00 0.0000E+00 0.9000E+01
       25  2    1    2    0    0 -.54871817E+03 -.46953781E+03 -.30007682E+04 0.31010049E+04 0.30010660E+03 0.0000E+00 0.0000E+00
       23  2    1    2    0    0 0.54871817E+03 0.46953781E+03 -.41174220E+03 0.83636792E+03 0.91772891E+02 0.0000E+00 0.0000E+00
       24  1    3    3    0    0 -.26592077E+03 -.12117094E+03 -.15829889E+04 0.16117435E+04 0.80419002E+02 0.0000E+00 0.9000E+01
      -11  1    4    4    0    0 0.53707788E+03 0.46845262E+03 -.39184785E+03 0.81329284E+03 0.51099893E-03 0.0000E+00 0.9000E+01
       11  1    4    4    0    0 0.11640288E+02 0.10851934E+01 -.19894347E+02 0.23075073E+02 0.51099893E-03 0.0000E+00 0.9000E+01
      -24  1    3    3    0    0 -.28279740E+03 -.34836687E+03 -.14177794E+04 0.14892614E+04 0.80419002E+02 0.0000E+00 0.9000E+01
#aMCatNLO 1  0  0  1  1 0.75524994D+02 0.00000000D+00  -5  7  0 0.00000000D+00 0.00000000D+00 0.00000000D+00 0.00000000D+00 0.00000000D+00
  <mgrwgt>
 0.9469734981D-03    4    2    0
 0.982048523205941D+03 0.000000000000000D+00 0.000000000000000D+00 0.982048523205941D+03
 0.982048523205941D+03 0.000000000000000D+00 0.000000000000000D+00 -.982048523205941D+03
 0.480663185031680D+03 -.265920771332908D+03 -.121170938004420D+03 -.373059819127266D+03
 0.949572352568823D+03 0.537077884215936D+03 0.468452618912811D+03 0.627524615360188D+03
 0.116926491417039D+02 0.116402877203828D+02 0.108519336131386D+01 0.210002633925022D+00
 0.522168859669675D+03 -.282797400603410D+03 -.348366874269704D+03 -.254674798866847D+03
 0.000000000000000D+00 -.000000000000000D+00 -.000000000000000D+00 -.000000000000000D+00
 0.990242900721629D+03 0.000000000000000D+00 0.000000000000000D+00 0.990242900721629D+03
 0.117370759051572D+04 0.000000000000000D+00 0.000000000000000D+00 -.117370759051572D+04
 0.470523648222361D+03 -.247674852880343D+03 -.120036770139578D+03 -.373059819127266D+03
 0.972004026618590D+03 0.573938072655555D+03 0.470743851405654D+03 0.627524615360188D+03
 0.121506184810052D+02 0.120976556122388D+02 0.111362338892265D+01 0.210002633925022D+00
 0.510870289766204D+03 -.262981369283431D+03 -.347135108053590D+03 -.254674798866847D+03
 0.198401908149190D+03 -.753795061040197D+02 -.468559660140832D+01 -.183464689794092D+03
0.229252356162D-02 0.000000000000D+00 0.000000000000D+00 0.357093093517D-04 0.000000000000D+00  7 -2 2 24 -11 11 -24 21 0 0.40374029D-01 0.56537564D+00 0.55004772D+06 0.55004772D+06 0.55004772D+06 0.10655946D+01  1  2  2  1  7  1       -2 0.980426318809D-03 0.100000000000D+01
-.115155811904D-03 0.000000000000D+00 -.880389411192D-05 0.357093093517D-04 0.000000000000D+00  7 -2 2 24 -11 11 -24 21 2 0.40374029D-01 0.56537564D+00 0.55004772D+06 0.55004772D+06 0.55004772D+06 0.10655946D+01  1  2  3  1  7  1       -2 -.559204970386D-04 0.100000000000D+01
0.140098797971D-03 0.000000000000D+00 0.000000000000D+00 0.357093093517D-04 0.000000000000D+00  7 -2 2 24 -11 11 -24 21 2 0.40374029D-01 0.56537564D+00 0.55004772D+06 0.55004772D+06 0.55004772D+06 0.10655946D+01  1  2 15  1  7  1       -2 0.680329918871D-04 0.100000000000D+01
-.938316213377D-04 0.000000000000D+00 0.000000000000D+00 0.357093093517D-04 0.000000000000D+00  7 -2 2 24 -11 11 -24 21 2 0.40374029D-01 0.56537564D+00 0.55004772D+06 0.55004772D+06 0.55004772D+06 0.10655946D+01  1  2  4  1  7  1       -2 -.455653155179D-04 0.100000000000D+01
  </mgrwgt>
  </event>
  <event>
  8     66 0.27011060E-05 0.32843701E+03 0.75467711E-02 0.92679682E-01
       -2 -1    0    0    0  501 0.00000000E+00 0.00000000E+00 0.32076174E+03 0.32076190E+03 0.32000000E+00 0.0000E+00 0.9000E+01
        2 -1    0    0  501    0 0.00000000E+00 0.00000000E+00 -.45751327E+03 0.45751338E+03 0.32000000E+00 0.0000E+00 0.9000E+01
       25  2    1    2    0    0 0.27948484E+03 0.44941476E+02 -.22122891E+03 0.46876103E+03 0.30110323E+03 0.0000E+00 0.0000E+00
       23  2    1    2    0    0 -.27948484E+03 -.44941476E+02 0.84477375E+02 0.30951425E+03 0.92364124E+02 0.0000E+00 0.0000E+00
       24  1    3    3    0    0 0.85147957E+02 0.10220877E+03 -.19475106E+03 0.24918266E+03 0.80419002E+02 0.0000E+00 0.9000E+01
      -11  1    4    4    0    0 -.74202058E+02 -.18481794E+02 0.67222180E+02 0.10181524E+03 0.51099893E-03 0.0000E+00 0.9000E+01
       11  1    4    4    0    0 -.20528279E+03 -.26459682E+02 0.17255195E+02 0.20769901E+03 0.51099893E-03 0.0000E+00 0.9000E+01
      -24  1    3    3    0    0 0.19433689E+03 -.57267293E+02 -.26477854E+02 0.21957837E+03 0.80419002E+02 0.0000E+00 0.9000E+01
#aMCatNLO 1  0  0  2  1 0.42090489D+03 0.00000000D+00  -5  7  0 0.00000000D+00 0.00000000D+00 0.00000000D+00 0.00000000D+00 0.00000000D+00
  <mgrwgt>
 0.6543020075D-03    5    2    0
 0.383083356257144D+03 0.000000000000000D+00 0.000000000000000D+00 0.383083356257144D+03
 0.383083356257144D+03 0.000000000000000D+00 0.000000000000000D+00 -.383083356257144D+03
 0.218360044310249D+03 0.851479567906338D+02 0.102208769104813D+03 -.153352815328779D+03
 0.115422689971483D+03 -.742020576102609D+02 -.184817941888875D+02 0.864573611106438D+02
 0.214061348618194D+03 -.205282785866035D+03 -.264596821211850D+02 0.545996705243294D+02
 0.218322629614362D+03 0.194336886685663D+03 -.572672927947404D+02 0.122957836938060D+02
 0.000000000000000D+00 0.000000000000000D+00 0.000000000000000D+00 -.000000000000000D+00
 0.628054062244344D+03 0.000000000000000D+00 0.000000000000000D+00 0.628054062244344D+03
 0.669008068944650D+03 0.000000000000000D+00 0.000000000000000D+00 -.669008068944650D+03
 0.193090074686601D+03 -.187322774749437D+02 0.833581237759450D+02 -.153352815328779D+03
 0.173615069909424D+03 -.147176420289340D+03 -.317240999912275D+02 0.864573611106438D+02
 0.357794850155290D+03 -.349661297748947D+03 -.526593546561589D+02 0.545996705243294D+02
 0.149669529720852D+03 0.101428633765871D+03 -.741269055622494D+02 0.122957836938060D+02
 0.422892606716826D+03 0.414141361747361D+03 0.751522364336908D+02 -.409540067003060D+02
0.190948991160D-04 0.000000000000D+00 0.000000000000D+00 0.338158658295D-06 0.000000000000D+00  7 -2 2 24 -11 11 -24 21 0 0.49347980D-01 0.70386678D-01 0.10787087D+06 0.10787087D+06 0.10787087D+06 0.11190318D+01  1  2  2  2  7  2        2 0.626764754594D-03 0.100000000000D+01
-.103027527329D-05 0.000000000000D+00 -.733294404079D-07 0.338158658295D-06 0.000000000000D+00  7 -2 2 24 -11 11 -24 21 2 0.49347980D-01 0.70386678D-01 0.10787087D+06 0.10787087D+06 0.10787087D+06 0.11190318D+01  1  2  3  2  7  2        2 -.423472643054D-04 0.100000000000D+01
0.124094568393D-05 0.000000000000D+00 0.000000000000D+00 0.338158658295D-06 0.000000000000D+00  7 -2 2 24 -11 11 -24 21 2 0.49347980D-01 0.70386678D-01 0.10787087D+06 0.10787087D+06 0.10787087D+06 0.11190318D+01  1  2 15  2  7  2        2 0.510064215150D-04 0.100000000000D+01
0.120456025218D-05 0.000000000000D+00 -.616986868241D-05 0.338158658295D-06 0.000000000000D+00  7 -2 2 24 -11 11 -24 21 2 0.49347980D-01 0.17972328D+00 0.10787087D+06 0.10787087D+06 0.10787087D+06 0.11190318D+01  1  2  5  2  7  2        2 0.152723274537D-04 0.100000000000D+01
0.501257976842D-06 0.000000000000D+00 -.638850225273D-06 0.338158658295D-06 0.000000000000D+00  7 -2 21 24 -11 11 -24 -2 2 0.49347980D-01 0.17972328D+00 0.10787087D+06 0.10787087D+06 0.10787087D+06 0.11190318D+01  1  2  5  4  7  2        2 0.360576827182D-05 0.100000000000D+01
  </mgrwgt>
  </event>
  <event>
  8     66 0.27011060E-05 0.29097604E+03 0.75467711E-02 0.93722538E-01
       -2 -1    0    0    0  501 0.00000000E+00 0.00000000E+00 0.43969424E+03 0.43969436E+03 0.32000000E+00 0.0000E+00 0.9000E+01
        2 -1    0    0  501    0 0.00000000E+00 0.00000000E+00 -.25665739E+03 0.25665759E+03 0.32000000E+00 0.0000E+00 0.9000E+01
       25  2    1    2    0    0 -.86998743E+02 -.19059578E+03 0.26666120E+03 0.45282381E+03 0.30007612E+03 0.0000E+00 0.0000E+00
       23  2    1    2    0    0 0.86998743E+02 0.19059578E+03 -.83624350E+02 0.24352814E+03 0.91746354E+02 0.0000E+00 0.0000E+00
       24  1    3    3    0    0 -.14513642E+03 -.20563527E+03 0.17521794E+03 0.31704730E+03 0.80419002E+02 0.0000E+00 0.9000E+01
      -11  1    4    4    0    0 0.95649849E+02 0.17805963E+03 -.96131158E+02 0.22381985E+03 0.51099893E-03 0.0000E+00 0.9000E+01
       11  1    4    4    0    0 -.86511054E+01 0.12536147E+02 0.12506809E+02 0.19708294E+02 0.51099893E-03 0.0000E+00 0.9000E+01
      -24  1    3    3    0    0 0.58137680E+02 0.15039495E+02 0.91443261E+02 0.13577652E+03 0.80419002E+02 0.0000E+00 0.9000E+01
#aMCatNLO 1  0  0  1  1 0.38432815D+03 0.00000000D+00  -5  7  0 0.00000000D+00 0.00000000D+00 0.00000000D+00 0.00000000D+00 0.00000000D+00
  <mgrwgt>
 0.1246250892D-02    3    2    0
 0.335932864312621D+03 0.000000000000000D+00 0.000000000000000D+00 0.335932864312621D+03
 0.335932864312621D+03 0.000000000000000D+00 0.000000000000000D+00 -.335932864312621D+03
 0.280867377350895D+03 -.145136423656549D+03 -.205635271089046D+03 0.952303602740277D+02
 0.258166068579857D+03 0.956498486120439D+02 0.178059629431349D+03 -.160610067533898D+03
 0.170193269227955D+02 -.865110543471164D+01 0.125361469290953D+02 0.759347639982019D+01
 0.115812955771695D+03 0.581376804792162D+02 0.150394947286015D+02 0.577862308600497D+02
 0.000000000000000D+00 0.000000000000000D+00 -.000000000000000D+00 -.000000000000000D+00
 0.504703812766402D+03 0.000000000000000D+00 0.000000000000000D+00 0.504703812766402D+03
 0.700770685266649D+03 0.000000000000000D+00 0.000000000000000D+00 -.700770685266649D+03
 0.309259282377529D+03 -.263663907808809D+03 -.102891253191707D+03 0.952303602740277D+02
 0.322792334709137D+03 -.210361827742490D+02 0.279207407795748D+03 -.160610067533898D+03
 0.280435620819919D+02 -.177020282735951D+02 0.203818224261900D+02 0.759347639982019D+01
 0.113927874517697D+03 0.119940227197368D+02 0.550385281392687D+02 0.577862308600497D+02
 0.431451444346696D+03 0.290408096136917D+03 -.251736505169499D+03 -.196066872500247D+03
0.378345765934D-04 0.000000000000D+00 0.000000000000D+00 0.215724983131D-05 0.000000000000D+00  7 -2 2 24 -11 11 -24 21 0 0.67645293D-01 0.39485777D-01 0.84667056D+05 0.84667056D+05 0.84667056D+05 0.11277026D+01  1  2  2  1  7  1       -2 0.123403538227D-02 0.100000000000D+01
-.204916970203D-05 0.000000000000D+00 -.145294736191D-06 0.215724983131D-05 0.000000000000D+00  7 -2 2 24 -11 11 -24 21 2 0.67645293D-01 0.39485777D-01 0.84667056D+05 0.84667056D+05 0.84667056D+05 0.11277026D+01  1  2  3  1  7  1       -2 -.849974382903D-04 0.100000000000D+01
0.234366860551D-05 0.000000000000D+00 0.000000000000D+00 0.215724983131D-05 0.000000000000D+00  7 -2 2 24 -11 11 -24 21 2 0.67645293D-01 0.39485777D-01 0.84667056D+05 0.84667056D+05 0.84667056D+05 0.11277026D+01  1  2 15  1  7  1       -2 0.972129479918D-04 0.100000000000D+01
  </mgrwgt>
  </event>
  <event>
  8     66 0.27011060E-05 0.21274785E+03 0.75467711E-02 0.10515796E+00
       -2 -1    0    0    0  501 0.00000000E+00 0.00000000E+00 0.22669060E+03 0.22669083E+03 0.32000000E+00 0.0000E+00 0.9000E+01
        2 -1    0    0  501    0 0.00000000E+00 0.00000000E+00 -.27526745E+03 0.27526764E+03 0.32000000E+00 0.0000E+00 0.9000E+01
       25  2    1    2    0    0 -.11228431E+03 0.33994875E+02 -.11749625E+03 0.33826761E+03 0.29471374E+03 0.0000E+00 0.0000E+00
       23  2    1    2    0    0 0.11228431E+03 -.33994875E+02 0.68919405E+02 0.16369085E+03 0.91002159E+02 0.0000E+00 0.0000E+00
       24  1    3    3    0    0 0.34738097E+02 -.43073703E+02 0.29968469E+02 0.10211466E+03 0.80419002E+02 0.0000E+00 0.9000E+01
      -11  1    4    4    0    0 0.19443752E+02 -.45877882E+02 0.44249500E+01 0.50024191E+02 0.51099893E-03 0.0000E+00 0.9000E+01
       11  1    4    4    0    0 0.92840560E+02 0.11883007E+02 0.64494455E+02 0.11366666E+03 0.51099893E-03 0.0000E+00 0.9000E+01
      -24  1    3    3    0    0 -.14702241E+03 0.77068578E+02 -.14746472E+03 0.23615295E+03 0.80419002E+02 0.0000E+00 0.9000E+01
#aMCatNLO 1  0  0  1  2 0.86769975D+01 0.00000000D+00  -5  7  0 0.00000000D+00 0.00000000D+00 0.00000000D+00 0.00000000D+00 0.00000000D+00
  <mgrwgt>
 0.7562644425D-03    6    2    0
 0.249801215168218D+03 0.000000000000000D+00 0.000000000000000D+00 0.249801215168218D+03
 0.249801215168218D+03 0.000000000000000D+00 0.000000000000000D+00 -.249801215168218D+03
 0.105510081008452D+03 0.347380966104674D+02 -.430737030143706D+02 0.400385063726317D+02
 0.506903384835978D+02 0.194437519880657D+02 -.458778818304672D+02 0.930971981092872D+01
 0.120473553916404D+03 0.928405597990518D+02 0.118830071577675D+02 0.758505226767473D+02
 0.222928456927982D+03 -.147022408397585D+03 0.770685776870703D+02 -.125198748860308D+03
 0.000000000000000D+00 0.000000000000000D+00 -.000000000000000D+00 -.000000000000000D+00
 0.251033132074453D+03 0.000000000000000D+00 0.000000000000000D+00 0.251033132074453D+03
 0.265599955818899D+03 0.000000000000000D+00 0.000000000000000D+00 -.265599955818899D+03
 0.104876671432581D+03 0.329148959302399D+02 -.429584437539016D+02 0.400385063726317D+02
 0.503106888413617D+02 0.185684823259507D+02 -.458225489562200D+02 0.930971981092872D+01
 0.118895519191284D+03 0.907661998317451D+02 0.120141442280699D+02 0.758505226767473D+02
 0.225594895390022D+03 -.150909288496052D+03 0.773142988139543D+02 -.125198748860308D+03
 0.169553130381039D+02 0.865971040811593D+01 -.547450331902556D+00 -.145668237444463D+02
0.991636416889D-05 0.000000000000D+00 0.000000000000D+00 0.559752723509D-08 0.000000000000D+00  7 -2 2 24 -11 11 -24 21 0 0.34875509D-01 0.42348870D-01 0.45261646D+05 0.45261646D+05 0.45261646D+05 0.11511183D+01  1  2  2  1  7  1       -2 0.108556718112D-02 0.100000000000D+01
-.533641823048D-06 0.000000000000D+00 -.380814494472D-07 0.559752723509D-08 0.000000000000D+00  7 -2 2 24 -11 11 -24 21 2 0.34875509D-01 0.42348870D-01 0.45261646D+05 0.45261646D+05 0.45261646D+05 0.11511183D+01  1  2  3  1  7  1       -2 -.774094501409D-04 0.100000000000D+01
0.642603014035D-06 0.000000000000D+00 0.000000000000D+00 0.559752723509D-08 0.000000000000D+00  7 -2 2 24 -11 11 -24 21 2 0.34875509D-01 0.42348870D-01 0.45261646D+05 0.45261646D+05 0.45261646D+05 0.11511183D+01  1  2 15  1  7  1       -2 0.932152313160D-04 0.100000000000D+01
-.238205381777D-05 0.000000000000D+00 0.000000000000D+00 0.559752723509D-08 0.000000000000D+00  7 -2 2 24 -11 11 -24 21 2 0.34875509D-01 0.42348870D-01 0.45261646D+05 0.45261646D+05 0.45261646D+05 0.11511183D+01  1  2  4  1  7  1       -2 -.345537902533D-03 0.100000000000D+01
0.214450967707D-08 0.000000000000D+00 0.000000000000D+00 0.559752723509D-08 0.524457337272D-09  7 -2 2 24 -11 11 -24 21 2 0.35047501D-01 0.45027235D-01 0.47148761D+05 0.47148761D+05 0.47148761D+05 0.11495451D+01  1  2 11  1  7  1       -2 0.287805086161D-06 0.100000000000D+01
0.896997097145D-10 0.000000000000D+00 0.000000000000D+00 0.559752723509D-08 0.486891578436D-12  7 21 2 24 -11 11 -24 2 2 0.35047501D-01 0.45027235D-01 0.47148761D+05 0.47148761D+05 0.47148761D+05 0.11495451D+01  1  2 11  3  7  1       -2 0.141577655669D-06 0.100000000000D+01
  </mgrwgt>
  </event>
  <event>
  8     66 0.27011060E-05 0.12033155E+03 0.75467711E-02 0.97146133E-01
       -2 -1    0    0    0  501 0.00000000E+00 0.00000000E+00 0.64841225E+03 0.64841233E+03 0.32000000E+00 0.0000E+00 0.9000E+01
        2 -1    0    0  501    0 0.00000000E+00 0.00000000E+00 -.40434133E+03 0.40434145E+03 0.32000000E+00 0.0000E+00 0.9000E+01
       25  2    1    2    0    0 -.21241674E+03 0.25634157E+03 -.20045150E+03 0.48956427E+03 0.29775912E+03 0.0000E+00 0.0000E+00
       23  2    1    2    0    0 0.21241674E+03 -.25634157E+03 0.44452243E+03 0.56318951E+03 0.93543380E+02 0.0000E+00 0.0000E+00
       24  1    3    3    0    0 -.17996624E+03 0.81619879E+02 -.49616348E+01 0.21340452E+03 0.80419002E+02 0.0000E+00 0.9000E+01
      -13  1    4    4    0    0 0.98699610E+02 -.11409307E+03 0.27859973E+03 0.31682276E+03 0.10565837E+00 0.0000E+00 0.9000E+01
       13  1    4    4    0    0 0.11371714E+03 -.14224851E+03 0.16592270E+03 0.24636676E+03 0.10565837E+00 0.0000E+00 0.9000E+01
      -24  1    3    3    0    0 -.32450501E+02 0.17472170E+03 -.19548986E+03 0.27615975E+03 0.80419002E+02 0.0000E+00 0.9000E+01
#aMCatNLO 1  0  0  2  1 0.64238419D+02 0.00000000D+00  -5  7  0 0.00000000D+00 0.00000000D+00 0.00000000D+00 0.00000000D+00 0.00000000D+00
  <mgrwgt>
 0.7509820135D-03    9    2    0
 0.512035132480859D+03 0.000000000000000D+00 0.000000000000000D+00 0.512035132480859D+03
 0.512035132480859D+03 0.000000000000000D+00 0.000000000000000D+00 -.512035132480859D+03
 0.220564359372832D+03 -.179966243989876D+03 0.816198791972317D+02 -.559621927302964D+02
 0.259296975223500D+03 0.986995907846902D+02 -.114093031276249D+03 0.210893556926683D+03
 0.213722216513023D+03 0.113717154146258D+03 -.142248543735029D+03 0.111852342350884D+03
 0.330486713852363D+03 -.324505009410716D+02 0.174721695814047D+03 -.266783706547270D+03
 0.000000000000000D+00 0.000000000000000D+00 -.000000000000000D+00 -.000000000000000D+00
 0.539202318705925D+03 0.000000000000000D+00 0.000000000000000D+00 0.539202318705925D+03
 0.552476281790216D+03 0.000000000000000D+00 0.000000000000000D+00 -.552476281790216D+03
 0.232554936094740D+03 -.189901101595305D+03 0.917626664028733D+02 -.559621927302964D+02
 0.250361479474061D+03 0.875250850298688D+02 -.102684650955081D+03 0.210893556926683D+03
 0.202776236528162D+03 0.104585226053071D+03 -.132925490793052D+03 0.111852342350884D+03
 0.340390425489173D+03 -.471598035833652D+02 0.189738853841822D+03 -.266783706547270D+03
 0.655955229100046D+02 0.449505940957305D+02 -.458913784965619D+02 -.132739630842909D+02
0.518892800303D-04 0.000000000000D+00 0.000000000000D+00 0.840991118624D-07 0.000000000000D+00  7 -2 2 24 -13 13 -24 21 0 0.99755747D-01 0.62206374D-01 0.13741178D+06 0.13741178D+06 0.13741178D+06 0.11105685D+01  1  2  2  2  7  2        2 0.425633546149D-03 0.100000000000D+01
-.251701021093D-05 0.000000000000D+00 -.199268498078D-06 0.840991118624D-07 0.000000000000D+00  7 -2 2 24 -13 13 -24 21 2 0.99755747D-01 0.62206374D-01 0.13741178D+06 0.13741178D+06 0.13741178D+06 0.11105685D+01  1  2  3  2  7  2        2 -.254644270717D-04 0.100000000000D+01
0.310024854903D-05 0.000000000000D+00 0.000000000000D+00 0.840991118624D-07 0.000000000000D+00  7 -2 2 24 -13 13 -24 21 2 0.99755747D-01 0.62206374D-01 0.13741178D+06 0.13741178D+06 0.13741178D+06 0.11105685D+01  1  2 15  2  7  2        2 0.313650110509D-04 0.100000000000D+01
0.923747486826D-04 0.000000000000D+00 0.000000000000D+00 0.840991118624D-07 0.000000000000D+00  7 -2 2 24 -13 13 -24 21 2 0.99755747D-01 0.68660695D-01 0.16217796D+06 0.16217796D+06 0.16217796D+06 0.11048866D+01  1  2 12  2  7  2        2 0.825749951032D-03 0.100000000000D+01
-.821008307380D-04 0.000000000000D+00 0.000000000000D+00 0.840991118624D-07 0.000000000000D+00  7 -2 2 24 -13 13 -24 21 2 0.99755747D-01 0.62206374D-01 0.13741178D+06 0.13741178D+06 0.13741178D+06 0.11105685D+01  1  2  4  2  7  2        2 -.830608714966D-03 0.100000000000D+01
-.256532697451D-03 0.000000000000D+00 -.621724717751D-04 0.840991118624D-07 0.000000000000D+00  7 -2 2 24 -13 13 -24 21 2 0.99755747D-01 0.70147592D-01 0.13741178D+06 0.13741178D+06 0.13741178D+06 0.11105685D+01  1  2  5  2  7  2        2 -.227315292365D-02 0.100000000000D+01
0.262551192916D-03 0.000000000000D+00 0.617264378358D-04 0.840991118624D-07 0.000000000000D+00  7 -2 2 24 -13 13 -24 21 2 0.99755747D-01 0.62206374D-01 0.13741178D+06 0.13741178D+06 0.13741178D+06 0.11105685D+01  1  2  6  2  7  2        2 0.265621318324D-02 0.100000000000D+01
0.148375161539D-05 0.000000000000D+00 0.000000000000D+00 0.840991118624D-07 0.000000000000D+00  7 -2 21 24 -13 13 -24 -2 2 0.99755747D-01 0.68660695D-01 0.16217796D+06 0.16217796D+06 0.16217796D+06 0.11048866D+01  1  2 12  4  7  2        2 0.293274459497D-04 0.100000000000D+01
-.458411862798D-05 0.000000000000D+00 -.118083602653D-05 0.840991118624D-07 0.000000000000D+00  7 -2 21 24 -13 13 -24 -2 2 0.99755747D-01 0.70147592D-01 0.13741178D+06 0.13741178D+06 0.13741178D+06 0.11105685D+01  1  2  5  4  7  2        2 -.880810582616D-04 0.100000000000D+01
  </mgrwgt>
  </event>
  <event>
  8     66 0.27011060E-05 0.13573481E+03 0.75467711E-02 0.10016583E+00
       -2 -1    0    0    0  501 0.00000000E+00 0.00000000E+00 0.23971642E+03 0.23971663E+03 0.32000000E+00 0.0000E+00 0.9000E+01
        2 -1    0    0  501    0 0.00000000E+00 0.00000000E+00 -.72531923E+03 0.72531930E+03 0.32000000E+00 0.0000E+00 0.9000E+01
       25  2    1    2    0    0 -.14419244E+03 -.11364319E+03 -.62491167E+03 0.71729359E+03 0.30048173E+03 0.0000E+00 0.0000E+00
       23  2    1    2    0    0 0.14419244E+03 0.11364319E+03 0.13930886E+03 0.24774234E+03 0.90901443E+02 0.0000E+00 0.0000E+00
       24  1    3    3    0    0 -.32209930E+02 -.17885926E+03 -.32821838E+03 0.38369602E+03 0.80419002E+02 0.0000E+00 0.9000E+01
      -13  1    4    4    0    0 -.93552412E+01 0.12339023E+02 0.30001783E+02 0.33762260E+02 0.10565837E+00 0.0000E+00 0.9000E+01
       13  1    4    4    0    0 0.15354768E+03 0.10130417E+03 0.10930707E+03 0.21398008E+03 0.10565837E+00 0.0000E+00 0.9000E+01
      -24  1    3    3    0    0 -.11198251E+03 0.65216069E+02 -.29669328E+03 0.33359757E+03 0.80419002E+02 0.0000E+00 0.9000E+01
#aMCatNLO 1  0  0  1  2 0.71300475D+02 0.00000000D+00  -5  7  0 0.00000000D+00 0.00000000D+00 0.00000000D+00 0.00000000D+00 0.00000000D+00
  <mgrwgt>
 0.9972054871D-03    9    2    0
 0.416978492358050D+03 0.000000000000000D+00 0.000000000000000D+00 0.416978492358050D+03
 0.416978492358050D+03 0.000000000000000D+00 0.000000000000000D+00 -.416978492358050D+03
 0.252886755825732D+03 -.322099303703683D+02 -.178859257553483D+03 -.156385362776206D+03
 0.565382367120145D+02 -.935546119090023D+01 0.123389029957512D+02 0.543764565714867D+02
 0.311261341092300D+03 0.153547904232718D+03 0.101304285703085D+03 0.251085852374252D+03
 0.213270651086054D+03 -.111982512671449D+03 0.652160688546464D+02 -.149076946169532D+03
 0.000000000000000D+00 0.000000000000000D+00 -.000000000000000D+00 0.000000000000000D+00
 0.487429073432449D+03 0.000000000000000D+00 0.000000000000000D+00 0.487429073432449D+03
 0.436937990236946D+03 0.000000000000000D+00 0.000000000000000D+00 -.436937990236946D+03
 0.241554116931550D+03 -.420249936629125D+02 -.160183312705153D+03 -.156385362776206D+03
 0.580504297911208D+02 -.116301416963054D+02 0.166671285405411D+02 0.543764565714867D+02
 0.313956509966254D+03 0.141136808957468D+03 0.124919918527787D+03 0.251085852374252D+03
 0.223438351927351D+03 -.120651550247363D+03 0.817113743692684D+02 -.149076946169532D+03
 0.873676550531191D+02 0.331698766491127D+02 -.631151087324441D+02 0.504910831955030D+02
0.236496231801D-04 0.000000000000D+00 0.000000000000D+00 0.235703443031D-05 0.000000000000D+00  7 -2 2 24 -13 13 -24 21 0 0.36879471D-01 0.11158760D+00 0.75814278D+05 0.75814278D+05 0.75814278D+05 0.11317255D+01  1  2  2  1  7  1       -2 0.796706148224D-03 0.100000000000D+01
-.103872521824D-05 0.000000000000D+00 -.908207801005D-07 0.235703443031D-05 0.000000000000D+00  7 -2 2 24 -13 13 -24 21 2 0.36879471D-01 0.11158760D+00 0.75814278D+05 0.75814278D+05 0.75814278D+05 0.11317255D+01  1  2  3  1  7  1       -2 -.448184485220D-04 0.100000000000D+01
0.138479104355D-05 0.000000000000D+00 0.000000000000D+00 0.235703443031D-05 0.000000000000D+00  7 -2 2 24 -13 13 -24 21 2 0.36879471D-01 0.11158760D+00 0.75814278D+05 0.75814278D+05 0.75814278D+05 0.11317255D+01  1  2 15  1  7  1       -2 0.597503410997D-04 0.100000000000D+01
0.380549978609D-04 0.000000000000D+00 0.000000000000D+00 0.235703443031D-05 0.000000000000D+00  7 -2 2 24 -13 13 -24 21 2 0.43886622D-01 0.11158760D+00 0.99425800D+05 0.99425800D+05 0.99425800D+05 0.11219273D+01  1  2 12  1  7  1       -2 0.116220376236D-02 0.100000000000D+01
-.397198877607D-04 0.000000000000D+00 0.000000000000D+00 0.235703443031D-05 0.000000000000D+00  7 -2 2 24 -13 13 -24 21 2 0.36879471D-01 0.11158760D+00 0.75814278D+05 0.75814278D+05 0.75814278D+05 0.11317255D+01  1  2  4  1  7  1       -2 -.171381585201D-02 0.100000000000D+01
-.649015856455D-04 0.000000000000D+00 -.166671510202D-04 0.235703443031D-05 0.000000000000D+00  7 -2 2 24 -13 13 -24 21 2 0.44845905D-01 0.11158760D+00 0.75814278D+05 0.75814278D+05 0.75814278D+05 0.11317255D+01  1  2  5  1  7  1       -2 -.194596894355D-02 0.100000000000D+01
0.671860126753D-04 0.000000000000D+00 0.163533904896D-04 0.235703443031D-05 0.000000000000D+00  7 -2 2 24 -13 13 -24 21 2 0.36879471D-01 0.11158760D+00 0.75814278D+05 0.75814278D+05 0.75814278D+05 0.11317255D+01  1  2  6  1  7  1       -2 0.289891185619D-02 0.100000000000D+01
0.977099305916D-06 0.000000000000D+00 0.000000000000D+00 0.235703443031D-05 0.000000000000D+00  7 21 2 24 -13 13 -24 2 2 0.43886622D-01 0.11158760D+00 0.99425800D+05 0.99425800D+05 0.99425800D+05 0.11219273D+01  1  2 12  3  7  1       -2 0.329228524372D-03 0.100000000000D+01
-.164093600181D-05 0.000000000000D+00 -.468833248134D-06 0.235703443031D-05 0.000000000000D+00  7 21 2 24 -13 13 -24 2 2 0.44845905D-01 0.11158760D+00 0.75814278D+05 0.75814278D+05 0.75814278D+05 0.11317255D+01  1  2  5  3  7  1       -2 -.544991901071D-03 0.100000000000D+01
  </mgrwgt>
  </event>
  <event>
  8     66 0.27011060E-05 0.14314906E+03 0.75467711E-02 0.99456073E-01
       -2 -1    0    0    0  501 0.00000000E+00 0.00000000E+00 0.24106154E+02 0.24108278E+02 0.32000000E+00 0.0000E+00 0.9000E+01
        2 -1    0    0  501    0 0.00000000E+00 0.00000000E+00 -.23927873E+04 0.23927873E+04 0.32000000E+00 0.0000E+00 0.9000E+01
       25  2    1    2    0    0 -.15529310E+02 0.10127365E+03 -.12296512E+04 0.12698364E+04 0.29990816E+03 0.0000E+00 0.0000E+00
       23  2    1    2    0    0 0.15529310E+02 -.10127365E+03 -.11390299E+04 0.11470592E+04 0.88645761E+02 0.0000E+00 0.0000E+00
       24  1    3    3    0    0 -.56059648E+02 0.17234903E+03 -.67882411E+03 0.70718899E+03 0.80419002E+02 0.0000E+00 0.9000E+01
      -13  1    4    4    0    0 -.26568941E+02 -.76937736E+02 -.54531745E+03 0.55135874E+03 0.10565837E+00 0.0000E+00 0.9000E+01
       13  1    4    4    0    0 0.42098252E+02 -.24335919E+02 -.59371247E+03 0.59570043E+03 0.10565837E+00 0.0000E+00 0.9000E+01
      -24  1    3    3    0    0 0.40530337E+02 -.71075375E+02 -.55082709E+03 0.56264742E+03 0.80419002E+02 0.0000E+00 0.9000E+01
#aMCatNLO 1  0  0  2  1 0.18909066D+03 0.00000000D+00  -5  7  0 0.00000000D+00 0.00000000D+00 0.00000000D+00 0.00000000D+00 0.00000000D+00
  <mgrwgt>
 0.8730909321D-03    7    2    0
 0.240173876341318D+03 0.000000000000000D+00 0.000000000000000D+00 0.240173876341318D+03
 0.240173876341318D+03 0.000000000000000D+00 0.000000000000000D+00 -.240173876341318D+03
 0.210855731652087D+03 -.560596488861982D+02 0.172349035354240D+03 0.717359700247053D+02
 0.851328037520120D+02 -.265690279511243D+02 -.769378096454551D+02 -.249450290713539D+02
 0.695958560902142D+02 0.420983398595890D+02 -.243358542085720D+02 -.497903521370905D+02
 0.114763361188324D+03 0.405303369777334D+02 -.710753715002132D+02 0.299941118373902D+01
 0.000000000000000D+00 0.000000000000000D+00 -.000000000000000D+00 -.000000000000000D+00
 0.291385797175820D+03 0.000000000000000D+00 0.000000000000000D+00 0.291385797175820D+03
 0.526765301244103D+03 0.000000000000000D+00 0.000000000000000D+00 -.526765301244103D+03
 0.296635891402181D+03 -.678041263948097D+02 0.267921979617289D+03 0.717359700247053D+02
 0.627064805202357D+02 -.299903556541807D+02 -.490960975190469D+02 -.249450290713539D+02
 0.632644784292126D+02 0.390236581512307D+02 0.684959473779983D+00 -.497903521370905D+02
 0.936191096506914D+02 0.357079061615778D+02 -.318319133500400D+02 0.299941118373902D+01
 0.301925138417603D+03 0.230629177361819D+02 -.187678928221982D+03 -.235379504068283D+03
0.583640776804D-05 0.000000000000D+00 0.000000000000D+00 0.940067483085D-07 0.000000000000D+00  7 -2 2 24 -13 13 -24 21 0 0.37088041D-02 0.36812128D+00 0.49067638D+05 0.49067638D+05 0.49067638D+05 0.11480151D+01  1  2  2  2  7  2        2 0.864935396998D-03 0.100000000000D+01
-.321665601616D-06 0.000000000000D+00 -.224133425907D-07 0.940067483085D-07 0.000000000000D+00  7 -2 2 24 -13 13 -24 21 2 0.37088041D-02 0.36812128D+00 0.49067638D+05 0.49067638D+05 0.49067638D+05 0.11480151D+01  1  2  3  2  7  2        2 -.628257807717D-04 0.100000000000D+01
0.370915200539D-06 0.000000000000D+00 0.000000000000D+00 0.940067483085D-07 0.000000000000D+00  7 -2 2 24 -13 13 -24 21 2 0.37088041D-02 0.36812128D+00 0.49067638D+05 0.49067638D+05 0.49067638D+05 0.11480151D+01  1  2 15  2  7  2        2 0.724449147091D-04 0.100000000000D+01
0.127547763605D-06 0.000000000000D+00 0.000000000000D+00 0.940067483085D-07 0.000000000000D+00  7 -2 2 24 -13 13 -24 21 2 0.37088041D-02 0.80356102D+00 0.11124021D+06 0.11124021D+06 0.11124021D+06 0.11179454D+01  1  2 12  2  7  2        2 0.975691352851D-07 0.100000000000D+01
-.259644168341D-05 0.000000000000D+00 -.128620404375D-05 0.940067483085D-07 0.000000000000D+00  7 -2 2 24 -13 13 -24 21 2 0.37088041D-02 0.81940086D+00 0.49067638D+05 0.49067638D+05 0.49067638D+05 0.11480151D+01  1  2  5  2  7  2        2 -.156079088618D-05 0.100000000000D+01
0.107865618582D-07 0.000000000000D+00 0.000000000000D+00 0.940067483085D-07 0.000000000000D+00  7 -2 21 24 -13 13 -24 -2 2 0.37088041D-02 0.80356102D+00 0.11124021D+06 0.11124021D+06 0.11124021D+06 0.11179454D+01  1  2 12  4  7  2        2 0.440220734132D-10 0.100000000000D+01
-.144193663287D-06 0.000000000000D+00 -.111652119339D-06 0.940067483085D-07 0.000000000000D+00  7 -2 21 24 -13 13 -24 -2 2 0.37088041D-02 0.81940086D+00 0.49067638D+05 0.49067638D+05 0.49067638D+05 0.11480151D+01  1  2  5  4  7  2        2 -.421117826508D-09 0.100000000000D+01
  </mgrwgt>
  </event>
  <event>
  8     66 0.27011060E-05 0.26898202E+03 0.75467711E-02 0.96897588E-01
       -2 -1    0    0    0  501 0.00000000E+00 0.00000000E+00 0.44352718E+03 0.44352730E+03 0.32000000E+00 0.0000E+00 0.9000E+01
        2 -1    0    0  501    0 0.00000000E+00 0.00000000E+00 -.42655121E+03 0.42655133E+03 0.32000000E+00 0.0000E+00 0.9000E+01
       25  2    1    2    0    0 0.14905464E+03 0.34674422E+03 0.18604467E+01 0.48098244E+03 0.29814730E+03 0.0000E+00 0.0000E+00
       23  2    1    2    0    0 -.14905464E+03 -.34674422E+03 0.15115525E+02 0.38909618E+03 0.93373009E+02 0.0000E+00 0.0000E+00
       24  1    3    3    0    0 0.39945519E+02 0.19765682E+03 0.11934740E+03 0.24773954E+03 0.80419002E+02 0.0000E+00 0.9000E+01
      -11  1    4    4    0    0 -.14154027E+03 -.29734004E+03 0.42617747E+02 0.33205575E+03 0.51099893E-03 0.0000E+00 0.9000E+01
       11  1    4    4    0    0 -.75143712E+01 -.49404177E+02 -.27502222E+02 0.57040430E+02 0.51099893E-03 0.0000E+00 0.9000E+01
      -24  1    3    3    0    0 0.10910912E+03 0.14908740E+03 -.11748695E+03 0.23324290E+03 0.80419002E+02 0.0000E+00 0.9000E+01
#aMCatNLO 1  0  0  1  2 0.25026680D+02 0.00000000D+00  -5  7  0 0.00000000D+00 0.00000000D+00 0.00000000D+00 0.00000000D+00 0.00000000D+00
  <mgrwgt>
 0.1097005208D-02    6    2    0
 0.434956500792252D+03 0.000000000000000D+00 0.000000000000000D+00 0.434956500792252D+03
 0.434956500792252D+03 0.000000000000000D+00 0.000000000000000D+00 -.434956500792252D+03
 0.245457697404901D+03 0.399455190433216D+02 0.197656822224760D+03 0.114535590090219D+03
 0.331287303597872D+03 -.141540269895475D+03 -.297340042167765D+03 0.361459381775638D+02
 0.575879841717652D+02 -.751437114997495D+01 -.494041769760160D+02 -.286205772917040D+02
 0.235580016409967D+03 0.109109122002129D+03 0.149087396919021D+03 -.122060950976079D+03
 0.000000000000000D+00 0.000000000000000D+00 0.000000000000000D+00 -.000000000000000D+00
 0.445355342121476D+03 0.000000000000000D+00 0.000000000000000D+00 0.445355342121476D+03
 0.450459442448542D+03 0.000000000000000D+00 0.000000000000000D+00 -.450459442448542D+03
 0.243078870642955D+03 0.331249331757737D+02 0.195970555960506D+03 0.114535590090219D+03
 0.337430414414306D+03 -.150876411578949D+03 -.299648234024720D+03 0.361459381775638D+02
 0.581627988494774D+02 -.913039788465116D+01 -.498037103031724D+02 -.286205772917040D+02
 0.231600841700448D+03 0.102586688745700D+03 0.147474843485232D+03 -.122060950976079D+03
 0.255418589628321D+02 0.242951875421265D+02 0.600654488215519D+01 -.510410032706685D+01
0.340412308572D-04 0.000000000000D+00 0.000000000000D+00 0.836821938686D-07 0.000000000000D+00  7 -2 2 24 -11 11 -24 21 0 0.68234969D-01 0.65623281D-01 0.15914950D+06 0.15914950D+06 0.15914950D+06 0.11055284D+01  1  2  2  1  7  1       -2 0.618952128206D-03 0.100000000000D+01
-.187399614191D-05 0.000000000000D+00 -.130727289754D-06 0.836821938686D-07 0.000000000000D+00  7 -2 2 24 -11 11 -24 21 2 0.68234969D-01 0.65623281D-01 0.15914950D+06 0.15914950D+06 0.15914950D+06 0.11055284D+01  1  2  3  1  7  1       -2 -.416447542228D-04 0.100000000000D+01
0.212351056275D-05 0.000000000000D+00 0.000000000000D+00 0.836821938686D-07 0.000000000000D+00  7 -2 2 24 -11 11 -24 21 2 0.68234969D-01 0.65623281D-01 0.15914950D+06 0.15914950D+06 0.15914950D+06 0.11055284D+01  1  2 15  1  7  1       -2 0.471895717911D-04 0.100000000000D+01
0.561924540107D-04 0.000000000000D+00 0.000000000000D+00 0.836821938686D-07 0.000000000000D+00  7 -2 2 24 -11 11 -24 21 2 0.71047118D-01 0.65623281D-01 0.16907635D+06 0.16907635D+06 0.16907635D+06 0.11034722D+01  1  2 12  1  7  1       -2 0.113927988379D-02 0.100000000000D+01
-.357249027430D-04 0.000000000000D+00 0.000000000000D+00 0.836821938686D-07 0.000000000000D+00  7 -2 2 24 -11 11 -24 21 2 0.68234969D-01 0.65623281D-01 0.15914950D+06 0.15914950D+06 0.15914950D+06 0.11055284D+01  1  2  4  1  7  1       -2 -.793894267492D-03 0.100000000000D+01
0.629732825424D-06 0.000000000000D+00 0.000000000000D+00 0.836821938686D-07 0.000000000000D+00  7 21 2 24 -11 11 -24 2 2 0.71047118D-01 0.65623281D-01 0.16907635D+06 0.16907635D+06 0.16907635D+06 0.11034722D+01  1  2 12  3  7  1       -2 0.127122646361D-03 0.100000000000D+01
  </mgrwgt>
  </event>
  <event>
  8     66 0.27011060E-05 0.27355262E+03 0.75467711E-02 0.94757085E-01
       -2 -1    0    0    0  501 0.00000000E+00 0.00000000E+00 0.11654415E+03 0.11654459E+03 0.32000000E+00 0.0000E+00 0.9000E+01
        2 -1    0    0  501    0 0.00000000E+00 0.00000000E+00 -.14191022E+04 0.14191023E+04 0.32000000E+00 0.0000E+00 0.9000E+01
       25  2    1    2    0    0 -.47130534E+02 -.34342506E+03 -.72108932E+03 0.85426574E+03 0.29939620E+03 0.0000E+00 0.0000E+00
       23  2    1    2    0    0 0.47130534E+02 0.34342506E+03 -.58146876E+03 0.68138112E+03 0.77538777E+02 0.0000E+00 0.0000E+00
       24  1    3    3    0    0 0.17969181E+01 -.34736607E+03 -.62588664E+03 0.72032473E+03 0.80419002E+02 0.0000E+00 0.9000E+01
      -13  1    4    4    0    0 0.31762765E+02 0.13068691E+03 -.16001170E+03 0.20902559E+03 0.10565837E+00 0.0000E+00 0.9000E+01
       13  1    4    4    0    0 0.15367769E+02 0.21273815E+03 -.42145706E+03 0.47235554E+03 0.10565837E+00 0.0000E+00 0.9000E+01
      -24  1    3    3    0    0 -.48927452E+02 0.39410121E+01 -.95202680E+02 0.13394101E+03 0.80419002E+02 0.0000E+00 0.9000E+01
#aMCatNLO 1  0  0  2  1 0.17286681D+03 0.00000000D+00  -5  7  0 0.00000000D+00 0.00000000D+00 0.00000000D+00 0.00000000D+00 0.00000000D+00
  <mgrwgt>
 0.3822140952D-02    9    2    0
 0.406679766507650D+03 0.000000000000000D+00 0.000000000000000D+00 0.406679766507650D+03
 0.406679766507650D+03 0.000000000000000D+00 0.000000000000000D+00 -.406679766507650D+03
 0.357665580767474D+03 0.179691804838449D+01 -.347366067652702D+03 -.281253949374859D+02
 0.138394932033625D+03 0.317627952656645D+02 0.130686755609907D+03 0.326382284699964D+02
 0.216877172754878D+03 0.153677386761010D+02 0.212738300080730D+03 -.392677520224083D+02
 0.100421847459323D+03 -.489274519901499D+02 0.394101196206478D+01 0.347549184898978D+02
 0.000000000000000D+00 0.000000000000000D+00 0.000000000000000D+00 -.000000000000000D+00
 0.493183183603063D+03 0.000000000000000D+00 0.000000000000000D+00 0.493183183603063D+03
 0.512259732580778D+03 0.000000000000000D+00 0.000000000000000D+00 -.512259732580778D+03
 0.432268199968046D+03 -.336076512746448D+02 -.422454812594976D+03 -.281253949374859D+02
 0.113484265772468D+03 0.204736533942389D+02 0.106743871659918D+03 0.326382284699964D+02
 0.179432177925654D+03 -.239471461013398D+01 0.175066317343418D+03 -.392677520224083D+02
 0.106342062631943D+03 -.581945416714023D+02 -.157133475383659D+02 0.347549184898978D+02
 0.173916209885730D+03 0.737232541619421D+02 0.156357971130006D+03 -.190765489777141D+02
0.599878985976D-04 0.000000000000D+00 0.000000000000D+00 0.107357316523D-07 0.000000000000D+00  7 -2 2 24 -13 13 -24 21 0 0.17929906D-01 0.21832346D+00 0.15942368D+06 0.15942368D+06 0.15942368D+06 0.11054697D+01  1  2  2  2  7  2        2 0.261646589997D-02 0.100000000000D+01
-.333129427601D-05 0.000000000000D+00 -.230369325791D-06 0.107357316523D-07 0.000000000000D+00  7 -2 2 24 -13 13 -24 21 2 0.17929906D-01 0.21832346D+00 0.15942368D+06 0.15942368D+06 0.15942368D+06 0.11054697D+01  1  2  3  2  7  2        2 -.177565320111D-03 0.100000000000D+01
0.367153209973D-05 0.000000000000D+00 0.000000000000D+00 0.107357316523D-07 0.000000000000D+00  7 -2 2 24 -13 13 -24 21 2 0.17929906D-01 0.21832346D+00 0.15942368D+06 0.15942368D+06 0.15942368D+06 0.11054697D+01  1  2 15  2  7  2        2 0.195700745287D-03 0.100000000000D+01
0.231008155669D-04 0.000000000000D+00 0.000000000000D+00 0.107357316523D-07 0.000000000000D+00  7 -2 2 24 -13 13 -24 21 2 0.17929906D-01 0.29302479D+00 0.24427996D+06 0.24427996D+06 0.24427996D+06 0.10912161D+01  1  2 12  2  7  2        2 0.646548212299D-03 0.100000000000D+01
-.269666726293D-04 0.000000000000D+00 0.000000000000D+00 0.107357316523D-07 0.000000000000D+00  7 -2 2 24 -13 13 -24 21 2 0.17929906D-01 0.21832346D+00 0.15942368D+06 0.15942368D+06 0.15942368D+06 0.11054697D+01  1  2  4  2  7  2        2 -.143738302924D-02 0.100000000000D+01
-.617996912318D-04 0.000000000000D+00 -.248930386029D-04 0.107357316523D-07 0.000000000000D+00  7 -2 2 24 -13 13 -24 21 2 0.17929906D-01 0.30577435D+00 0.15942368D+06 0.15942368D+06 0.15942368D+06 0.11054697D+01  1  2  5  2  7  2        2 -.162290720441D-02 0.100000000000D+01
0.676585781380D-04 0.000000000000D+00 0.235444319916D-04 0.107357316523D-07 0.000000000000D+00  7 -2 2 24 -13 13 -24 21 2 0.17929906D-01 0.21832346D+00 0.15942368D+06 0.15942368D+06 0.15942368D+06 0.11054697D+01  1  2  6  2  7  2        2 0.360635119265D-02 0.100000000000D+01
0.880623675038D-06 0.000000000000D+00 0.000000000000D+00 0.107357316523D-07 0.000000000000D+00  7 -2 21 24 -13 13 -24 -2 2 0.17929906D-01 0.29302479D+00 0.24427996D+06 0.24427996D+06 0.24427996D+06 0.10912161D+01  1  2 12  4  7  2        2 0.547940198793D-05 0.100000000000D+01
-.193157257820D-05 0.000000000000D+00 -.104610869450D-05 0.107357316523D-07 0.000000000000D+00  7 -2 21 24 -13 13 -24 -2 2 0.17929906D-01 0.30577435D+00 0.15942368D+06 0.15942368D+06 0.15942368D+06 0.11054697D+01  1  2  5  4  7  2        2 -.105489461981D-04 0.100000000000D+01
  </mgrwgt>
  </event>
  <event>
  8     66 0.27011060E-05 0.36323081E+03 0.75467711E-02 0.88125518E-01
       -2 -1    0    0    0  501 0.00000000E+00 0.00000000E+00 0.65071396E+03 0.65071404E+03 0.32000000E+00 0.0000E+00 0.9000E+01
        2 -1    0    0  501    0 0.00000000E+00 0.00000000E+00 -.18394678E+04 0.18394679E+04 0.32000000E+00 0.0000E+00 0.9000E+01
       25  2    1    2    0    0 -.59281657E+03 0.66049820E+03 0.79294206E+02 0.93986452E+03 0.29894544E+03 0.0000E+00 0.0000E+00
       23  2    1    2    0    0 0.59281657E+03 -.66049820E+03 -.12680481E+04 0.15503174E+04 0.88592897E+02 0.0000E+00 0.0000E+00
       24  1    3    3    0    0 -.18333836E+02 0.95163811E+02 0.21986957E+02 0.12783944E+03 0.80419002E+02 0.0000E+00 0.9000E+01
      -13  1    4    4    0    0 0.39361158E+02 -.35098734E+02 -.11589319E+03 0.12732817E+03 0.10565837E+00 0.0000E+00 0.9000E+01
       13  1    4    4    0    0 0.55345541E+03 -.62539947E+03 -.11521549E+04 0.14229892E+04 0.10565837E+00 0.0000E+00 0.9000E+01
      -24  1    3    3    0    0 -.57448274E+03 0.56533439E+03 0.57307249E+02 0.81202508E+03 0.80419002E+02 0.0000E+00 0.9000E+01
#aMCatNLO 1  0  0  2  1 0.27990398D+02 0.00000000D+00  -5  7  0 0.00000000D+00 0.00000000D+00 0.00000000D+00 0.00000000D+00 0.00000000D+00
  <mgrwgt>
 0.1825711579D-02    6    2    0
 0.109406011354869D+04 0.000000000000000D+00 0.000000000000000D+00 0.109406011354869D+04
 0.109406011354869D+04 0.000000000000000D+00 0.000000000000000D+00 -.109406011354869D+04
 0.157432181597188D+03 -.183338360355090D+02 0.951638105231512D+02 0.944743111698427D+02
 0.819420245224715D+02 0.393604272383941D+02 -.350978945821873D+02 -.627167437479824D+02
 0.993490301902512D+03 0.553456146088227D+03 -.625400307619863D+03 -.538129844517559D+03
 0.955255719075208D+03 -.574482737291112D+03 0.565334391678899D+03 0.506372277095699D+03
 0.000000000000000D+00 0.000000000000000D+00 0.000000000000000D+00 0.000000000000000D+00
 0.111336860006333D+04 0.000000000000000D+00 0.000000000000000D+00 0.111336860006333D+04
 0.110434088360382D+04 0.000000000000000D+00 0.000000000000000D+00 -.110434088360382D+04
 0.156671330825159D+03 -.196379338779098D+02 0.936357091613361D+02 0.944743111698427D+02
 0.819633949502930D+02 0.386799232152337D+02 -.358952880680915D+02 -.627167437479824D+02
 0.995061052027676D+03 0.545200060347050D+03 -.635074532554648D+03 -.538129844517559D+03
 0.954603468332978D+03 -.582412108173916D+03 0.556043001071240D+03 0.506372277095699D+03
 0.294102375310490D+02 0.181700584895416D+02 0.212911103901638D+02 0.902771645950516D+01
0.167236540421D-02 0.000000000000D+00 0.000000000000D+00 0.161661334177D-05 0.000000000000D+00  7 -2 2 24 -13 13 -24 21 0 0.10010985D+00 0.28299506D+00 0.83156101D+06 0.83156101D+06 0.83156101D+06 0.10532383D+01  1  2  2  2  7  2        2 0.139184580132D-02 0.100000000000D+01
-.891623933252D-04 0.000000000000D+00 -.642232349609D-05 0.161661334177D-05 0.000000000000D+00  7 -2 2 24 -13 13 -24 21 2 0.10010985D+00 0.28299506D+00 0.83156101D+06 0.83156101D+06 0.83156101D+06 0.10532383D+01  1  2  3  2  7  2        2 -.823180312136D-04 0.100000000000D+01
0.100912090002D-03 0.000000000000D+00 0.000000000000D+00 0.161661334177D-05 0.000000000000D+00  7 -2 2 24 -13 13 -24 21 2 0.10010985D+00 0.28299506D+00 0.83156101D+06 0.83156101D+06 0.83156101D+06 0.10532383D+01  1  2 15  2  7  2        2 0.931657873331D-04 0.100000000000D+01
0.111779711731D-02 0.000000000000D+00 0.000000000000D+00 0.161661334177D-05 0.000000000000D+00  7 -2 2 24 -13 13 -24 21 2 0.10010985D+00 0.28811830D+00 0.85744744D+06 0.85744744D+06 0.85744744D+06 0.10523393D+01  1  2 12  2  7  2        2 0.985421126867D-03 0.100000000000D+01
-.615743370566D-03 0.000000000000D+00 0.000000000000D+00 0.161661334177D-05 0.000000000000D+00  7 -2 2 24 -13 13 -24 21 2 0.10010985D+00 0.28299506D+00 0.83156101D+06 0.83156101D+06 0.83156101D+06 0.10532383D+01  1  2  4  2  7  2        2 -.568477136016D-03 0.100000000000D+01
0.318534949169D-04 0.000000000000D+00 0.000000000000D+00 0.161661334177D-05 0.000000000000D+00  7 -2 21 24 -13 13 -24 -2 2 0.10010985D+00 0.28811830D+00 0.85744744D+06 0.85744744D+06 0.85744744D+06 0.10523393D+01  1  2 12  4  7  2        2 0.607403109767D-05 0.100000000000D+01
  </mgrwgt>
  </event>
  <event>
  8     66 0.27011060E-05 0.24338949E+03 0.75467711E-02 0.93394832E-01
       -2 -1    0    0    0  501 0.00000000E+00 0.00000000E+00 0.92418599E+02 0.92419153E+02 0.32000000E+00 0.0000E+00 0.9000E+01
        2 -1    0    0  501    0 0.00000000E+00 0.00000000E+00 -.72955564E+03 0.72955571E+03 0.32000000E+00 0.0000E+00 0.9000E+01
       25  2    1    2    0    0 0.40949599E+02 -.14598055E+03 -.46797176E+03 0.57604211E+03 0.29973280E+03 0.0000E+00 0.0000E+00
       23  2    1    2    0    0 -.40949599E+02 0.14598055E+03 -.16916528E+03 0.24593276E+03 0.94227588E+02 0.0000E+00 0.0000E+00
       24  1    3    3    0    0 0.98991027E+02 0.31496159E+02 -.16011839E+03 0.20711433E+03 0.80419002E+02 0.0000E+00 0.9000E+01
      -13  1    4    4    0    0 -.18193316E+02 0.44034704E+02 -.62591276E+00 0.47649289E+02 0.10565837E+00 0.0000E+00 0.9000E+01
       13  1    4    4    0    0 -.22756283E+02 0.10194585E+03 -.16853937E+03 0.19828347E+03 0.10565837E+00 0.0000E+00 0.9000E+01
      -24  1    3    3    0    0 -.58041428E+02 -.17747671E+03 -.30785338E+03 0.36892778E+03 0.80419002E+02 0.0000E+00 0.9000E+01
#aMCatNLO 1  0  0  2  1 0.47218365D+03 0.00000000D+00  -5  7  0 0.00000000D+00 0.00000000D+00 0.00000000D+00 0.00000000D+00 0.00000000D+00
  <mgrwgt>
 0.7446607583D-03    5    2    0
 0.259662793847045D+03 0.000000000000000D+00 0.000000000000000D+00 0.259662793847045D+03
 0.259662793847045D+03 0.000000000000000D+00 0.000000000000000D+00 -.259662793847045D+03
 0.131373108043505D+03 0.989910309238234D+02 0.314961443528278D+02 0.668019598858622D+00
 0.746500826633771D+02 -.181933126902632D+02 0.440346628756368D+02 0.574681362185372D+02
 0.107064569138935D+03 -.227562963401008D+02 0.101945922950779D+03 -.234947171828302D+02
 0.206237827848272D+03 -.580414218934594D+02 -.177476730179243D+03 -.346414386345656D+02
 0.000000000000000D+00 -.000000000000000D+00 0.000000000000000D+00 -.000000000000000D+00
 0.479591793575978D+03 0.000000000000000D+00 0.000000000000000D+00 0.479591793575978D+03
 0.784230023701636D+03 0.000000000000000D+00 0.000000000000000D+00 -.784230023701636D+03
 0.196838909774277D+03 0.161343890209983D+03 -.790319131014789D+02 0.668019598858622D+00
 0.578944548803909D+02 0.698715130848043D+01 -.600784535144697D+00 0.574681362185372D+02
 0.538056594097909D+02 0.780540822734123D+01 0.477715694888267D+02 -.234947171828302D+02
 0.393355885626318D+03 0.558678209603576D+02 -.379394773439176D+03 -.346414386345656D+02
 0.561926907586837D+03 -.232004270706162D+03 0.411255901586973D+03 -.304638230125658D+03
0.435049190844D-05 0.000000000000D+00 0.000000000000D+00 0.150031868469D-06 0.000000000000D+00  7 -2 2 24 -13 13 -24 21 0 0.14218294D-01 0.11223938D+00 0.59238445D+05 0.59238445D+05 0.59238445D+05 0.11408744D+01  1  2  2  2  7  2        2 0.725031764741D-03 0.100000000000D+01
-.240463058522D-06 0.000000000000D+00 -.167070344392D-07 0.150031868469D-06 0.000000000000D+00  7 -2 2 24 -13 13 -24 21 2 0.14218294D-01 0.11223938D+00 0.59238445D+05 0.59238445D+05 0.59238445D+05 0.11408744D+01  1  2  3  2  7  2        2 -.521606139250D-04 0.100000000000D+01
0.272495605614D-06 0.000000000000D+00 0.000000000000D+00 0.150031868469D-06 0.000000000000D+00  7 -2 2 24 -13 13 -24 21 2 0.14218294D-01 0.11223938D+00 0.59238445D+05 0.59238445D+05 0.59238445D+05 0.11408744D+01  1  2 15  2  7  2        2 0.591090297530D-04 0.100000000000D+01
0.953636196955D-06 0.000000000000D+00 -.156216774747D-05 0.150031868469D-06 0.000000000000D+00  7 -2 2 24 -13 13 -24 21 2 0.14218294D-01 0.44412202D+00 0.59238445D+05 0.59238445D+05 0.59238445D+05 0.11408744D+01  1  2  5  2  7  2        2 0.124847432181D-04 0.100000000000D+01
0.177328589924D-06 0.000000000000D+00 -.256063750947D-06 0.150031868469D-06 0.000000000000D+00  7 -2 21 24 -13 13 -24 -2 2 0.14218294D-01 0.44412202D+00 0.59238445D+05 0.59238445D+05 0.59238445D+05 0.11408744D+01  1  2  5  4  7  2        2 0.195834476302D-06 0.100000000000D+01
  </mgrwgt>
  </event>
  <event>
  8     66 0.27011060E-05 0.33941088E+03 0.75467711E-02 0.97314306E-01
       -2 -1    0    0    0  501 0.00000000E+00 0.00000000E+00 0.18107235E+03 0.18107264E+03 0.32000000E+00 0.0000E+00 0.9000E+01
        2 -1    0    0  501    0 0.00000000E+00 0.00000000E+00 -.71303335E+03 0.71303342E+03 0.32000000E+00 0.0000E+00 0.9000E+01
       25  2    1    2    0    0 -.24537953E+03 -.12431712E+03 -.41294802E+03 0.58121982E+03 0.30269547E+03 0.0000E+00 0.0000E+00
       23  2    1    2    0    0 0.24537953E+03 0.12431712E+03 -.11901298E+03 0.31288624E+03 0.89821213E+02 0.0000E+00 0.0000E+00
       24  1    3    3    0    0 -.77917787E+02 0.62049927E+02 -.61086751E+02 0.14184563E+03 0.80419002E+02 0.0000E+00 0.9000E+01
      -11  1    4    4    0    0 0.73156242E+02 -.34238427E+01 -.15839771E+02 0.74929679E+02 0.51099893E-03 0.0000E+00 0.9000E+01
       11  1    4    4    0    0 0.17222329E+03 0.12774096E+03 -.10317321E+03 0.23795656E+03 0.51099893E-03 0.0000E+00 0.9000E+01
      -24  1    3    3    0    0 -.16746175E+03 -.18636704E+03 -.35186126E+03 0.43937419E+03 0.80419002E+02 0.0000E+00 0.9000E+01
#aMCatNLO 1  0  0  2  2 0.10883041D+03 0.00000000D+00  -5  7  0 0.00000000D+00 0.00000000D+00 0.00000000D+00 0.00000000D+00 0.00000000D+00
  <mgrwgt>
 0.4863544158D-03    4    2    0
 0.359319892345420D+03 0.000000000000000D+00 0.000000000000000D+00 0.359319892345420D+03
 0.359319892345420D+03 0.000000000000000D+00 0.000000000000000D+00 -.359319892345420D+03
 0.131260846202201D+03 -.779177873549647D+02 0.620499272268324D+02 0.289968745936306D+02
 0.814997175957777D+02 0.731562417807577D+02 -.342384267734147D+01 0.357581537278935D+02
 0.219684860460441D+03 0.172223291239707D+03 0.127740959728895D+03 0.477788978276755D+02
 0.286194360432421D+03 -.167461745665500D+03 -.186367044278385D+03 -.112533926149200D+03
 0.000000000000000D+00 0.000000000000000D+00 -.000000000000000D+00 0.000000000000000D+00
 0.473320992038671D+03 0.000000000000000D+00 0.000000000000000D+00 0.473320992038671D+03
 0.390358629981388D+03 0.000000000000000D+00 0.000000000000000D+00 -.390358629981388D+03
 0.142157379436186D+03 -.779231908023389D+02 0.826357197147628D+02 0.289968745936306D+02
 0.819075605382435D+02 0.731530124326559D+02 0.887917154502940D+01 0.357581537278935D+02
 0.241527869934948D+03 0.172214176489909D+03 0.162465892708557D+03 0.477788978276755D+02
 0.261240870141213D+03 -.167472564393667D+03 -.145150376915195D+03 -.112533926149200D+03
 0.136845941969468D+03 0.285662734415350D-01 -.108830407053154D+03 0.829623620572835D+02
0.111196540470D-04 0.000000000000D+00 0.000000000000D+00 0.202779038406D-07 0.000000000000D+00  7 -2 2 24 -11 11 -24 21 0 0.27857312D-01 0.10969747D+00 0.11519975D+06 0.11519975D+06 0.11519975D+06 0.11167139D+01  1  2  2  2  7  2        2 0.626305235140D-03 0.100000000000D+01
-.615318079809D-06 0.000000000000D+00 -.427023994128D-07 0.202779038406D-07 0.000000000000D+00  7 -2 2 24 -11 11 -24 21 2 0.27857312D-01 0.10969747D+00 0.11519975D+06 0.11519975D+06 0.11519975D+06 0.11167139D+01  1  2  3  2  7  2        2 -.432193516247D-04 0.100000000000D+01
0.707969259535D-06 0.000000000000D+00 0.000000000000D+00 0.202779038406D-07 0.000000000000D+00  7 -2 2 24 -11 11 -24 21 2 0.27857312D-01 0.10969747D+00 0.11519975D+06 0.11519975D+06 0.11519975D+06 0.11167139D+01  1  2 15  2  7  2        2 0.497270816044D-04 0.100000000000D+01
-.208514449975D-05 0.000000000000D+00 0.000000000000D+00 0.202779038406D-07 0.000000000000D+00  7 -2 2 24 -11 11 -24 21 2 0.27857312D-01 0.10969747D+00 0.11519975D+06 0.11519975D+06 0.11519975D+06 0.11167139D+01  1  2  4  2  7  2        2 -.146458549294D-03 0.100000000000D+01
  </mgrwgt>
  </event>
  <event>
  8     66 0.27011060E-05 0.30603085E+03 0.75467711E-02 0.83852485E-01
       -2 -1    0    0    0  501 0.00000000E+00 0.00000000E+00 0.56558759E+03 0.56558768E+03 0.32000000E+00 0.0000E+00 0.9000E+01
        2 -1    0    0  501    0 0.00000000E+00 0.00000000E+00 -.19845544E+03 0.19845570E+03 0.32000000E+00 0.0000E+00 0.9000E+01
       25  2    1    2    0    0 0.24005378E+03 0.73978323E+02 0.14942548E+03 0.41887603E+03 0.30005090E+03 0.0000E+00 0.0000E+00
       23  2    1    2    0    0 -.24005378E+03 -.73978323E+02 0.21770667E+03 0.34516735E+03 0.92982212E+02 0.0000E+00 0.0000E+00
       24  1    3    3    0    0 0.82978141E+01 0.72648523E+02 -.32519396E+02 0.11345214E+03 0.80419002E+02 0.0000E+00 0.9000E+01
      -13  1    4    4    0    0 -.57979193E+02 0.77188833E+01 0.92933763E+02 0.10980830E+03 0.10565837E+00 0.0000E+00 0.9000E+01
       13  1    4    4    0    0 -.18207459E+03 -.81697206E+02 0.12477291E+03 0.23535905E+03 0.10565837E+00 0.0000E+00 0.9000E+01
      -24  1    3    3    0    0 0.23175597E+03 0.13297996E+01 0.18194488E+03 0.30542389E+03 0.80419002E+02 0.0000E+00 0.9000E+01
#aMCatNLO 1  0  0  2  2 0.14020466D+04 0.00000000D+00  -5  7  0 0.00000000D+00 0.00000000D+00 0.00000000D+00 0.00000000D+00 0.00000000D+00
  <mgrwgt>
 0.6707131173D-03    5    2    0
 0.335028458061813D+03 0.000000000000000D+00 0.000000000000000D+00 0.335028458061813D+03
 0.335028458061813D+03 0.000000000000000D+00 0.000000000000000D+00 -.335028458061813D+03
 0.147183429142134D+03 0.829781453865955D+01 0.726485233033915D+02 -.992425523421564D+02
 0.742910406688003D+02 -.579790340989747D+02 0.771899674229450D+01 0.458040109367697D+02
 0.200007610807276D+03 -.182074752009041D+03 -.816973198964485D+02 0.133182950642389D+02
 0.248574835505415D+03 0.231755971569356D+03 0.132979985076251D+01 0.401202463411479D+02
 0.000000000000000D+00 0.000000000000000D+00 -.000000000000000D+00 -.000000000000000D+00
 0.138855081730409D+04 0.000000000000000D+00 0.000000000000000D+00 0.138855081730409D+04
 0.158050972693291D+04 0.000000000000000D+00 0.000000000000000D+00 -.158050972693291D+04
 0.334197247503858D+03 -.294491661673529D+03 0.929847368881682D+02 -.992425523421564D+02
 0.294415575621050D+03 -.289896285119985D+03 0.232952274942921D+02 0.458040109367697D+02
 0.832505900389202D+03 -.831527961089765D+03 -.380781712443707D+02 0.133182950642389D+02
 0.928153283048663D+02 0.170208276405803D+02 0.157520307873262D+02 0.401202463411479D+02
 0.141512649241802D+04 0.139889508024270D+04 -.939538239254158D+02 -.191958909628822D+03
0.246657906923D-04 0.000000000000D+00 0.000000000000D+00 0.595962679356D-06 0.000000000000D+00  7 -2 2 24 -13 13 -24 21 0 0.87013503D-01 0.30531633D-01 0.93654884D+05 0.93654884D+05 0.93654884D+05 0.11240658D+01  1  2  2  2  7  2        2 0.615567277667D-03 0.100000000000D+01
-.135666692383D-05 0.000000000000D+00 -.947231309103D-07 0.595962679356D-06 0.000000000000D+00  7 -2 2 24 -13 13 -24 21 2 0.87013503D-01 0.30531633D-01 0.93654884D+05 0.93654884D+05 0.93654884D+05 0.11240658D+01  1  2  3  2  7  2        2 -.427796473762D-04 0.100000000000D+01
0.164728723613D-05 0.000000000000D+00 0.000000000000D+00 0.595962679356D-06 0.000000000000D+00  7 -2 2 24 -13 13 -24 21 2 0.87013503D-01 0.30531633D-01 0.93654884D+05 0.93654884D+05 0.93654884D+05 0.11240658D+01  1  2 15  2  7  2        2 0.519437496786D-04 0.100000000000D+01
0.780523190747D-04 0.000000000000D+00 -.251841740027D-04 0.595962679356D-06 0.000000000000D+00  7 -2 2 24 -13 13 -24 21 2 0.87013503D-01 0.41242177D+00 0.93654884D+05 0.93654884D+05 0.93654884D+05 0.11240658D+01  1  2  5  2  7  2        2 0.449114851736D-04 0.100000000000D+01
0.180521760871D-04 0.000000000000D+00 -.750486728239D-05 0.595962679356D-06 0.000000000000D+00  7 -2 21 24 -13 13 -24 -2 2 0.87013503D-01 0.41242177D+00 0.93654884D+05 0.93654884D+05 0.93654884D+05 0.11240658D+01  1  2  5  4  7  2        2 0.107025212179D-05 0.100000000000D+01
  </mgrwgt>
  </event>
  <event>
  7     66 0.27011060E-05 0.19629089E+03 0.75467711E-02 0.96025031E-01
       -2 -1    0    0    0  501 0.00000000E+00 0.00000000E+00 0.13746395E+03 0.13746432E+03 0.32000000E+00 0.0000E+00 0.9000E+01
        2 -1    0    0  501    0 0.00000000E+00 0.00000000E+00 -.14574027E+04 0.14574028E+04 0.32000000E+00 0.0000E+00 0.9000E+01
       25  2    1    2    0    0 -.23671836E+03 0.28876728E+03 -.84332186E+03 0.97000661E+03 0.30049782E+03 0.0000E+00 0.0000E+00
       24  1    3    3    0    0 0.72268179E+01 0.62825862E+02 -.68763555E+02 0.12326783E+03 0.80419002E+02 0.0000E+00 0.9000E+01
      -13  1    1    2    0    0 0.99044311E+01 0.16209576E+02 -.50047423E+02 0.53531335E+02 0.10565837E+00 0.0000E+00 0.9000E+01
       13  1    1    2    0    0 0.22681392E+03 -.30497686E+03 -.42656952E+03 0.57132916E+03 0.10565837E+00 0.0000E+00 0.9000E+01
      -24  1    3    3    0    0 -.24394517E+03 0.22594142E+03 -.77455830E+03 0.84673878E+03 0.80419002E+02 0.0000E+00 0.9000E+01
#aMCatNLO 1  0  0  1  2 0.41035288D+02 0.00000000D+00  -5  7  0 0.00000000D+00 0.00000000D+00 0.00000000D+00 0.00000000D+00 0.00000000D+00
  <mgrwgt>
 0.1368111046D-02    9    2    0
 0.447594301708700D+03 0.000000000000000D+00 0.000000000000000D+00 0.447594301708700D+03
 0.447594301708700D+03 0.000000000000000D+00 0.000000000000000D+00 -.447594301708700D+03
 0.118223283615926D+03 0.722678916491036D+01 0.628258973484900D+02 0.592470165939528D+02
 0.215770484299914D+02 0.990434992043718D+01 0.162095442725500D+02 -.102334523050616D+02
 0.388910882434618D+03 0.226814123356402D+03 -.304976972101324D+03 0.824383066908098D+02
 0.366477388936864D+03 -.243945262441749D+03 0.225941530480284D+03 -.131451870979701D+03
 0.000000000000000D+00 0.000000000000000D+00 0.000000000000000D+00 0.000000000000000D+00
 0.475803540013508D+03 0.000000000000000D+00 0.000000000000000D+00 0.475803540013508D+03
 0.463240435694058D+03 0.000000000000000D+00 0.000000000000000D+00 -.463240435694058D+03
 0.116962860286923D+03 0.223035000821037D+01 0.608104538355409D+02 0.592470165939528D+02
 0.209006937515885D+02 0.900192662796667D+01 0.158455283977034D+02 -.102334523050616D+02
 0.384906843502258D+03 0.210374663438148D+03 -.311608255263094D+03 0.824383066908098D+02
 0.373358237512123D+03 -.259662785728488D+03 0.219601459210647D+03 -.131451870979701D+03
 0.429153406546738D+02 0.380558456541632D+02 0.153508138192026D+02 0.125631043194501D+02
0.329244483856D-04 0.000000000000D+00 0.000000000000D+00 0.151428916186D-08 0.000000000000D+00  7 -2 2 24 -13 13 -24 21 0 0.21148331D-01 0.22421584D+00 0.17785869D+06 0.17785869D+06 0.17785869D+06 0.11017604D+01  1  2  2  1  7  1       -2 0.103806017872D-02 0.100000000000D+01
-.182125868751D-05 0.000000000000D+00 -.126438551007D-06 0.151428916186D-08 0.000000000000D+00  7 -2 2 24 -13 13 -24 21 2 0.21148331D-01 0.22421584D+00 0.17785869D+06 0.17785869D+06 0.17785869D+06 0.11017604D+01  1  2  3  1  7  1       -2 -.697027637755D-04 0.100000000000D+01
0.203429420199D-05 0.000000000000D+00 0.000000000000D+00 0.151428916186D-08 0.000000000000D+00  7 -2 2 24 -13 13 -24 21 2 0.21148331D-01 0.22421584D+00 0.17785869D+06 0.17785869D+06 0.17785869D+06 0.11017604D+01  1  2 15  1  7  1       -2 0.778560064990D-04 0.100000000000D+01
0.738315510218D-04 0.000000000000D+00 0.000000000000D+00 0.151428916186D-08 0.000000000000D+00  7 -2 2 24 -13 13 -24 21 2 0.22832469D-01 0.22421584D+00 0.19604233D+06 0.19604233D+06 0.19604233D+06 0.10984927D+01  1  2 12  1  7  1       -2 0.246234315343D-02 0.100000000000D+01
-.677205563199D-04 0.000000000000D+00 0.000000000000D+00 0.151428916186D-08 0.000000000000D+00  7 -2 2 24 -13 13 -24 21 2 0.21148331D-01 0.22421584D+00 0.17785869D+06 0.17785869D+06 0.17785869D+06 0.11017604D+01  1  2  4  1  7  1       -2 -.259178444681D-02 0.100000000000D+01
-.236224173427D-03 0.000000000000D+00 -.449733985972D-04 0.151428916186D-08 0.000000000000D+00  7 -2 2 24 -13 13 -24 21 2 0.23286485D-01 0.22421584D+00 0.17785869D+06 0.17785869D+06 0.17785869D+06 0.11017604D+01  1  2  5  1  7  1       -2 -.768447768224D-02 0.100000000000D+01
0.239651077340D-03 0.000000000000D+00 0.447656144830D-04 0.151428916186D-08 0.000000000000D+00  7 -2 2 24 -13 13 -24 21 2 0.21148331D-01 0.22421584D+00 0.17785869D+06 0.17785869D+06 0.17785869D+06 0.11017604D+01  1  2  6  1  7  1       -2 0.917186698788D-02 0.100000000000D+01
0.958139280167D-06 0.000000000000D+00 0.000000000000D+00 0.151428916186D-08 0.000000000000D+00  7 21 2 24 -13 13 -24 2 2 0.22832469D-01 0.22421584D+00 0.19604233D+06 0.19604233D+06 0.19604233D+06 0.10984927D+01  1  2 12  3  7  1       -2 0.393247619035D-03 0.100000000000D+01
-.357570706532D-05 0.000000000000D+00 -.707081842384D-06 0.151428916186D-08 0.000000000000D+00  7 21 2 24 -13 13 -24 2 2 0.23286485D-01 0.22421584D+00 0.17785869D+06 0.17785869D+06 0.17785869D+06 0.11017604D+01  1  2  5  3  7  1       -2 -.142929800650D-02 0.100000000000D+01
  </mgrwgt>
  </event>
  <event>
  9     66 0.27011060E-05 0.30042849E+03 0.75467711E-02 0.93692544E-01
       21 -1    0    0  502  501 0.00000000E+00 0.00000000E+00 0.10337234E+04 0.10337237E+04 0.75000000E+00 0.0000E+00 0.9000E+01
        2 -1    0    0  501    0 0.00000000E+00 0.00000000E+00 -.85557649E+03 0.85557655E+03 0.32000000E+00 0.0000E+00 0.9000E+01
       25  2    1    2    0    0 0.39058423E+03 0.17122876E+03 -.63656894E+03 0.82288300E+03 0.30006848E+03 0.0000E+00 0.0000E+00
       23  2    1    2    0    0 0.82925259E+01 -.21021972E+03 0.10756213E+03 0.25358917E+03 0.92069316E+02 0.0000E+00 0.0000E+00
       24  1    3    3    0    0 0.99567671E+02 0.10595287E+03 -.40209833E+03 0.43507472E+03 0.80419002E+02 0.0000E+00 0.9000E+01
      -13  1    4    4    0    0 0.23885228E+01 -.18155134E+03 0.12414175E+03 0.21994949E+03 0.10565837E+00 0.0000E+00 0.9000E+01
       13  1    4    4    0    0 0.59040031E+01 -.28668378E+02 -.16579616E+02 0.33639679E+02 0.10565837E+00 0.0000E+00 0.9000E+01
      -24  1    3    3    0    0 0.29101656E+03 0.65275890E+02 -.23447061E+03 0.38780828E+03 0.80419002E+02 0.0000E+00 0.9000E+01
        2  1    1    2  502    0 -.39887675E+03 0.38990967E+02 0.70715374E+03 0.81282807E+03 0.32000000E+00 0.0000E+00 0.9000E+01
#aMCatNLO 2  0  0  1  2 0.40077794D+03 0.00000000D+00  -5  7  0 0.00000000D+00 0.00000000D+00 0.00000000D+00 0.00000000D+00 0.00000000D+00
  <mgrwgt>
 0.1318825927D-03    1    2    0
 0.423769151699143D+03 0.000000000000000D+00 0.000000000000000D+00 0.423769151699143D+03
 0.423769151699143D+03 0.000000000000000D+00 0.000000000000000D+00 -.423769151699143D+03
 0.259633166986855D+03 -.193769584077185D+02 0.117579931009676D+03 -.216198193220662D+03
 0.347370855534192D+03 -.147317954709307D+03 -.166917450777678D+03 0.266650513070395D+03
 0.282799193394544D+02 -.695566585437322D+01 -.274111190878538D+02 -.556841077171484D-01
 0.212254361537784D+03 0.173650578971398D+03 0.767486388558550D+02 -.503966357420158D+02
 0.000000000000000D+00 -.000000000000000D+00 0.000000000000000D+00 0.000000000000000D+00
 0.177022470028280D+04 0.000000000000000D+00 0.000000000000000D+00 0.177022470028280D+04
 0.499614372475431D+03 0.000000000000000D+00 0.000000000000000D+00 -.499614372475431D+03
 0.272669406972848D+03 0.995676707292149D+02 0.105952865644277D+03 -.216198193220662D+03
 0.322597527487116D+03 0.238851816973158D+01 -.181551545300635D+03 0.266650513070395D+03
 0.292698610866655D+02 0.590400761813378D+01 -.286681768056126D+02 -.556841077171484D-01
 0.312983409717227D+03 0.291016556456539D+03 0.652758897137079D+02 -.503966357420158D+02
 0.133231886749437D+04 -.398876752973619D+03 0.389909667482633D+02 0.127061032780737D+04
0.135924094013D-04 0.000000000000D+00 0.000000000000D+00 0.476220160018D-05 0.914515560047D-10  7 21 2 24 -13 13 -24 2 2 0.15903439D+00 0.13162717D+00 0.29521168D+06 0.29521168D+06 0.29521168D+06 0.10850692D+01  1  2  1  3  7  1       -2 0.131882592655D-03 0.100000000000D+01
  </mgrwgt>
  </event>
  <event>
  9     66 0.27011060E-05 0.20002783E+03 0.75467711E-02 0.10318084E+00
       21 -1    0    0  502  501 0.00000000E+00 0.00000000E+00 0.26742413E+02 0.26752928E+02 0.75000000E+00 0.0000E+00 0.9000E+01
        2 -1    0    0  501    0 0.00000000E+00 0.00000000E+00 -.26502537E+04 0.26502537E+04 0.32000000E+00 0.0000E+00 0.9000E+01
       25  2    1    2    0    0 0.10149590E+03 0.90912486E+02 -.18401325E+04 0.18692103E+04 0.29881960E+03 0.0000E+00 0.0000E+00
       23  2    1    2    0    0 -.23577711E+02 -.38748623E+02 -.45267173E+03 0.46405284E+03 0.91520402E+02 0.0000E+00 0.0000E+00
       24  1    3    3    0    0 0.18336425E+03 0.60043274E+02 -.12242386E+04 0.12419561E+04 0.80419002E+02 0.0000E+00 0.9000E+01
      -11  1    4    4    0    0 0.21376389E+02 -.24270073E+02 -.34457269E+03 0.34608716E+03 0.51099893E-03 0.0000E+00 0.9000E+01
       11  1    4    4    0    0 -.44954100E+02 -.14478550E+02 -.10809904E+03 0.11796568E+03 0.51099893E-03 0.0000E+00 0.9000E+01
      -24  1    3    3    0    0 -.81868346E+02 0.30869212E+02 -.61589394E+03 0.62725425E+03 0.80419002E+02 0.0000E+00 0.9000E+01
        2  1    1    2  502    0 -.77918192E+02 -.52163864E+02 -.33070708E+03 0.34374350E+03 0.32000000E+00 0.0000E+00 0.9000E+01
#aMCatNLO 2  0  0  1  2 0.93767337D+02 0.00000000D+00  -5  7  0 0.00000000D+00 0.00000000D+00 0.00000000D+00 0.00000000D+00 0.00000000D+00
  <mgrwgt>
 0.3286492802D-03    2    2    0
 0.211171442270698D+03 0.000000000000000D+00 0.000000000000000D+00 0.211171442270698D+03
 0.211171442270698D+03 0.000000000000000D+00 0.000000000000000D+00 -.211171442270698D+03
 0.173914491630572D+03 0.148371861246600D+03 0.366169330601602D+02 -.205918782105260D+02
 0.404295353244670D+02 0.140106548386368D+02 -.292012084733854D+02 -.241978986946964D+02
 0.749463177982791D+02 -.575553261171431D+02 -.229146878663548D+02 0.421811814326897D+02
 0.133052539788079D+03 -.104827189968093D+03 0.154989632795801D+02 0.260859547253264D+01
 0.000000000000000D+00 -.000000000000000D+00 -.000000000000000D+00 0.000000000000000D+00
 0.286012086405180D+03 0.000000000000000D+00 0.000000000000000D+00 0.286012086405180D+03
 0.247850166268213D+03 0.000000000000000D+00 0.000000000000000D+00 -.247850166268213D+03
 0.210044957678428D+03 0.183364249606995D+03 0.600432744742367D+02 -.205918782105260D+02
 0.403921373623445D+02 0.213763893287852D+02 -.242700729031438D+02 -.241978986946964D+02
 0.633225996431567D+02 -.449541004773271D+02 -.144785499544810D+02 0.421811814326897D+02
 0.118866963682114D+03 -.818683459629476D+02 0.308692121633573D+02 0.260859547253264D+01
 0.101235594307349D+03 -.779181924955056D+02 -.521638637799692D+02 0.381619201369676D+02
-.255928604821D-06 0.000000000000D+00 0.000000000000D+00 0.622299450339D-07 0.000000000000D+00  7 21 2 24 -11 11 -24 2 2 0.43040058D-02 0.34739256D+00 0.62802541D+05 0.62802541D+05 0.62802541D+05 0.11386873D+01  1  2 13  3  7  1       -2 -.783924206422D-03 0.100000000000D+01
0.560908414784D-06 0.000000000000D+00 0.000000000000D+00 0.622299450339D-07 0.239769342267D-11  7 21 2 24 -11 11 -24 2 2 0.41150238D-02 0.40773176D+00 0.62802541D+05 0.62802541D+05 0.62802541D+05 0.11386873D+01  1  2  1  3  7  1       -2 0.111257348665D-02 0.100000000000D+01
  </mgrwgt>
  </event>
  <event>
  8     66 0.27011060E-05 0.23817982E+03 0.75467711E-02 0.90912889E-01
       -2 -1    0    0    0  501 0.00000000E+00 0.00000000E+00 0.25073847E+03 0.25073868E+03 0.32000000E+00 0.0000E+00 0.9000E+01
        2 -1    0    0  501    0 0.00000000E+00 0.00000000E+00 -.12125833E+04 0.12125834E+04 0.32000000E+00 0.0000E+00 0.9000E+01
       25  2    1    2    0    0 -.60885220E+02 0.16183841E+03 -.11461140E+04 0.11975158E+04 0.30094524E+03 0.0000E+00 0.0000E+00
       23  2    1    2    0    0 0.60885220E+02 -.16183841E+03 0.18426918E+03 0.26580624E+03 0.82456944E+02 0.0000E+00 0.0000E+00
       24  1    3    3    0    0 0.52858256E+02 0.58871175E+02 -.15689089E+03 0.19324021E+03 0.80419002E+02 0.0000E+00 0.9000E+01
      -11  1    4    4    0    0 -.19213727E+02 -.22385603E+02 0.18366037E+02 0.34750451E+02 0.51099893E-03 0.0000E+00 0.9000E+01
       11  1    4    4    0    0 0.80098947E+02 -.13945281E+03 0.16590314E+03 0.23105579E+03 0.51099893E-03 0.0000E+00 0.9000E+01
      -24  1    3    3    0    0 -.11374348E+03 0.10296724E+03 -.98922313E+03 0.10042756E+04 0.80419002E+02 0.0000E+00 0.9000E+01
#aMCatNLO 1  0  0  1  2 0.60380968D+03 0.00000000D+00  -5  7  0 0.00000000D+00 0.00000000D+00 0.00000000D+00 0.00000000D+00 0.00000000D+00
  <mgrwgt>
 0.2427524388D-02    3    2    0
 0.551399555462107D+03 0.000000000000000D+00 0.000000000000000D+00 0.551399555462107D+03
 0.551399555462107D+03 0.000000000000000D+00 0.000000000000000D+00 -.551399555462107D+03
 0.119575686674097D+03 0.528582559966574D+02 0.588711750475004D+02 -.396398588636440D+02
 0.621295188287935D+02 -.192137266075736D+02 -.223856033294788D+02 0.546790141034204D+02
 0.451289913382896D+03 0.800989470909621D+02 -.139452808212473D+03 0.421662968349980D+03
 0.469803992038429D+03 -.113743476480046D+03 0.102967236494451D+03 -.436702123589756D+03
 0.000000000000000D+00 0.000000000000000D+00 0.000000000000000D+00 -.000000000000000D+00
 0.900571743827983D+03 0.000000000000000D+00 0.000000000000000D+00 0.900571743827983D+03
 0.963821221307674D+03 0.000000000000000D+00 0.000000000000000D+00 -.963821221307674D+03
 0.931876382353609D+02 0.129418311797534D+02 0.218611655796091D+02 -.396398588636440D+02
 0.868803272016982D+02 -.471693919863965D+02 -.483057463557471D+02 0.546790141034204D+02
 0.534260520067120D+03 -.104799694612517D+03 -.310888514477129D+03 0.421662968349980D+03
 0.542951122059668D+03 -.303745975205026D+03 -.732007021170391D+02 -.436702123589756D+03
 0.607113357571810D+03 0.442773230624186D+03 0.410533797370307D+03 -.632494774796902D+02
0.146609714522D-03 0.000000000000D+00 0.000000000000D+00 0.417892094043D-07 0.000000000000D+00  7 -2 2 24 -11 11 -24 21 0 0.38575169D-01 0.18655130D+00 0.56729627D+05 0.56729627D+05 0.56729627D+05 0.11425027D+01  1  2  2  1  7  1       -2 0.227982688264D-02 0.100000000000D+01
-.116676509005D-05 0.000000000000D+00 -.563019906990D-06 0.417892094043D-07 0.000000000000D+00  7 -2 2 24 -11 11 -24 21 2 0.38575169D-01 0.18655130D+00 0.56729627D+05 0.56729627D+05 0.56729627D+05 0.11425027D+01  1  2  3  1  7  1       -2 -.236830169870D-04 0.100000000000D+01
0.844321524857D-05 0.000000000000D+00 0.000000000000D+00 0.417892094043D-07 0.000000000000D+00  7 -2 2 24 -11 11 -24 21 2 0.38575169D-01 0.18655130D+00 0.56729627D+05 0.56729627D+05 0.56729627D+05 0.11425027D+01  1  2 15  1  7  1       -2 0.171380521977D-03 0.100000000000D+01
  </mgrwgt>
  </event>
  <event>
  7     66 0.27011060E-05 0.30746239E+03 0.75467711E-02 0.97993074E-01
       -2 -1    0    0    0  501 0.00000000E+00 0.00000000E+00 0.15965822E+03 0.15965854E+03 0.32000000E+00 0.0000E+00 0.9000E+01
        2 -1    0    0  501    0 0.00000000E+00 0.00000000E+00 -.81251750E+03 0.81251757E+03 0.32000000E+00 0.0000E+00 0.9000E+01
       23  2    1    2    0    0 -.25090442E+03 0.11446486E+03 -.28898807E+03 0.40932534E+03 0.89319078E+02 0.0000E+00 0.0000E+00
       24  1    1    2    0    0 0.99433638E+02 -.10240768E+03 -.35467489E+03 0.39068642E+03 0.80419002E+02 0.0000E+00 0.9000E+01
      -13  1    3    3    0    0 -.22128253E+03 0.11533620E+03 -.28597244E+03 0.37953740E+03 0.10565837E+00 0.0000E+00 0.9000E+01
       13  1    3    3    0    0 -.29621898E+02 -.87133965E+00 -.30156324E+01 0.29787939E+02 0.10565837E+00 0.0000E+00 0.9000E+01
      -24  1    1    2    0    0 0.15147079E+03 -.12057179E+02 -.91963228E+01 0.17216435E+03 0.80419002E+02 0.0000E+00 0.9000E+01
#aMCatNLO 1  0  0  2  2 0.12690522D+03 0.00000000D+00  -5  7  0 0.00000000D+00 0.00000000D+00 0.00000000D+00 0.00000000D+00 0.00000000D+00
  <mgrwgt>
 0.1740527523D-02    4    2    0
 0.360173964957746D+03 0.000000000000000D+00 0.000000000000000D+00 0.360173964957746D+03
 0.360173964957746D+03 0.000000000000000D+00 0.000000000000000D+00 -.360173964957746D+03
 0.205821319946225D+03 0.994340606106115D+02 -.102407548603112D+03 -.124582347744865D+03
 0.253041721649900D+03 -.221283335804456D+03 0.115336608990408D+03 -.419674256702882D+02
 0.374682323694702D+02 -.296217101886397D+02 -.871465590885336D+00 0.229273476467897D+02
 0.224016655949898D+03 0.151470985382484D+03 -.120575947964110D+02 0.143622425768363D+03
 0.000000000000000D+00 0.000000000000000D+00 0.000000000000000D+00 0.000000000000000D+00
 0.650382009858481D+03 0.000000000000000D+00 0.000000000000000D+00 0.650382009858481D+03
 0.379864482838591D+03 0.000000000000000D+00 0.000000000000000D+00 -.379864482838591D+03
 0.210330687268165D+03 0.747226538934440D+02 -.129102849224276D+03 -.124582347744865D+03
 0.268509624490843D+03 -.252253431382370D+03 0.818801562201896D+02 -.419674256702882D+02
 0.417029039883145D+02 -.343229494398772D+02 -.595013215731001D+01 0.229273476467897D+02
 0.210897878256161D+03 0.125645446262985D+03 -.399564731722711D+02 0.143622425768363D+03
 0.298805398693588D+03 0.862082806658176D+02 0.931292983336678D+02 0.270517527019889D+03
0.308030824214D-04 0.000000000000D+00 0.000000000000D+00 0.305253361731D-09 0.000000000000D+00  7 -2 2 24 -13 13 -24 21 0 0.24562833D-01 0.12500272D+00 0.94533123D+05 0.94533123D+05 0.94533123D+05 0.11237312D+01  1  2  2  2  7  2        2 0.183591249877D-02 0.100000000000D+01
-.165918630347D-05 0.000000000000D+00 -.118291947136D-06 0.305253361731D-09 0.000000000000D+00  7 -2 2 24 -13 13 -24 21 2 0.24562833D-01 0.12500272D+00 0.94533123D+05 0.94533123D+05 0.94533123D+05 0.11237312D+01  1  2  3  2  7  2        2 -.124875666249D-03 0.100000000000D+01
0.194207552601D-05 0.000000000000D+00 0.000000000000D+00 0.305253361731D-09 0.000000000000D+00  7 -2 2 24 -13 13 -24 21 2 0.24562833D-01 0.12500272D+00 0.94533123D+05 0.94533123D+05 0.94533123D+05 0.11237312D+01  1  2 15  2  7  2        2 0.146166813642D-03 0.100000000000D+01
-.155024138146D-05 0.000000000000D+00 0.000000000000D+00 0.305253361731D-09 0.000000000000D+00  7 -2 2 24 -13 13 -24 21 2 0.24562833D-01 0.12500272D+00 0.94533123D+05 0.94533123D+05 0.94533123D+05 0.11237312D+01  1  2  4  2  7  2        2 -.116676123081D-03 0.100000000000D+01
  </mgrwgt>
  </event>
  <event>
  8     66 0.27011060E-05 0.13046074E+03 0.75467711E-02 0.11043007E+00
       -2 -1    0    0    0  501 0.00000000E+00 0.00000000E+00 0.50859706E+02 0.50860713E+02 0.32000000E+00 0.0000E+00 0.9000E+01
        2 -1    0    0  501    0 0.00000000E+00 0.00000000E+00 -.15243886E+04 0.15243887E+04 0.32000000E+00 0.0000E+00 0.9000E+01
       25  2    1    2    0    0 0.20060215E+01 -.40786790E+00 -.41671069E+03 0.51394799E+03 0.30081647E+03 0.0000E+00 0.0000E+00
       23  2    1    2    0    0 -.20060215E+01 0.40786790E+00 -.10568182E+04 0.10613014E+04 0.97425134E+02 0.0000E+00 0.0000E+00
       24  1    3    3    0    0 -.66192753E+01 0.24473966E+02 0.43842028E+01 0.84434750E+02 0.80419002E+02 0.0000E+00 0.9000E+01
      -13  1    4    4    0    0 0.44756403E+02 -.43917553E+01 -.34278230E+03 0.34571974E+03 0.10565837E+00 0.0000E+00 0.9000E+01
       13  1    4    4    0    0 -.46762425E+02 0.47996232E+01 -.71403594E+03 0.71558165E+03 0.10565837E+00 0.0000E+00 0.9000E+01
      -24  1    3    3    0    0 0.86252968E+01 -.24881834E+02 -.42109489E+03 0.42951324E+03 0.80419002E+02 0.0000E+00 0.9000E+01
#aMCatNLO 1  0  0  2  2 0.45459651D+02 0.00000000D+00  -5  7  0 0.00000000D+00 0.00000000D+00 0.00000000D+00 0.00000000D+00 0.00000000D+00
  <mgrwgt>
 0.9223374675D-03    4    2    0
 0.278443491146808D+03 0.000000000000000D+00 0.000000000000000D+00 0.278443491146808D+03
 0.278443491146808D+03 0.000000000000000D+00 0.000000000000000D+00 -.278443491146808D+03
 0.250438685592539D+03 -.661927494794384D+01 0.244739649566485D+02 0.235816728680160D+03
 0.709212627481494D+02 0.447564861551474D+02 -.439176367927288D+01 -.548397198080147D+02
 0.134797508954757D+03 -.467625078824221D+02 0.479963162541970D+01 -.126335267495717D+03
 0.100729524998171D+03 0.862529667521857D+01 -.248818329027953D+02 -.546417413764281D+02
 0.000000000000000D+00 -.000000000000000D+00 -.000000000000000D+00 0.000000000000000D+00
 0.412284580925574D+03 0.000000000000000D+00 0.000000000000000D+00 0.412284580925574D+03
 0.283256724322140D+03 0.000000000000000D+00 0.000000000000000D+00 -.283256724322140D+03
 0.250894414894535D+03 0.137424345840226D+02 0.261229293378841D+02 0.235816728680160D+03
 0.747698600444663D+02 0.506737501873989D+02 -.391256238194415D+01 -.548397198080147D+02
 0.131472668677975D+03 -.359479097465414D+02 0.567543663066485D+01 -.126335267495717D+03
 0.101602432973529D+03 0.168430356460768D+02 -.242163308811717D+02 -.546417413764281D+02
 0.136801928657209D+03 -.453113106709569D+02 -.366947270543308D+01 0.129027856603433D+03
0.649254620398D-05 0.000000000000D+00 0.000000000000D+00 0.188941387820D-07 0.000000000000D+00  7 -2 2 24 -13 13 -24 21 0 0.78246502D-02 0.23452141D+00 0.17020006D+05 0.17020006D+05 0.17020006D+05 0.11908884D+01  1  2  2  2  7  2        2 0.927250511578D-03 0.100000000000D+01
-.108624187921D-06 0.000000000000D+00 -.249330869500D-07 0.188941387820D-07 0.000000000000D+00  7 -2 2 24 -13 13 -24 21 2 0.78246502D-02 0.23452141D+00 0.17020006D+05 0.17020006D+05 0.17020006D+05 0.11908884D+01  1  2  3  2  7  2        2 -.220014198343D-04 0.100000000000D+01
0.391927282879D-06 0.000000000000D+00 0.000000000000D+00 0.188941387820D-07 0.000000000000D+00  7 -2 2 24 -13 13 -24 21 2 0.78246502D-02 0.23452141D+00 0.17020006D+05 0.17020006D+05 0.17020006D+05 0.11908884D+01  1  2 15  2  7  2        2 0.793833938845D-04 0.100000000000D+01
-.307559503508D-06 0.000000000000D+00 0.000000000000D+00 0.188941387820D-07 0.000000000000D+00  7 -2 2 24 -13 13 -24 21 2 0.78246502D-02 0.23452141D+00 0.17020006D+05 0.17020006D+05 0.17020006D+05 0.11908884D+01  1  2  4  2  7  2        2 -.622950181742D-04 0.100000000000D+01
  </mgrwgt>
  </event>
  <event>
  8     66 0.27011060E-05 0.15247247E+03 0.75467711E-02 0.10065732E+00
       -2 -1    0    0    0  501 0.00000000E+00 0.00000000E+00 0.18738585E+03 0.18738612E+03 0.32000000E+00 0.0000E+00 0.9000E+01
        2 -1    0    0  501    0 0.00000000E+00 0.00000000E+00 -.79484350E+03 0.79484356E+03 0.32000000E+00 0.0000E+00 0.9000E+01
       25  2    1    2    0    0 0.16219378E+03 0.25146178E+02 0.42849175E+01 0.34236163E+03 0.30042299E+03 0.0000E+00 0.0000E+00
       23  2    1    2    0    0 -.16219378E+03 -.25146178E+02 -.61174257E+03 0.63986805E+03 0.90901072E+02 0.0000E+00 0.0000E+00
       24  1    3    3    0    0 0.93153244E+02 -.50853642E+02 -.10707325E+03 0.17086695E+03 0.80419002E+02 0.0000E+00 0.9000E+01
      -11  1    4    4    0    0 0.11932089E+01 -.18295966E+02 -.26619568E+02 0.32322864E+02 0.51099893E-03 0.0000E+00 0.9000E+01
       11  1    4    4    0    0 -.16338698E+03 -.68502116E+01 -.58512300E+03 0.60754519E+03 0.51099893E-03 0.0000E+00 0.9000E+01
      -24  1    3    3    0    0 0.69040531E+02 0.75999820E+02 0.11135816E+03 0.17149468E+03 0.80419002E+02 0.0000E+00 0.9000E+01
#aMCatNLO 1  0  0  1  2 0.13179399D+03 0.00000000D+00  -5  7  0 0.00000000D+00 0.00000000D+00 0.00000000D+00 0.00000000D+00 0.00000000D+00
  <mgrwgt>
 0.4381441382D-03    9    2    0
 0.385930807498243D+03 0.000000000000000D+00 0.000000000000000D+00 0.385930807498243D+03
 0.385930807498243D+03 0.000000000000000D+00 0.000000000000000D+00 -.385930807498243D+03
 0.133169118986659D+03 0.931532444304788D+02 -.508536423377923D+02 -.178280968357444D+01
 0.201826541487783D+02 0.119320887360119D+01 -.182959661328268D+02 -.843643315267825D+01
 0.312635673284878D+03 -.163386984250814D+03 -.685021156661037D+01 -.266456060522567D+03
 0.305874168576171D+03 0.690405309467342D+02 0.759998200372294D+02 0.276675303358820D+03
 0.000000000000000D+00 -.000000000000000D+00 -.000000000000000D+00 0.000000000000000D+00
 0.549227821147459D+03 0.000000000000000D+00 0.000000000000000D+00 0.549227821147459D+03
 0.419050189391820D+03 0.000000000000000D+00 0.000000000000000D+00 -.419050189391820D+03
 0.130222353611535D+03 0.981859486894037D+02 -.291030324081728D+02 -.178280968357444D+01
 0.174770883080727D+02 0.191278549612055D+01 -.151860614720997D+02 -.843643315267825D+01
 0.309731859579174D+03 -.151495210753501D+03 0.445442899586391D+02 -.266456060522567D+03
 0.325601270801830D+03 0.811063320974504D+02 0.128146443565163D+03 0.276675303358820D+03
 0.185245438238666D+03 -.297098555294736D+02 -.128401639643529D+03 0.130177631755639D+03
0.147099731796D-04 0.000000000000D+00 0.000000000000D+00 0.352886567680D-05 0.000000000000D+00  7 -2 2 24 -11 11 -24 21 0 0.28828618D-01 0.12228364D+00 0.49605112D+05 0.49605112D+05 0.49605112D+05 0.11475984D+01  1  2  2  1  7  1       -2 0.689622477943D-03 0.100000000000D+01
-.516941497189D-06 0.000000000000D+00 -.564901702346D-07 0.352886567680D-05 0.000000000000D+00  7 -2 2 24 -11 11 -24 21 2 0.28828618D-01 0.12228364D+00 0.49605112D+05 0.49605112D+05 0.49605112D+05 0.11475984D+01  1  2  3  1  7  1       -2 -.319169068919D-04 0.100000000000D+01
0.851809145280D-06 0.000000000000D+00 0.000000000000D+00 0.352886567680D-05 0.000000000000D+00  7 -2 2 24 -11 11 -24 21 2 0.28828618D-01 0.12228364D+00 0.49605112D+05 0.49605112D+05 0.49605112D+05 0.11475984D+01  1  2 15  1  7  1       -2 0.525922436627D-04 0.100000000000D+01
0.658307430354D-05 0.000000000000D+00 0.000000000000D+00 0.352886567680D-05 0.000000000000D+00  7 -2 2 24 -11 11 -24 21 2 0.41855496D-01 0.12228364D+00 0.92075170D+05 0.92075170D+05 0.92075170D+05 0.11246765D+01  1  2 12  1  7  1       -2 0.197656119515D-03 0.100000000000D+01
-.157559662803D-04 0.000000000000D+00 0.000000000000D+00 0.352886567680D-05 0.000000000000D+00  7 -2 2 24 -11 11 -24 21 2 0.28828618D-01 0.12228364D+00 0.49605112D+05 0.49605112D+05 0.49605112D+05 0.11475984D+01  1  2  4  1  7  1       -2 -.972801973713D-03 0.100000000000D+01
-.145718748219D-04 0.000000000000D+00 -.577540144896D-05 0.352886567680D-05 0.000000000000D+00  7 -2 2 24 -11 11 -24 21 2 0.43940399D-01 0.12228364D+00 0.49605112D+05 0.49605112D+05 0.49605112D+05 0.11475984D+01  1  2  5  1  7  1       -2 -.421108510995D-03 0.100000000000D+01
0.160379085287D-04 0.000000000000D+00 0.529785709028D-05 0.352886567680D-05 0.000000000000D+00  7 -2 2 24 -11 11 -24 21 2 0.28828618D-01 0.12228364D+00 0.49605112D+05 0.49605112D+05 0.49605112D+05 0.11475984D+01  1  2  6  1  7  1       -2 0.990209600189D-03 0.100000000000D+01
0.297694385322D-06 0.000000000000D+00 0.000000000000D+00 0.352886567680D-05 0.000000000000D+00  7 21 2 24 -11 11 -24 2 2 0.41855496D-01 0.12228364D+00 0.92075170D+05 0.92075170D+05 0.92075170D+05 0.11246765D+01  1  2 12  3  7  1       -2 0.997119388330D-04 0.100000000000D+01
-.509553499004D-06 0.000000000000D+00 -.285724785840D-06 0.352886567680D-05 0.000000000000D+00  7 21 2 24 -11 11 -24 2 2 0.43940399D-01 0.12228364D+00 0.49605112D+05 0.49605112D+05 0.49605112D+05 0.11475984D+01  1  2  5  3  7  1       -2 -.165820850342D-03 0.100000000000D+01
  </mgrwgt>
  </event>
  <event>
  8     66 0.27011060E-05 0.28036025E+03 0.75467711E-02 0.89869332E-01
       -2 -1    0    0    0  501 0.00000000E+00 0.00000000E+00 0.67988776E+02 0.67989529E+02 0.32000000E+00 0.0000E+00 0.9000E+01
        2 -1    0    0  501    0 0.00000000E+00 0.00000000E+00 -.26051443E+04 0.26051443E+04 0.32000000E+00 0.0000E+00 0.9000E+01
       25  2    1    2    0    0 0.16936911E+03 -.77416066E+02 -.23963201E+04 0.24222405E+04 0.30036668E+03 0.0000E+00 0.0000E+00
       23  2    1    2    0    0 -.16936911E+03 0.77416066E+02 -.14083543E+03 0.25089330E+03 0.91835101E+02 0.0000E+00 0.0000E+00
       24  1    3    3    0    0 0.17466083E+02 -.14655497E+03 -.11158652E+04 0.11284528E+04 0.80419002E+02 0.0000E+00 0.9000E+01
      -13  1    4    4    0    0 -.99254357E+02 0.92483758E+02 -.98012707E+02 0.16736539E+03 0.10565837E+00 0.0000E+00 0.9000E+01
       13  1    4    4    0    0 -.70114755E+02 -.15067693E+02 -.42822721E+02 0.83527905E+02 0.10565837E+00 0.0000E+00 0.9000E+01
      -24  1    3    3    0    0 0.15190303E+03 0.69138901E+02 -.12804549E+04 0.12937877E+04 0.80419002E+02 0.0000E+00 0.9000E+01
#aMCatNLO 1  0  0  2  2 0.72507729D+03 0.00000000D+00  -5  7  0 0.00000000D+00 0.00000000D+00 0.00000000D+00 0.00000000D+00 0.00000000D+00
  <mgrwgt>
 0.9847350577D-03    5    2    0
 0.420858175315415D+03 0.000000000000000D+00 0.000000000000000D+00 0.420858175315415D+03
 0.420858175315415D+03 0.000000000000000D+00 0.000000000000000D+00 -.420858175315415D+03
 0.220242708390513D+03 0.174660829300466D+02 -.146554966346816D+03 -.142324321291136D+03
 0.236085144537565D+03 -.992543952805697D+02 0.924839005956485D+02 0.193213582906134D+03
 0.136189885891562D+03 -.701147165612067D+02 -.150678349073923D+02 0.115778114909088D+03
 0.249198611811189D+03 0.151903028911730D+03 0.691389006585597D+02 -.166667376524085D+03
 0.000000000000000D+00 -.000000000000000D+00 0.000000000000000D+00 -.000000000000000D+00
 0.886184955644793D+03 0.000000000000000D+00 0.000000000000000D+00 0.886184955644793D+03
 0.952912373345916D+03 0.000000000000000D+00 0.000000000000000D+00 -.952912373345916D+03
 0.400594509975909D+03 0.156137524258105D+03 -.330716807187108D+03 -.142324321291136D+03
 0.196527807535482D+03 -.262510208354273D+01 -.358440979008966D+02 0.193213582906134D+03
 0.153790528430160D+03 -.534411193040101D+01 -.101086078223469D+03 0.115778114909088D+03
 0.360043270336846D+03 0.287984512778285D+03 -.111583361496745D+03 -.166667376524085D+03
 0.728141212712313D+03 -.436152823022446D+03 0.579230344808219D+03 -.667274177011231D+02
0.410417331013D-04 0.000000000000D+00 0.000000000000D+00 0.201991337955D-05 0.000000000000D+00  7 -2 2 24 -13 13 -24 21 0 0.10459871D-01 0.40079149D+00 0.78601872D+05 0.78601872D+05 0.78601872D+05 0.11304053D+01  1  2  2  2  7  2        2 0.965340175616D-03 0.100000000000D+01
-.182263076536D-05 0.000000000000D+00 -.157611061646D-06 0.201991337955D-05 0.000000000000D+00  7 -2 2 24 -13 13 -24 21 2 0.10459871D-01 0.40079149D+00 0.78601872D+05 0.78601872D+05 0.78601872D+05 0.11304053D+01  1  2  3  2  7  2        2 -.547799694709D-04 0.100000000000D+01
0.246776062513D-05 0.000000000000D+00 0.000000000000D+00 0.201991337955D-05 0.000000000000D+00  7 -2 2 24 -13 13 -24 21 2 0.10459871D-01 0.40079149D+00 0.78601872D+05 0.78601872D+05 0.78601872D+05 0.11304053D+01  1  2 15  2  7  2        2 0.741696312139D-04 0.100000000000D+01
0.394402807044D-05 0.000000000000D+00 -.853269438515D-05 0.201991337955D-05 0.000000000000D+00  7 -2 2 24 -13 13 -24 21 2 0.10459871D-01 0.93878421D+00 0.78601872D+05 0.78601872D+05 0.78601872D+05 0.11304053D+01  1  2  5  2  7  2        2 0.521773019731D-08 0.100000000000D+01
0.905028275333D-06 0.000000000000D+00 -.792066086408D-06 0.201991337955D-05 0.000000000000D+00  7 -2 21 24 -13 13 -24 -2 2 0.10459871D-01 0.93878421D+00 0.78601872D+05 0.78601872D+05 0.78601872D+05 0.11304053D+01  1  2  5  4  7  2        2 0.258974362316D-11 0.100000000000D+01
  </mgrwgt>
  </event>
  <event>
  8     66 0.27011060E-05 0.23558191E+03 0.75467711E-02 0.99214195E-01
       -2 -1    0    0    0  501 0.00000000E+00 0.00000000E+00 0.14026642E+03 0.14026679E+03 0.32000000E+00 0.0000E+00 0.9000E+01
        2 -1    0    0  501    0 0.00000000E+00 0.00000000E+00 -.58534253E+03 0.58534262E+03 0.32000000E+00 0.0000E+00 0.9000E+01
       25  2    1    2    0    0 -.15741547E+03 -.11044951E+03 -.31643065E+03 0.47660443E+03 0.30007451E+03 0.0000E+00 0.0000E+00
       23  2    1    2    0    0 0.15741547E+03 0.11044951E+03 -.12864546E+03 0.24900497E+03 0.92060295E+02 0.0000E+00 0.0000E+00
       24  1    3    3    0    0 -.16468407E+01 -.40996150E+02 -.26674422E+03 0.28160804E+03 0.80419002E+02 0.0000E+00 0.9000E+01
      -11  1    4    4    0    0 0.13921589E+03 0.98865952E+02 -.66535949E+02 0.18325549E+03 0.51099893E-03 0.0000E+00 0.9000E+01
       11  1    4    4    0    0 0.18199576E+02 0.11583556E+02 -.62109509E+02 0.65749483E+02 0.51099893E-03 0.0000E+00 0.9000E+01
      -24  1    3    3    0    0 -.15576863E+03 -.69453357E+02 -.49686427E+02 0.19499639E+03 0.80419002E+02 0.0000E+00 0.9000E+01
#aMCatNLO 1  0  0  1  2 0.17299847D+03 0.00000000D+00  -5  7  0 0.00000000D+00 0.00000000D+00 0.00000000D+00 0.00000000D+00 0.00000000D+00
  <mgrwgt>
 0.7920365219D-03    4    2    0
 0.286538073780497D+03 0.000000000000000D+00 0.000000000000000D+00 0.286538073780497D+03
 0.286538073780497D+03 0.000000000000000D+00 0.000000000000000D+00 -.286538073780497D+03
 0.149397193190798D+03 -.164684069681454D+01 -.409961501837791D+02 -.119033226305710D+03
 0.180357088520212D+03 0.139215894578485D+03 0.988659518962522D+02 0.580787192683131D+02
 0.350127722098561D+02 0.181995760893491D+02 0.115835557273263D+02 -.275769991967797D+02
 0.208309093640128D+03 -.155768629971020D+03 -.694533574397994D+02 0.885315062341770D+02
 0.000000000000000D+00 -.000000000000000D+00 0.000000000000000D+00 -.000000000000000D+00
 0.352881958406008D+03 0.000000000000000D+00 0.000000000000000D+00 0.352881958406008D+03
 0.438973073286135D+03 0.000000000000000D+00 0.000000000000000D+00 -.438973073286135D+03
 0.166504443990691D+03 0.218007427621345D+02 -.813162503104484D+02 -.119033226305710D+03
 0.183722911389697D+03 0.166239484135627D+03 0.523966072563838D+02 0.580787192683131D+02
 0.363124254679535D+02 0.234936402170245D+02 0.247996532626874D+01 -.275769991967797D+02
 0.212079249223559D+03 -.124565592081088D+03 -.123109616481630D+03 0.885315062341770D+02
 0.193236001620241D+03 -.869682750336985D+02 0.149549294209426D+03 -.860911148801273D+02
0.881310393992D-05 0.000000000000D+00 0.000000000000D+00 0.118285266806D-05 0.000000000000D+00  7 -2 2 24 -11 11 -24 21 0 0.21579485D-01 0.90052732D-01 0.55498839D+05 0.55498839D+05 0.55498839D+05 0.11433308D+01  1  2  2  1  7  1       -2 0.967319012968D-03 0.100000000000D+01
-.466791414571D-06 0.000000000000D+00 -.338446396729D-07 0.118285266806D-05 0.000000000000D+00  7 -2 2 24 -11 11 -24 21 2 0.21579485D-01 0.90052732D-01 0.55498839D+05 0.55498839D+05 0.55498839D+05 0.11433308D+01  1  2  3  1  7  1       -2 -.669741946838D-04 0.100000000000D+01
0.578291153047D-06 0.000000000000D+00 0.000000000000D+00 0.118285266806D-05 0.000000000000D+00  7 -2 2 24 -11 11 -24 21 2 0.21579485D-01 0.90052732D-01 0.55498839D+05 0.55498839D+05 0.55498839D+05 0.11433308D+01  1  2 15  1  7  1       -2 0.829719293439D-04 0.100000000000D+01
-.133316970188D-05 0.000000000000D+00 0.000000000000D+00 0.118285266806D-05 0.000000000000D+00  7 -2 2 24 -11 11 -24 21 2 0.21579485D-01 0.90052732D-01 0.55498839D+05 0.55498839D+05 0.55498839D+05 0.11433308D+01  1  2  4  1  7  1       -2 -.191280225756D-03 0.100000000000D+01
  </mgrwgt>
  </event>
  <event>
  8     66 0.27011060E-05 0.39776991E+03 0.75467711E-02 0.92764396E-01
       -2 -1    0    0    0  501 0.00000000E+00 0.00000000E+00 0.12447635E+03 0.12447677E+03 0.32000000E+00 0.0000E+00 0.9000E+01
        2 -1    0    0  501    0 0.00000000E+00 0.00000000E+00 -.14590871E+04 0.14590871E+04 0.32000000E+00 0.0000E+00 0.9000E+01
       25  2    1    2    0    0 -.34044280E+03 -.72887250E+02 -.51892714E+03 0.69248829E+03 0.29839706E+03 0.0000E+00 0.0000E+00
       23  2    1    2    0    0 0.34044280E+03 0.72887250E+02 -.81568359E+03 0.89107560E+03 0.86383750E+02 0.0000E+00 0.0000E+00
       24  1    3    3    0    0 -.35963792E+02 0.55570005E+02 -.56621092E+02 0.11855203E+03 0.80419002E+02 0.0000E+00 0.9000E+01
      -11  1    4    4    0    0 0.10291149E+03 0.35305772E+00 -.32844018E+03 0.34418578E+03 0.51099893E-03 0.0000E+00 0.9000E+01
       11  1    4    4    0    0 0.23753131E+03 0.72534192E+02 -.48724341E+03 0.54688982E+03 0.51099893E-03 0.0000E+00 0.9000E+01
      -24  1    3    3    0    0 -.30447900E+03 -.12845726E+03 -.46230605E+03 0.57393626E+03 0.80419002E+02 0.0000E+00 0.9000E+01
#aMCatNLO 1  0  0  1  2 0.33094150D+03 0.00000000D+00  -5  7  0 0.00000000D+00 0.00000000D+00 0.00000000D+00 0.00000000D+00 0.00000000D+00
  <mgrwgt>
 0.1701159687D-02    3    2    0
 0.426171556124061D+03 0.000000000000000D+00 0.000000000000000D+00 0.426171556124061D+03
 0.426171556124061D+03 0.000000000000000D+00 0.000000000000000D+00 -.426171556124061D+03
 0.131599112168436D+03 -.359637923751756D+02 0.555700052462471D+02 0.804343864530431D+02
 0.125184775882928D+03 0.102911485479231D+03 0.353057723195800D+00 -.712764310242948D+02
 0.253131256609639D+03 0.237531311891405D+03 0.725341922036077D+02 -.489193203682696D+02
 0.342427967587118D+03 -.304479004995461D+03 -.128457255173051D+03 0.397613649395213D+02
 0.000000000000000D+00 0.000000000000000D+00 0.000000000000000D+00 -.000000000000000D+00
 0.550492662303379D+03 0.000000000000000D+00 0.000000000000000D+00 0.550492662303379D+03
 0.750559340620615D+03 0.000000000000000D+00 0.000000000000000D+00 -.750559340620615D+03
 0.140033837129813D+03 -.774168826593801D+02 0.260613764439774D+02 0.804343864530431D+02
 0.101658019731070D+03 0.682936863086909D+02 -.242898284566133D+02 -.712764310242948D+02
 0.180075328688601D+03 0.171420953267855D+03 0.254731403198443D+02 -.489193203682696D+02
 0.492569218448754D+03 -.431905422995277D+03 -.219166508514103D+03 0.397613649395213D+02
 0.386715598925756D+03 0.269607666078112D+03 0.191921820206895D+03 -.200066678317235D+03
0.453025580484D-04 0.000000000000D+00 0.000000000000D+00 0.189411930183D-07 0.000000000000D+00  7 -2 2 24 -11 11 -24 21 0 0.19150243D-01 0.22447497D+00 0.15822090D+06 0.15822090D+06 0.15822090D+06 0.11057279D+01  1  2  2  1  7  1       -2 0.168603438096D-02 0.100000000000D+01
-.250225318038D-05 0.000000000000D+00 -.173973751343D-06 0.189411930183D-07 0.000000000000D+00  7 -2 2 24 -11 11 -24 21 2 0.19150243D-01 0.22447497D+00 0.15822090D+06 0.15822090D+06 0.15822090D+06 0.11057279D+01  1  2  3  1  7  1       -2 -.113860076809D-03 0.100000000000D+01
0.283465542236D-05 0.000000000000D+00 0.000000000000D+00 0.189411930183D-07 0.000000000000D+00  7 -2 2 24 -11 11 -24 21 2 0.19150243D-01 0.22447497D+00 0.15822090D+06 0.15822090D+06 0.15822090D+06 0.11057279D+01  1  2 15  1  7  1       -2 0.128985382714D-03 0.100000000000D+01
  </mgrwgt>
  </event>
  <event>
  8     66 0.27011060E-05 0.35392000E+03 0.75467711E-02 0.91005897E-01
       -2 -1    0    0    0  501 0.00000000E+00 0.00000000E+00 0.10038143E+04 0.10038143E+04 0.32000000E+00 0.0000E+00 0.9000E+01
        2 -1    0    0  501    0 0.00000000E+00 0.00000000E+00 -.63697112E+03 0.63697120E+03 0.32000000E+00 0.0000E+00 0.9000E+01
       25  2    1    2    0    0 0.12041696E+03 -.62946981E+03 -.24628224E+03 0.74922202E+03 0.29991033E+03 0.0000E+00 0.0000E+00
       23  2    1    2    0    0 -.12041696E+03 0.62946981E+03 0.61312541E+03 0.89156352E+03 0.90720766E+02 0.0000E+00 0.0000E+00
       24  1    3    3    0    0 0.94587996E+02 -.30022771E+03 -.24896152E+03 0.40930749E+03 0.80419002E+02 0.0000E+00 0.9000E+01
      -13  1    4    4    0    0 -.55352867E+02 0.44044767E+03 0.46411208E+03 0.64222903E+03 0.10565837E+00 0.0000E+00 0.9000E+01
       13  1    4    4    0    0 -.65064093E+02 0.18902214E+03 0.14901333E+03 0.24933449E+03 0.10565837E+00 0.0000E+00 0.9000E+01
      -24  1    3    3    0    0 0.25828964E+02 -.32924210E+03 0.26792739E+01 0.33991453E+03 0.80419002E+02 0.0000E+00 0.9000E+01
#aMCatNLO 1  0  0  2  1 0.83423998D+02 0.00000000D+00  -5  7  0 0.00000000D+00 0.00000000D+00 0.00000000D+00 0.00000000D+00 0.00000000D+00
  <mgrwgt>
 0.7736476172D-03    9    2    0
 0.799625427257054D+03 0.000000000000000D+00 0.000000000000000D+00 0.799625427257054D+03
 0.799625427257054D+03 0.000000000000000D+00 0.000000000000000D+00 -.799625427257054D+03
 0.477045636096891D+03 0.945879956083189D+02 -.300227711803154D+03 -.349316124902587D+03
 0.552448964045754D+03 -.553528533672270D+02 0.440448010575875D+03 0.328848703021749D+03
 0.221628266495596D+03 -.650641058709786D+02 0.189021802523272D+03 0.956896483842737D+02
 0.348127987875868D+03 0.258289636298867D+02 -.329242101295994D+03 -.752222265034364D+02
 0.000000000000000D+00 0.000000000000000D+00 0.000000000000000D+00 -.000000000000000D+00
 0.809267716967640D+03 0.000000000000000D+00 0.000000000000000D+00 0.809267716967640D+03
 0.100408761656949D+04 0.000000000000000D+00 0.000000000000000D+00 -.100408761656949D+04
 0.478782281207926D+03 0.713744978122013D+02 -.309272020702474D+03 -.349316124902587D+03
 0.547549603111177D+03 -.820677189326014D+02 0.430039518994848D+03 0.328848703021749D+03
 0.221512493429371D+03 -.758263433696429D+02 0.184828681726024D+03 0.956896483842737D+02
 0.353580880896748D+03 0.878707043565952D+01 -.335881865265713D+03 -.752222265034364D+02
 0.211930074891904D+03 0.777324940543835D+02 0.302856852473146D+02 -.194819899601847D+03
0.419120709865D-03 0.000000000000D+00 0.000000000000D+00 0.138101459310D-04 0.000000000000D+00  7 -2 2 24 -13 13 -24 21 0 0.15443298D+00 0.97995568D-01 0.42811424D+06 0.42811424D+06 0.42811424D+06 0.10733075D+01  1  2  2  2  7  2        2 0.634758955650D-03 0.100000000000D+01
-.221455902076D-04 0.000000000000D+00 -.160953388290D-05 0.138101459310D-04 0.000000000000D+00  7 -2 2 24 -13 13 -24 21 2 0.15443298D+00 0.97995568D-01 0.42811424D+06 0.42811424D+06 0.42811424D+06 0.10733075D+01  1  2  3  2  7  2        2 -.386371663374D-04 0.100000000000D+01
0.255155922951D-04 0.000000000000D+00 0.000000000000D+00 0.138101459310D-04 0.000000000000D+00  7 -2 2 24 -13 13 -24 21 2 0.15443298D+00 0.97995568D-01 0.42811424D+06 0.42811424D+06 0.42811424D+06 0.10733075D+01  1  2 15  2  7  2        2 0.445167717122D-04 0.100000000000D+01
0.275349620971D-02 0.000000000000D+00 0.000000000000D+00 0.138101459310D-04 0.000000000000D+00  7 -2 2 24 -13 13 -24 21 2 0.15443298D+00 0.12354048D+00 0.48575291D+06 0.48575291D+06 0.48575291D+06 0.10693988D+01  1  2 12  2  7  2        2 0.355376687953D-02 0.100000000000D+01
-.273647431698D-02 0.000000000000D+00 0.000000000000D+00 0.138101459310D-04 0.000000000000D+00  7 -2 2 24 -13 13 -24 21 2 0.15443298D+00 0.97995568D-01 0.42811424D+06 0.42811424D+06 0.42811424D+06 0.10733075D+01  1  2  4  2  7  2        2 -.477429647944D-02 0.100000000000D+01
-.318290190548D-02 0.000000000000D+00 -.268212880623D-03 0.138101459310D-04 0.000000000000D+00  7 -2 2 24 -13 13 -24 21 2 0.15443298D+00 0.12372130D+00 0.42811424D+06 0.42811424D+06 0.42811424D+06 0.10733075D+01  1  2  5  2  7  2        2 -.415600612857D-02 0.100000000000D+01
0.316613667050D-02 0.000000000000D+00 0.261086979290D-03 0.138101459310D-04 0.000000000000D+00  7 -2 2 24 -13 13 -24 21 2 0.15443298D+00 0.97995568D-01 0.42811424D+06 0.42811424D+06 0.42811424D+06 0.10733075D+01  1  2  6  2  7  2        2 0.552392363620D-02 0.100000000000D+01
0.880602562754D-04 0.000000000000D+00 0.000000000000D+00 0.138101459310D-04 0.000000000000D+00  7 -2 21 24 -13 13 -24 -2 2 0.15443298D+00 0.12354048D+00 0.48575291D+06 0.48575291D+06 0.48575291D+06 0.10693988D+01  1  2 12  4  7  2        2 0.108685721434D-03 0.100000000000D+01
-.982683743178D-04 0.000000000000D+00 -.861817799704D-05 0.138101459310D-04 0.000000000000D+00  7 -2 21 24 -13 13 -24 -2 2 0.15443298D+00 0.12372130D+00 0.42811424D+06 0.42811424D+06 0.42811424D+06 0.10733075D+01  1  2  5  4  7  2        2 -.123064572936D-03 0.100000000000D+01
  </mgrwgt>
  </event>
  <event>
  8     66 0.27011060E-05 0.12225880E+03 0.75467711E-02 0.97184933E-01
       -2 -1    0    0    0  501 0.00000000E+00 0.00000000E+00 0.34711128E+02 0.34712603E+02 0.32000000E+00 0.0000E+00 0.9000E+01
        2 -1    0    0  501    0 0.00000000E+00 0.00000000E+00 -.19041481E+04 0.19041482E+04 0.32000000E+00 0.0000E+00 0.9000E+01
       25  2    1    2    0    0 0.13210703E+03 -.70591344E+02 -.11511967E+04 0.11987679E+04 0.29892333E+03 0.0000E+00 0.0000E+00
       23  2    1    2    0    0 -.13210703E+03 0.70591344E+02 -.71824027E+03 0.74009286E+03 0.97123381E+02 0.0000E+00 0.0000E+00
       24  1    3    3    0    0 0.64937773E+02 -.16381872E+03 -.69635472E+03 0.72279361E+03 0.80419002E+02 0.0000E+00 0.9000E+01
      -13  1    4    4    0    0 -.98939683E+02 0.83831057E+02 -.41583946E+03 0.43559061E+03 0.10565837E+00 0.0000E+00 0.9000E+01
       13  1    4    4    0    0 -.33167347E+02 -.13239713E+02 -.30240080E+03 0.30450225E+03 0.10565837E+00 0.0000E+00 0.9000E+01
      -24  1    3    3    0    0 0.67169257E+02 0.93227379E+02 -.45484202E+03 0.47597429E+03 0.80419002E+02 0.0000E+00 0.9000E+01
#aMCatNLO 1  0  0  1  2 0.24382152D+03 0.00000000D+00  -5  7  0 0.00000000D+00 0.00000000D+00 0.00000000D+00 0.00000000D+00 0.00000000D+00
  <mgrwgt>
 0.7587452834D-03    7    2    0
 0.257092560438464D+03 0.000000000000000D+00 0.000000000000000D+00 0.257092560438464D+03
 0.257092560438464D+03 0.000000000000000D+00 0.000000000000000D+00 -.257092560438464D+03
 0.193714120062615D+03 0.649378569860549D+02 -.163818767874216D+03 0.210484666786017D+01
 0.130622041201209D+03 -.989398547601794D+02 0.838310966317628D+02 0.156642914018169D+02
 0.487531014999948D+02 -.331673197618960D+02 -.132396753195007D+02 -.331889259108388D+02
 0.141095858113108D+03 0.671693175360205D+02 0.932273465619541D+02 0.154197878411617D+02
 0.000000000000000D+00 0.000000000000000D+00 0.000000000000000D+00 0.000000000000000D+00
 0.553667261435629D+03 0.000000000000000D+00 0.000000000000000D+00 0.553667261435629D+03
 0.339754931547215D+03 0.000000000000000D+00 0.000000000000000D+00 -.339754931547215D+03
 0.216829568539353D+03 -.199347306628300D+02 -.200364722375215D+03 0.210484666786017D+01
 0.171933319993027D+03 -.161487781142976D+03 0.568980934673715D+02 0.156642914018169D+02
 0.708849131370682D+02 -.579003461494170D+02 -.238896635202812D+02 -.331889259108388D+02
 0.109417460282653D+03 0.153801555952777D+02 0.709270443281964D+02 0.154197878411617D+02
 0.324356931030743D+03 0.223942702359946D+03 0.964292480999279D+02 0.213912329888414D+03
0.506324883750D-05 0.000000000000D+00 0.000000000000D+00 0.753098035431D-08 0.000000000000D+00  7 -2 2 24 -13 13 -24 21 0 0.53402890D-02 0.29294598D+00 0.62336361D+05 0.62336361D+05 0.62336361D+05 0.11389655D+01  1  2  2  1  7  1       -2 0.801493896758D-03 0.100000000000D+01
-.280998269082D-06 0.000000000000D+00 -.194442087200D-07 0.753098035431D-08 0.000000000000D+00  7 -2 2 24 -13 13 -24 21 2 0.53402890D-02 0.29294598D+00 0.62336361D+05 0.62336361D+05 0.62336361D+05 0.11389655D+01  1  2  3  1  7  1       -2 -.577026421484D-04 0.100000000000D+01
0.320585518127D-06 0.000000000000D+00 0.000000000000D+00 0.753098035431D-08 0.000000000000D+00  7 -2 2 24 -13 13 -24 21 2 0.53402890D-02 0.29294598D+00 0.62336361D+05 0.62336361D+05 0.62336361D+05 0.11389655D+01  1  2 15  1  7  1       -2 0.658318340923D-04 0.100000000000D+01
0.179376004817D-08 0.000000000000D+00 0.000000000000D+00 0.753098035431D-08 0.000000000000D+00  7 -2 2 24 -13 13 -24 21 2 0.11506999D-01 0.29294598D+00 0.16112991D+06 0.16112991D+06 0.16112991D+06 0.11051072D+01  1  2 12  1  7  1       -2 0.106276458524D-06 0.100000000000D+01
-.902033288073D-06 0.000000000000D+00 -.160458712298D-05 0.753098035431D-08 0.000000000000D+00  7 -2 2 24 -13 13 -24 21 2 0.15980812D-01 0.29294598D+00 0.62336361D+05 0.62336361D+05 0.62336361D+05 0.11389655D+01  1  2  5  1  7  1       -2 -.345850471416D-04 0.100000000000D+01
0.149066239410D-09 0.000000000000D+00 0.000000000000D+00 0.753098035431D-08 0.000000000000D+00  7 21 2 24 -13 13 -24 2 2 0.11506999D-01 0.29294598D+00 0.16112991D+06 0.16112991D+06 0.16112991D+06 0.11051072D+01  1  2 12  3  7  1       -2 0.124372169534D-06 0.100000000000D+01
-.318344085221D-07 0.000000000000D+00 -.200021298841D-06 0.753098035431D-08 0.000000000000D+00  7 21 2 24 -13 13 -24 2 2 0.15980812D-01 0.29294598D+00 0.62336361D+05 0.62336361D+05 0.62336361D+05 0.11389655D+01  1  2  5  3  7  1       -2 -.165234067712D-04 0.100000000000D+01
  </mgrwgt>
  </event>
  <event>
  8     66 0.27011060E-05 0.16705643E+03 0.75467711E-02 0.94067405E-01
       -2 -1    0    0    0  501 0.00000000E+00 0.00000000E+00 0.53897894E+02 0.53898844E+02 0.32000000E+00 0.0000E+00 0.9000E+01
        2 -1    0    0  501    0 0.00000000E+00 0.00000000E+00 -.15329542E+04 0.15329542E+04 0.32000000E+00 0.0000E+00 0.9000E+01
       25  2    1    2    0    0 -.16087558E+02 0.78561835E+02 -.42715947E+03 0.52784794E+03 0.29954543E+03 0.0000E+00 0.0000E+00
       23  2    1    2    0    0 0.16087558E+02 -.78561835E+02 -.10518968E+04 0.10590051E+04 0.92596698E+02 0.0000E+00 0.0000E+00
       24  1    3    3    0    0 0.68130185E+02 0.55553104E+02 -.38316148E+03 0.40125778E+03 0.80419002E+02 0.0000E+00 0.9000E+01
      -13  1    4    4    0    0 0.22915529E+02 -.84295854E+02 -.53916536E+03 0.54619613E+03 0.10565837E+00 0.0000E+00 0.9000E+01
       13  1    4    4    0    0 -.68279708E+01 0.57340185E+01 -.51273145E+03 0.51280898E+03 0.10565837E+00 0.0000E+00 0.9000E+01
      -24  1    3    3    0    0 -.84217743E+02 0.23008732E+02 -.43997987E+02 0.12659016E+03 0.80419002E+02 0.0000E+00 0.9000E+01
#aMCatNLO 1  0  0  1  1 0.48520542D+03 0.00000000D+00  -5  7  0 0.00000000D+00 0.00000000D+00 0.00000000D+00 0.00000000D+00 0.00000000D+00
  <mgrwgt>
 0.6595872311D-03    5    2    0
 0.287443527244770D+03 0.000000000000000D+00 0.000000000000000D+00 0.287443527244770D+03
 0.287443527244770D+03 0.000000000000000D+00 0.000000000000000D+00 -.287443527244770D+03
 0.121797380544354D+03 0.681301846899097D+02 0.555531042569508D+02 -.252886633618851D+02
 0.120505577304369D+03 0.229155659951757D+02 -.842959665508427D+02 -.830100055405323D+02
 0.963559816852748D+02 -.682800751535180D+01 0.573412967498151D+01 -.959425519609198D+02
 0.236228114955542D+03 -.842177431697337D+02 0.230087326189104D+02 0.204241220863337D+03
 0.000000000000000D+00 -.000000000000000D+00 0.000000000000000D+00 0.000000000000000D+00
 0.974099090894683D+03 0.000000000000000D+00 0.000000000000000D+00 0.974099090894683D+03
 0.474566032833441D+03 0.000000000000000D+00 0.000000000000000D+00 -.474566032833441D+03
 0.200530930255160D+03 0.180750297341676D+03 0.208626832141590D+02 -.252886633618851D+02
 0.197116936135964D+03 0.133891493476261D+03 -.118479928538496D+03 -.830100055405323D+02
 0.119155737267008D+03 0.684708516074458D+02 -.174602098218076D+02 -.959425519609198D+02
 0.235472562285831D+03 0.805924259310505D+02 -.277578136366286D+02 0.204241220863337D+03
 0.696388957784160D+03 -.463705068356433D+03 0.142835268782773D+03 0.499533058061243D+03
0.413232987610D-05 0.000000000000D+00 0.000000000000D+00 0.368286067739D-06 0.000000000000D+00  7 -2 2 24 -13 13 -24 21 0 0.82920593D-02 0.23583918D+00 0.27907850D+05 0.27907850D+05 0.27907850D+05 0.11702600D+01  1  2  2  1  7  1       -2 0.534862877337D-03 0.100000000000D+01
-.147365663297D-06 0.000000000000D+00 -.158692347917D-07 0.368286067739D-06 0.000000000000D+00  7 -2 2 24 -13 13 -24 21 2 0.82920593D-02 0.23583918D+00 0.27907850D+05 0.27907850D+05 0.27907850D+05 0.11702600D+01  1  2  3  1  7  1       -2 -.261221262917D-04 0.100000000000D+01
0.266285842584D-06 0.000000000000D+00 0.000000000000D+00 0.368286067739D-06 0.000000000000D+00  7 -2 2 24 -13 13 -24 21 2 0.82920593D-02 0.23583918D+00 0.27907850D+05 0.27907850D+05 0.27907850D+05 0.11702600D+01  1  2 15  1  7  1       -2 0.472019889441D-04 0.100000000000D+01
0.358940435244D-05 0.000000000000D+00 -.191291822212D-05 0.368286067739D-06 0.000000000000D+00  7 -2 2 24 -13 13 -24 21 2 0.49029037D-01 0.23583918D+00 0.27907850D+05 0.27907850D+05 0.27907850D+05 0.11702600D+01  1  2  5  1  7  1       -2 0.336340614991D-04 0.100000000000D+01
0.664954551539D-06 0.000000000000D+00 -.416598211443D-06 0.368286067739D-06 0.000000000000D+00  7 21 2 24 -13 13 -24 2 2 0.49029037D-01 0.23583918D+00 0.27907850D+05 0.27907850D+05 0.27907850D+05 0.11702600D+01  1  2  5  3  7  1       -2 0.700104296480D-04 0.100000000000D+01
  </mgrwgt>
  </event>
  <event>
  8     66 0.27011060E-05 0.39284057E+03 0.75467711E-02 0.83166000E-01
       -2 -1    0    0    0  501 0.00000000E+00 0.00000000E+00 0.82718895E+03 0.82718901E+03 0.32000000E+00 0.0000E+00 0.9000E+01
        2 -1    0    0  501    0 0.00000000E+00 0.00000000E+00 -.30497069E+03 0.30497086E+03 0.32000000E+00 0.0000E+00 0.9000E+01
       25  2    1    2    0    0 -.18155677E+03 0.28850988E+03 0.61889219E+03 0.76741012E+03 0.29948278E+03 0.0000E+00 0.0000E+00
       23  2    1    2    0    0 0.18155677E+03 -.28850988E+03 -.96673940E+02 0.36474975E+03 0.86577804E+02 0.0000E+00 0.0000E+00
       24  1    3    3    0    0 -.52135277E+00 -.11723424E+02 0.53502672E+02 0.97300885E+02 0.80419002E+02 0.0000E+00 0.9000E+01
      -13  1    4    4    0    0 0.61370490E+02 -.14546889E+03 -.83800209E+01 0.15810683E+03 0.10565837E+00 0.0000E+00 0.9000E+01
       13  1    4    4    0    0 0.12018628E+03 -.14304099E+03 -.88293920E+02 0.20664292E+03 0.10565837E+00 0.0000E+00 0.9000E+01
      -24  1    3    3    0    0 -.18103541E+03 0.30023331E+03 0.56538952E+03 0.67010923E+03 0.80419002E+02 0.0000E+00 0.9000E+01
#aMCatNLO 1  0  0  2  1 0.15082928D+04 0.00000000D+00  -5  7  0 0.00000000D+00 0.00000000D+00 0.00000000D+00 0.00000000D+00 0.00000000D+00
  <mgrwgt>
 0.9485539366D-03    5    2    0
 0.502263394389018D+03 0.000000000000000D+00 0.000000000000000D+00 0.502263394389018D+03
 0.502263394389018D+03 0.000000000000000D+00 0.000000000000000D+00 -.502263394389018D+03
 0.818495704562280D+02 -.521352785803245D+00 -.117234240213037D+02 0.971729128862317D+01
 0.182551895098932D+03 0.613704023976289D+02 -.145468894136813D+03 -.916387961093841D+02
 0.278799589870687D+03 0.120186364720973D+03 -.143040990344899D+03 -.206938938163824D+03
 0.461325733352190D+03 -.181035414332799D+03 0.300233308503015D+03 0.288860442984585D+03
 0.000000000000000D+00 -.000000000000000D+00 0.000000000000000D+00 -.000000000000000D+00
 0.144444604211334D+04 0.000000000000000D+00 0.000000000000000D+00 0.144444604211334D+04
 0.196253255947415D+04 0.000000000000000D+00 0.000000000000000D+00 -.196253255947415D+04
 0.153280008538002D+03 0.116903012202889D+03 -.571559712623520D+02 0.971729128862317D+01
 0.494081915219808D+03 0.399283207100548D+03 -.276210409873338D+03 -.916387961093841D+02
 0.748761363819869D+03 0.633353159772518D+03 -.341589857617563D+03 -.206938938163824D+03
 0.416063559710278D+03 0.257135236192908D+03 0.130701126816811D+03 0.288860442984585D+03
 0.159479175429954D+04 -.140667461526886D+04 0.544255111936442D+03 -.518086517360810D+03
0.143121647446D-03 0.000000000000D+00 0.000000000000D+00 0.191347847714D-06 0.000000000000D+00  7 -2 2 24 -13 13 -24 21 0 0.12725986D+00 0.46918586D-01 0.15432372D+06 0.15432372D+06 0.15432372D+06 0.11065793D+01  1  2  2  2  7  2        2 0.868751105866D-03 0.100000000000D+01
-.736749119812D-05 0.000000000000D+00 -.549624810986D-06 0.191347847714D-06 0.000000000000D+00  7 -2 2 24 -13 13 -24 21 2 0.12725986D+00 0.46918586D-01 0.15432372D+06 0.15432372D+06 0.15432372D+06 0.11065793D+01  1  2  3  2  7  2        2 -.547614266805D-04 0.100000000000D+01
0.928167013913D-05 0.000000000000D+00 0.000000000000D+00 0.191347847714D-06 0.000000000000D+00  7 -2 2 24 -13 13 -24 21 2 0.12725986D+00 0.46918586D-01 0.15432372D+06 0.15432372D+06 0.15432372D+06 0.11065793D+01  1  2 15  2  7  2        2 0.689892237573D-04 0.100000000000D+01
0.238615005929D-03 0.000000000000D+00 -.929201122772D-04 0.191347847714D-06 0.000000000000D+00  7 -2 2 24 -13 13 -24 21 2 0.12725986D+00 0.38519821D+00 0.15432372D+06 0.15432372D+06 0.15432372D+06 0.11065793D+01  1  2  5  2  7  2        2 0.639781100278D-04 0.100000000000D+01
0.493051950931D-04 0.000000000000D+00 -.237025459986D-04 0.191347847714D-06 0.000000000000D+00  7 -2 21 24 -13 13 -24 -2 2 0.12725986D+00 0.38519821D+00 0.15432372D+06 0.15432372D+06 0.15432372D+06 0.11065793D+01  1  2  5  4  7  2        2 0.159692362119D-05 0.100000000000D+01
  </mgrwgt>
  </event>
  <event>
  8     66 0.27011060E-05 0.20881190E+03 0.75467711E-02 0.97221912E-01
       -2 -1    0    0    0  501 0.00000000E+00 0.00000000E+00 0.37869980E+02 0.37871332E+02 0.32000000E+00 0.0000E+00 0.9000E+01
        2 -1    0    0  501    0 0.00000000E+00 0.00000000E+00 -.19315388E+04 0.19315388E+04 0.32000000E+00 0.0000E+00 0.9000E+01
       25  2    1    2    0    0 0.83900852E+02 0.52729962E+02 -.69702076E+03 0.76512607E+03 0.29959999E+03 0.0000E+00 0.0000E+00
       23  2    1    2    0    0 -.83900852E+02 -.52729962E+02 -.11966481E+04 0.12042841E+04 0.92270207E+02 0.0000E+00 0.0000E+00
       24  1    3    3    0    0 0.14851122E+03 -.81417030E+01 -.55047313E+03 0.57585567E+03 0.80419002E+02 0.0000E+00 0.9000E+01
      -11  1    4    4    0    0 -.75814617E+02 -.74038870E+02 -.10948190E+04 0.10999356E+04 0.51099893E-03 0.0000E+00 0.9000E+01
       11  1    4    4    0    0 -.80862351E+01 0.21308908E+02 -.10182903E+03 0.10434849E+03 0.51099893E-03 0.0000E+00 0.9000E+01
      -24  1    3    3    0    0 -.64610370E+02 0.60871665E+02 -.14654764E+03 0.18927040E+03 0.80419002E+02 0.0000E+00 0.9000E+01
#aMCatNLO 1  0  0  1  2 0.29105943D+03 0.00000000D+00  -5  7  0 0.00000000D+00 0.00000000D+00 0.00000000D+00 0.00000000D+00 0.00000000D+00
  <mgrwgt>
 0.1381130134D-02    3    2    0
 0.270460149421422D+03 0.000000000000000D+00 0.000000000000000D+00 0.270460149421422D+03
 0.270460149421422D+03 0.000000000000000D+00 0.000000000000000D+00 -.270460149421422D+03
 0.169493000302438D+03 0.148511222174918D+03 -.814170304271605D+01 0.117809488933698D+02
 0.171928615127165D+03 -.758146169638120D+02 -.740388702059117D+02 -.135387733021893D+03
 0.234314079324818D+02 -.808623512702396D+01 0.213089082718844D+02 -.543820810830827D+01
 0.176067275480759D+03 -.646103700840819D+02 0.608716649767433D+02 0.129044992236831D+03
 0.000000000000000D+00 0.000000000000000D+00 -.000000000000000D+00 -.000000000000000D+00
 0.350127264296197D+03 0.000000000000000D+00 0.000000000000000D+00 0.350127264296197D+03
 0.799668558832291D+03 0.000000000000000D+00 0.000000000000000D+00 -.799668558832291D+03
 0.162885711560538D+03 0.121857243388544D+03 0.712499863377471D+02 0.117809488933698D+02
 0.170454247135374D+03 -.103270844519462D+03 0.774240181835488D+01 -.135387733021893D+03
 0.388626584838749D+02 -.130816956228906D+02 0.361884146742444D+02 -.543820810830827D+01
 0.242053323169421D+03 -.981401274626536D+02 0.160743586693839D+03 0.129044992236831D+03
 0.535539882779280D+03 0.926354242164618D+02 -.275924389524186D+03 -.449541294536094D+03
0.100992934677D-04 0.000000000000D+00 0.000000000000D+00 0.500232097673D-06 0.000000000000D+00  7 -2 2 24 -11 11 -24 21 0 0.58262568D-02 0.29715992D+00 0.43602410D+05 0.43602410D+05 0.43602410D+05 0.11525624D+01  1  2  2  1  7  1       -2 0.136293514601D-02 0.100000000000D+01
-.515419595235D-06 0.000000000000D+00 -.387839461210D-07 0.500232097673D-06 0.000000000000D+00  7 -2 2 24 -11 11 -24 21 2 0.58262568D-02 0.29715992D+00 0.43602410D+05 0.43602410D+05 0.43602410D+05 0.11525624D+01  1  2  3  1  7  1       -2 -.924004408618D-04 0.100000000000D+01
0.616913194532D-06 0.000000000000D+00 0.000000000000D+00 0.500232097673D-06 0.000000000000D+00  7 -2 2 24 -11 11 -24 21 2 0.58262568D-02 0.29715992D+00 0.43602410D+05 0.43602410D+05 0.43602410D+05 0.11525624D+01  1  2 15  1  7  1       -2 0.110595428802D-03 0.100000000000D+01
  </mgrwgt>
  </event>
  <event>
  8     66 0.27011060E-05 0.21559520E+03 0.75467711E-02 0.97012678E-01
       -2 -1    0    0    0  501 0.00000000E+00 0.00000000E+00 0.10757609E+03 0.10757657E+03 0.32000000E+00 0.0000E+00 0.9000E+01
        2 -1    0    0  501    0 0.00000000E+00 0.00000000E+00 -.11838451E+04 0.11838451E+04 0.32000000E+00 0.0000E+00 0.9000E+01
       25  2    1    2    0    0 0.28404106E+02 0.12365449E+03 -.10876436E+04 0.11353862E+04 0.30005993E+03 0.0000E+00 0.0000E+00
       23  2    1    2    0    0 -.28404106E+02 -.12365449E+03 0.11374623E+02 0.15603549E+03 0.90113635E+02 0.0000E+00 0.0000E+00
       24  1    3    3    0    0 0.10818573E+03 0.13298447E+03 -.86410847E+03 0.88461273E+03 0.80419002E+02 0.0000E+00 0.9000E+01
      -13  1    4    4    0    0 -.28541879E+02 -.12428686E+03 0.35128936E+02 0.13227213E+03 0.10565837E+00 0.0000E+00 0.9000E+01
       13  1    4    4    0    0 0.13777299E+00 0.63237382E+00 -.23754313E+02 0.23763363E+02 0.10565837E+00 0.0000E+00 0.9000E+01
      -24  1    3    3    0    0 -.79781619E+02 -.93299785E+01 -.22353513E+03 0.25077346E+03 0.80419002E+02 0.0000E+00 0.9000E+01
#aMCatNLO 1  0  0  1  2 0.28821762D+03 0.00000000D+00  -5  7  0 0.00000000D+00 0.00000000D+00 0.00000000D+00 0.00000000D+00 0.00000000D+00
  <mgrwgt>
 0.1147954344D-02    3    2    0
 0.356866585477641D+03 0.000000000000000D+00 0.000000000000000D+00 0.356866585477641D+03
 0.356866585477641D+03 0.000000000000000D+00 0.000000000000000D+00 -.356866585477641D+03
 0.297583083357746D+03 0.108185725827676D+03 0.132984466467371D+03 -.229563620706462D+03
 0.292304698232743D+03 -.285419188979404D+02 -.124287033637911D+03 0.263021156457132D+03
 0.717664887190708D+01 0.137812412157629D+00 0.632545535381848D+00 -.714738993726864D+01
 0.116668740492885D+03 -.797816193418931D+02 -.932997836484171D+01 -.263101458134009D+02
 0.000000000000000D+00 -.000000000000000D+00 0.000000000000000D+00 -.000000000000000D+00
 0.499020452181767D+03 0.000000000000000D+00 0.000000000000000D+00 0.499020452181767D+03
 0.566786787039593D+03 0.000000000000000D+00 0.000000000000000D+00 -.566786787039593D+03
 0.276664788010330D+03 0.129707233336540D+03 0.235109897441630D+02 -.229563620706462D+03
 0.362261175899153D+03 -.401027485089336D+01 -.249072175313523D+03 0.263021156457132D+03
 0.749980260314711D+01 0.687852519178607D+00 -.216534410259958D+01 -.714738993726864D+01
 0.123304337571275D+03 -.707879727669756D+02 -.550779706265571D+02 -.263101458134009D+02
 0.296077135137455D+03 -.555968382378501D+02 0.282804500298517D+03 -.677663348578262D+02
0.163681861258D-04 0.000000000000D+00 0.000000000000D+00 0.313526166148D-05 0.000000000000D+00  7 -2 2 24 -13 13 -24 21 0 0.16550208D-01 0.18213005D+00 0.46481292D+05 0.46481292D+05 0.46481292D+05 0.11500935D+01  1  2  2  1  7  1       -2 0.111892823081D-02 0.100000000000D+01
-.628541376142D-06 0.000000000000D+00 -.628581445653D-07 0.313526166148D-05 0.000000000000D+00  7 -2 2 24 -13 13 -24 21 2 0.16550208D-01 0.18213005D+00 0.46481292D+05 0.46481292D+05 0.46481292D+05 0.11500935D+01  1  2  3  1  7  1       -2 -.568331615867D-04 0.100000000000D+01
0.949553131531D-06 0.000000000000D+00 0.000000000000D+00 0.313526166148D-05 0.000000000000D+00  7 -2 2 24 -13 13 -24 21 2 0.16550208D-01 0.18213005D+00 0.46481292D+05 0.46481292D+05 0.46481292D+05 0.11500935D+01  1  2 15  1  7  1       -2 0.858592745171D-04 0.100000000000D+01
  </mgrwgt>
  </event>
  <event>
  9     66 0.27011060E-05 0.32263325E+03 0.75467711E-02 0.92854108E-01
       21 -1    0    0  502  501 0.00000000E+00 0.00000000E+00 0.15224025E+03 0.15224209E+03 0.75000000E+00 0.0000E+00 0.9000E+01
        2 -1    0    0  501    0 0.00000000E+00 0.00000000E+00 -.38341530E+04 0.38341531E+04 0.32000000E+00 0.0000E+00 0.9000E+01
       25  2    1    2    0    0 0.97259187E+02 -.94515822E+02 -.14461398E+04 0.14829060E+04 0.29882619E+03 0.0000E+00 0.0000E+00
       23  2    1    2    0    0 -.41578710E+03 -.15998852E+03 -.19580779E+04 0.20101869E+04 0.91143284E+02 0.0000E+00 0.0000E+00
       24  1    3    3    0    0 -.12433413E+02 -.15146555E+03 -.60583117E+03 0.62975791E+03 0.80419002E+02 0.0000E+00 0.9000E+01
      -13  1    4    4    0    0 -.10248501E+03 -.37865622E+02 -.67463410E+03 0.68342385E+03 0.10565837E+00 0.0000E+00 0.9000E+01
       13  1    4    4    0    0 -.31330209E+03 -.12212289E+03 -.12834438E+04 0.13267631E+04 0.10565837E+00 0.0000E+00 0.9000E+01
      -24  1    3    3    0    0 0.10969260E+03 0.56949730E+02 -.84030865E+03 0.85314805E+03 0.80419002E+02 0.0000E+00 0.9000E+01
        2  1    1    2  502    0 0.31852791E+03 0.25450434E+03 -.27769506E+03 0.49330227E+03 0.32000000E+00 0.0000E+00 0.9000E+01
#aMCatNLO 2  0  0  1  1 0.40771618D+03 0.00000000D+00  -5  7  0 0.00000000D+00 0.00000000D+00 0.00000000D+00 0.00000000D+00 0.00000000D+00
  <mgrwgt>
 0.1481651568D-03    1    2    0
 0.334203135846718D+03 0.000000000000000D+00 0.000000000000000D+00 0.334203135846718D+03
 0.334203135846718D+03 0.000000000000000D+00 0.000000000000000D+00 -.334203135846718D+03
 0.141998407669247D+03 0.572522937104211D+02 -.957865554505790D+02 0.352624798623127D+02
 0.723814331130556D+02 -.611854518362058D+02 -.486732151064574D+01 -.383630228789531D+02
 0.201237294668260D+03 -.194745611018601D+03 -.273959523034236D+02 0.426621325273433D+02
 0.252789136242872D+03 0.198678769144385D+03 0.128049829264648D+03 -.395615895107029D+02
 0.000000000000000D+00 0.000000000000000D+00 0.000000000000000D+00 0.000000000000000D+00
 0.134116391712403D+04 0.000000000000000D+00 0.000000000000000D+00 0.134116391712403D+04
 0.435230956067306D+03 0.000000000000000D+00 0.000000000000000D+00 -.435230956067306D+03
 0.175519405598252D+03 -.124334128346037D+02 -.151465552342562D+03 0.352624798623127D+02
 0.115795667868441D+03 -.102484722899283D+03 -.378655086449975D+02 -.383630228789531D+02
 0.338957909662999D+03 -.313302375121609D+03 -.122123006491356D+03 0.426621325273433D+02
 0.152669819056320D+03 0.109692600197611D+03 0.569497304084273D+02 -.395615895107029D+02
 0.993452071005329D+03 0.318527910657884D+03 0.254504337070488D+03 0.905932961056729D+03
0.117778073739D-04 0.000000000000D+00 0.000000000000D+00 0.377540028737D-06 0.697730936318D-11  7 21 2 24 -13 13 -24 2 2 0.23421718D-01 0.58986981D+00 0.34376554D+06 0.34376554D+06 0.34376554D+06 0.10802033D+01  1  2  1  3  7  1       -2 0.148165156820D-03 0.100000000000D+01
  </mgrwgt>
  </event>
  <event>
  8     66 0.27011060E-05 0.57088843E+02 0.75467711E-02 0.10665063E+00
       -2 -1    0    0    0  501 0.00000000E+00 0.00000000E+00 0.27680179E+02 0.27682029E+02 0.32000000E+00 0.0000E+00 0.9000E+01
        2 -1    0    0  501    0 0.00000000E+00 0.00000000E+00 -.15597619E+04 0.15597619E+04 0.32000000E+00 0.0000E+00 0.9000E+01
       25  2    1    2    0    0 0.50505875E+01 0.43816676E+02 -.10466590E+04 0.10904094E+04 0.30257570E+03 0.0000E+00 0.0000E+00
       23  2    1    2    0    0 -.50505875E+01 -.43816676E+02 -.48542268E+03 0.49703459E+03 0.97276870E+02 0.0000E+00 0.0000E+00
       24  1    3    3    0    0 0.10723171E+03 0.44290917E+02 -.28855491E+03 0.32123430E+03 0.80419002E+02 0.0000E+00 0.9000E+01
      -13  1    4    4    0    0 -.28214644E+02 -.60142188E+02 -.42659758E+03 0.43173911E+03 0.10565837E+00 0.0000E+00 0.9000E+01
       13  1    4    4    0    0 0.23164056E+02 0.16325512E+02 -.58825099E+02 0.65295477E+02 0.10565837E+00 0.0000E+00 0.9000E+01
      -24  1    3    3    0    0 -.10218112E+03 -.47424066E+00 -.75810411E+03 0.76917506E+03 0.80419002E+02 0.0000E+00 0.9000E+01
#aMCatNLO 1  0  0  1  2 0.24146282D+02 0.00000000D+00  -5  7  0 0.00000000D+00 0.00000000D+00 0.00000000D+00 0.00000000D+00 0.00000000D+00
  <mgrwgt>
 0.1268492085D-02    9    2    0
 0.207788312430323D+03 0.000000000000000D+00 0.000000000000000D+00 0.207788312430323D+03
 0.207788312430323D+03 0.000000000000000D+00 0.000000000000000D+00 -.207788312430323D+03
 0.163271226904129D+03 0.107230134484828D+03 0.442937692087319D+02 0.820368078855979D+02
 0.764748913912923D+02 -.282151416654520D+02 -.601464934931127D+02 -.378776202340033D+02
 0.325508223832068D+02 0.231638505197797D+02 0.163237130358796D+02 0.160165058499859D+02
 0.143279684182017D+03 -.102178843339156D+03 -.470988751498787D+00 -.601756935015804D+02
 0.000000000000000D+00 -.000000000000000D+00 -.000000000000000D+00 0.000000000000000D+00
 0.237848643081711D+03 0.000000000000000D+00 0.000000000000000D+00 0.237848643081711D+03
 0.213044896548346D+03 0.000000000000000D+00 0.000000000000000D+00 -.213044896548346D+03
 0.170015003023685D+03 0.116849784694848D+03 0.453208039147861D+02 0.820368078855979D+02
 0.746027484112726D+02 -.238545833256406D+02 -.596809417677396D+02 -.378776202340033D+02
 0.340446959185255D+02 0.250859989138384D+02 0.165289297607901D+02 0.160165058499859D+02
 0.137615073141259D+03 -.940713697364703D+02 0.394599558531743D+00 -.601756935015804D+02
 0.346160191353153D+02 -.240098305465751D+02 -.256339146636823D+01 0.248037465333650D+02
0.452190352679D-05 0.000000000000D+00 0.000000000000D+00 0.662050687064D-09 0.000000000000D+00  7 -2 2 24 -13 13 -24 21 0 0.42586339D-02 0.23996351D+00 0.33483257D+05 0.33483257D+05 0.33483257D+05 0.11629353D+01  1  2  2  1  7  1       -2 0.151816997228D-02 0.100000000000D+01
-.246281100626D-06 0.000000000000D+00 -.173653001874D-07 0.662050687064D-09 0.000000000000D+00  7 -2 2 24 -13 13 -24 21 2 0.42586339D-02 0.23996351D+00 0.33483257D+05 0.33483257D+05 0.33483257D+05 0.11629353D+01  1  2  3  1  7  1       -2 -.111825624806D-03 0.100000000000D+01
0.275579635702D-06 0.000000000000D+00 0.000000000000D+00 0.662050687064D-09 0.000000000000D+00  7 -2 2 24 -13 13 -24 21 2 0.42586339D-02 0.23996351D+00 0.33483257D+05 0.33483257D+05 0.33483257D+05 0.11629353D+01  1  2 15  1  7  1       -2 0.125128825833D-03 0.100000000000D+01
0.133772754433D-04 0.000000000000D+00 0.000000000000D+00 0.662050687064D-09 0.000000000000D+00  7 -2 2 24 -13 13 -24 21 2 0.49233987D-02 0.23996351D+00 0.38246421D+05 0.38246421D+05 0.38246421D+05 0.11576749D+01  1  2 12  1  7  1       -2 0.486599382698D-02 0.100000000000D+01
-.135880233009D-04 0.000000000000D+00 0.000000000000D+00 0.662050687064D-09 0.000000000000D+00  7 -2 2 24 -13 13 -24 21 2 0.42586339D-02 0.23996351D+00 0.33483257D+05 0.33483257D+05 0.33483257D+05 0.11629353D+01  1  2  4  1  7  1       -2 -.616973528070D-02 0.100000000000D+01
-.230317950008D-04 0.000000000000D+00 -.390480346260D-05 0.662050687064D-09 0.000000000000D+00  7 -2 2 24 -13 13 -24 21 2 0.50041765D-02 0.23996351D+00 0.33483257D+05 0.33483257D+05 0.33483257D+05 0.11629353D+01  1  2  5  1  7  1       -2 -.825004550139D-02 0.100000000000D+01
0.234067540879D-04 0.000000000000D+00 0.385453632876D-05 0.662050687064D-09 0.000000000000D+00  7 -2 2 24 -13 13 -24 21 2 0.42586339D-02 0.23996351D+00 0.33483257D+05 0.33483257D+05 0.33483257D+05 0.11629353D+01  1  2  6  1  7  1       -2 0.106279974140D-01 0.100000000000D+01
0.296947636725D-06 0.000000000000D+00 0.000000000000D+00 0.662050687064D-09 0.000000000000D+00  7 21 2 24 -13 13 -24 2 2 0.49233987D-02 0.23996351D+00 0.38246421D+05 0.38246421D+05 0.38246421D+05 0.11576749D+01  1  2 12  3  7  1       -2 0.179599234602D-02 0.100000000000D+01
-.526176762894D-06 0.000000000000D+00 -.944411716987D-07 0.662050687064D-09 0.000000000000D+00  7 21 2 24 -13 13 -24 2 2 0.50041765D-02 0.23996351D+00 0.33483257D+05 0.33483257D+05 0.33483257D+05 0.11629353D+01  1  2  5  3  7  1       -2 -.313318389306D-02 0.100000000000D+01
  </mgrwgt>
  </event>
  <event>
  8     66 0.27011060E-05 0.54916216E+03 0.75467711E-02 0.87831770E-01
       -2 -1    0    0    0  501 0.00000000E+00 0.00000000E+00 0.42437613E+03 0.42437625E+03 0.32000000E+00 0.0000E+00 0.9000E+01
        2 -1    0    0  501    0 0.00000000E+00 0.00000000E+00 -.80537856E+03 0.80537862E+03 0.32000000E+00 0.0000E+00 0.9000E+01
       25  2    1    2    0    0 -.56781533E+02 0.51232747E+03 -.24875057E+02 0.59663499E+03 0.29941772E+03 0.0000E+00 0.0000E+00
       23  2    1    2    0    0 0.56781533E+02 -.51232747E+03 -.35612738E+03 0.63311988E+03 0.91161932E+02 0.0000E+00 0.0000E+00
       24  1    3    3    0    0 -.72821107E+02 0.48413694E+03 -.66266050E+02 0.50054959E+03 0.80419002E+02 0.0000E+00 0.9000E+01
      -11  1    4    4    0    0 0.82670921E+01 -.80192565E+02 -.99989236E+02 0.12844080E+03 0.51099893E-03 0.0000E+00 0.9000E+01
       11  1    4    4    0    0 0.48514441E+02 -.43213490E+03 -.25613814E+03 0.50467908E+03 0.51099893E-03 0.0000E+00 0.9000E+01
      -24  1    3    3    0    0 0.16039574E+02 0.28190528E+02 0.41390994E+02 0.96085400E+02 0.80419002E+02 0.0000E+00 0.9000E+01
#aMCatNLO 1  0  0  1  2 0.63832160D+03 0.00000000D+00  -5  7  0 0.00000000D+00 0.00000000D+00 0.00000000D+00 0.00000000D+00 0.00000000D+00
  <mgrwgt>
 0.1704745755D-02    5    2    0
 0.584622567606684D+03 0.000000000000000D+00 0.000000000000000D+00 0.584622567606684D+03
 0.584622567606684D+03 0.000000000000000D+00 0.000000000000000D+00 -.584622567606684D+03
 0.504860574665520D+03 -.728211073469063D+02 0.484136937201300D+03 0.934103648389367D+02
 0.102505929573434D+03 0.826709214329024D+01 -.801925648307025D+02 -.633109258428729D+02
 0.447333310931487D+03 0.485144412622279D+02 -.432134900620378D+03 -.104942211353473D+03
 0.114545320042926D+03 0.160395739413881D+02 0.281905282497801D+02 0.748427723574091D+02
 0.000000000000000D+00 0.000000000000000D+00 0.000000000000000D+00 0.000000000000000D+00
 0.112366216103617D+04 0.000000000000000D+00 0.000000000000000D+00 0.112366216103617D+04
 0.888675545573688D+03 0.000000000000000D+00 0.000000000000000D+00 -.888675545573688D+03
 0.387593866183603D+03 -.209456381986740D+03 0.301934292412213D+03 0.934103648389367D+02
 0.149103599049704D+03 -.302544675821699D+02 -.131560925467301D+03 -.633109258428729D+02
 0.682502313073141D+03 -.124464025444554D+03 -.662801060648342D+03 -.104942211353473D+03
 0.112937095292591D+03 -.187881112293284D+02 -.182520640216028D+02 0.748427723574091D+02
 0.680200833010814D+03 0.382962986242793D+03 0.510679757725032D+03 0.234986615462478D+03
0.180109261164D-03 0.000000000000D+00 0.000000000000D+00 0.427422586191D-05 0.000000000000D+00  7 -2 2 24 -11 11 -24 21 0 0.65288649D-01 0.12390441D+00 0.30157908D+06 0.30157908D+06 0.30157908D+06 0.10843832D+01  1  2  2  1  7  1       -2 0.167927722473D-02 0.100000000000D+01
-.995843633164D-05 0.000000000000D+00 -.691666986727D-06 0.427422586191D-05 0.000000000000D+00  7 -2 2 24 -11 11 -24 21 2 0.65288649D-01 0.12390441D+00 0.30157908D+06 0.30157908D+06 0.30157908D+06 0.10843832D+01  1  2  3  1  7  1       -2 -.109179998953D-03 0.100000000000D+01
0.112313152228D-04 0.000000000000D+00 0.000000000000D+00 0.427422586191D-05 0.000000000000D+00  7 -2 2 24 -11 11 -24 21 2 0.65288649D-01 0.12390441D+00 0.30157908D+06 0.30157908D+06 0.30157908D+06 0.10843832D+01  1  2 15  1  7  1       -2 0.123135293879D-03 0.100000000000D+01
-.741337993762D-05 0.000000000000D+00 -.521602498341D-04 0.427422586191D-05 0.000000000000D+00  7 -2 2 24 -11 11 -24 21 2 0.17213063D+00 0.12390441D+00 0.30157908D+06 0.30157908D+06 0.30157908D+06 0.10843832D+01  1  2  5  1  7  1       -2 -.736482254136D-05 0.100000000000D+01
0.230785360773D-05 0.000000000000D+00 -.561627924230D-05 0.427422586191D-05 0.000000000000D+00  7 21 2 24 -11 11 -24 2 2 0.17213063D+00 0.12390441D+00 0.30157908D+06 0.30157908D+06 0.30157908D+06 0.10843832D+01  1  2  5  3  7  1       -2 0.188780575797D-04 0.100000000000D+01
  </mgrwgt>
  </event>
  <event>
  8     66 0.27011060E-05 0.22843994E+03 0.75467711E-02 0.96935253E-01
       -2 -1    0    0    0  501 0.00000000E+00 0.00000000E+00 0.46315070E+02 0.46316175E+02 0.32000000E+00 0.0000E+00 0.9000E+01
        2 -1    0    0  501    0 0.00000000E+00 0.00000000E+00 -.17672965E+04 0.17672966E+04 0.32000000E+00 0.0000E+00 0.9000E+01
       25  2    1    2    0    0 -.12311751E+03 -.10891590E+03 -.77031765E+03 0.84464816E+03 0.30499286E+03 0.0000E+00 0.0000E+00
       23  2    1    2    0    0 0.12311751E+03 0.10891590E+03 -.95066382E+03 0.96896458E+03 0.90055880E+02 0.0000E+00 0.0000E+00
       24  1    3    3    0    0 0.18396384E+02 -.51097001E+02 -.57824122E+03 0.58632709E+03 0.80419002E+02 0.0000E+00 0.9000E+01
      -11  1    4    4    0    0 -.14462559E+02 0.12398040E+02 -.11533465E+03 0.11689722E+03 0.51099893E-03 0.0000E+00 0.9000E+01
       11  1    4    4    0    0 0.13758007E+03 0.96517864E+02 -.83532917E+03 0.85206736E+03 0.51099893E-03 0.0000E+00 0.9000E+01
      -24  1    3    3    0    0 -.14151389E+03 -.57818903E+02 -.19207643E+03 0.25832107E+03 0.80419002E+02 0.0000E+00 0.9000E+01
#aMCatNLO 1  0  0  2  1 0.28693897D+03 0.00000000D+00  -5  7  0 0.00000000D+00 0.00000000D+00 0.00000000D+00 0.00000000D+00 0.00000000D+00
  <mgrwgt>
 0.1139416847D-02    5    2    0
 0.286100490396410D+03 0.000000000000000D+00 0.000000000000000D+00 0.286100490396410D+03
 0.286100490396410D+03 0.000000000000000D+00 0.000000000000000D+00 -.286100490396410D+03
 0.119237570855205D+03 0.183963832511870D+02 -.510970010029869D+02 -.692896234717410D+02
 0.236236584769983D+02 -.144625592940596D+02 0.123980396710912D+02 -.139714076176208D+02
 0.188280364166072D+03 0.137580066925155D+03 0.965178641599238D+02 -.848853498160018D+02
 0.241059387294545D+03 -.141513890882282D+03 -.578189028280281D+02 0.168146380905364D+03
 0.000000000000000D+00 0.000000000000000D+00 -.000000000000000D+00 -.000000000000000D+00
 0.394813022376186D+03 0.000000000000000D+00 0.000000000000000D+00 0.394813022376186D+03
 0.595402948956484D+03 0.000000000000000D+00 0.000000000000000D+00 -.595402948956484D+03
 0.106494922101437D+03 0.842396444142750D+01 0.139189843543280D+01 -.692896234717410D+02
 0.338891690713085D+02 -.170033632152538D+02 0.257713249348219D+02 -.139714076176208D+02
 0.245299723398874D+03 0.118425349037020D+03 0.197336941274662D+03 -.848853498160018D+02
 0.254431751303849D+03 -.163403717578951D+03 0.573961652637186D+02 0.168146380905364D+03
 0.350100405457201D+03 0.535577673157567D+02 -.281896329908635D+03 -.200589926580298D+03
0.928007044970D-05 0.000000000000D+00 0.000000000000D+00 0.955978139625D-08 0.000000000000D+00  7 -2 2 24 -11 11 -24 21 0 0.71254826D-02 0.27189186D+00 0.52184807D+05 0.52184807D+05 0.52184807D+05 0.11456652D+01  1  2  2  2  7  2        2 0.113064802653D-02 0.100000000000D+01
-.483805748377D-06 0.000000000000D+00 -.356379140255D-07 0.955978139625D-08 0.000000000000D+00  7 -2 2 24 -11 11 -24 21 2 0.71254826D-02 0.27189186D+00 0.52184807D+05 0.52184807D+05 0.52184807D+05 0.11456652D+01  1  2  3  2  7  2        2 -.773682227312D-04 0.100000000000D+01
0.612252962659D-06 0.000000000000D+00 0.000000000000D+00 0.955978139625D-08 0.000000000000D+00  7 -2 2 24 -11 11 -24 21 2 0.71254826D-02 0.27189186D+00 0.52184807D+05 0.52184807D+05 0.52184807D+05 0.11456652D+01  1  2 15  2  7  2        2 0.979089722307D-04 0.100000000000D+01
-.165384577615D-05 0.000000000000D+00 -.235478634781D-05 0.955978139625D-08 0.000000000000D+00  7 -2 2 24 -11 11 -24 21 2 0.71254826D-02 0.60831677D+00 0.52184807D+05 0.52184807D+05 0.52184807D+05 0.11456652D+01  1  2  5  2  7  2        2 -.117725828362D-04 0.100000000000D+01
0.421514804953D-08 0.000000000000D+00 -.205813064977D-06 0.955978139625D-08 0.000000000000D+00  7 -2 21 24 -11 11 -24 -2 2 0.71254826D-02 0.60831677D+00 0.52184807D+05 0.52184807D+05 0.52184807D+05 0.11456652D+01  1  2  5  4  7  2        2 0.653692495785D-09 0.100000000000D+01
  </mgrwgt>
  </event>
  <event>
  8     66 0.27011060E-05 0.12703480E+03 0.75467711E-02 0.10096312E+00
       -2 -1    0    0    0  501 0.00000000E+00 0.00000000E+00 0.17502001E+03 0.17502031E+03 0.32000000E+00 0.0000E+00 0.9000E+01
        2 -1    0    0  501    0 0.00000000E+00 0.00000000E+00 -.17405430E+04 0.17405430E+04 0.32000000E+00 0.0000E+00 0.9000E+01
       25  2    1    2    0    0 -.16741259E+03 0.40946948E+02 -.16621600E+04 0.16976214E+04 0.29906335E+03 0.0000E+00 0.0000E+00
       23  2    1    2    0    0 0.16741259E+03 -.40946948E+02 0.96637029E+02 0.21794193E+03 0.91958381E+02 0.0000E+00 0.0000E+00
       24  1    3    3    0    0 -.15770755E+03 0.12150344E+03 -.13076109E+04 0.13251220E+04 0.80419002E+02 0.0000E+00 0.9000E+01
      -11  1    4    4    0    0 0.14295928E+02 -.26306691E+02 0.48088175E+02 0.56647048E+02 0.51099893E-03 0.0000E+00 0.9000E+01
       11  1    4    4    0    0 0.15311666E+03 -.14640258E+02 0.48548854E+02 0.16129489E+03 0.51099893E-03 0.0000E+00 0.9000E+01
      -24  1    3    3    0    0 -.97050347E+01 -.80556492E+02 -.35454915E+03 0.37249947E+03 0.80419002E+02 0.0000E+00 0.9000E+01
#aMCatNLO 1  0  0  1  2 0.72098164D+02 0.00000000D+00  -5  7  0 0.00000000D+00 0.00000000D+00 0.00000000D+00 0.00000000D+00 0.00000000D+00
  <mgrwgt>
 0.8579191772D-03    9    2    0
 0.551933123053920D+03 0.000000000000000D+00 0.000000000000000D+00 0.551933123053920D+03
 0.551933123053920D+03 0.000000000000000D+00 0.000000000000000D+00 -.551933123053920D+03
 0.445035928468221D+03 -.157707553872733D+03 0.121503439901249D+03 -.389814062364153D+03
 0.166500384183914D+03 0.142959279638159D+02 -.263066906056538D+02 0.163786331561650D+03
 0.348751419402987D+03 0.153116660581868D+03 -.146402575909320D+02 0.312999207100476D+03
 0.143578514052716D+03 -.970503467295140D+01 -.805564917046636D+02 -.869714762979724D+02
 0.000000000000000D+00 -.000000000000000D+00 0.000000000000000D+00 0.000000000000000D+00
 0.594808535505413D+03 0.000000000000000D+00 0.000000000000000D+00 0.594808535505413D+03
 0.584273512705811D+03 0.000000000000000D+00 0.000000000000000D+00 -.584273512705811D+03
 0.433013448367917D+03 -.133840908028231D+03 0.105664746412598D+03 -.389814062364153D+03
 0.168583220488538D+03 0.234039826267926D+02 -.323510961339658D+02 0.163786331561650D+03
 0.358355974902067D+03 0.172336857303283D+03 -.273954141657387D+02 0.312999207100476D+03
 0.146265614318747D+03 -.182665408930367D+01 -.857848449497882D+02 -.869714762979724D+02
 0.728637901339534D+02 -.600732778125409D+02 0.398666088368944D+02 0.105350227996018D+02
0.394897849177D-04 0.000000000000D+00 0.000000000000D+00 0.136349251897D-05 0.000000000000D+00  7 -2 2 24 -11 11 -24 21 0 0.26926181D-01 0.26777587D+00 0.65717572D+05 0.65717572D+05 0.65717572D+05 0.11369977D+01  1  2  2  1  7  1       -2 0.600195828660D-03 0.100000000000D+01
-.625202516955D-06 0.000000000000D+00 -.151651171983D-06 0.136349251897D-05 0.000000000000D+00  7 -2 2 24 -11 11 -24 21 2 0.26926181D-01 0.26777587D+00 0.65717572D+05 0.65717572D+05 0.65717572D+05 0.11369977D+01  1  2  3  1  7  1       -2 -.122842342772D-04 0.100000000000D+01
0.234317917892D-05 0.000000000000D+00 0.000000000000D+00 0.136349251897D-05 0.000000000000D+00  7 -2 2 24 -11 11 -24 21 2 0.26926181D-01 0.26777587D+00 0.65717572D+05 0.65717572D+05 0.65717572D+05 0.11369977D+01  1  2 15  1  7  1       -2 0.460397410545D-04 0.100000000000D+01
0.518434407307D-04 0.000000000000D+00 0.000000000000D+00 0.136349251897D-05 0.000000000000D+00  7 -2 2 24 -11 11 -24 21 2 0.29753451D-01 0.26777587D+00 0.87812322D+05 0.87812322D+05 0.87812322D+05 0.11263836D+01  1  2 12  1  7  1       -2 0.831885789816D-03 0.100000000000D+01
-.471631855182D-04 0.000000000000D+00 0.000000000000D+00 0.136349251897D-05 0.000000000000D+00  7 -2 2 24 -11 11 -24 21 2 0.26926181D-01 0.26777587D+00 0.65717572D+05 0.65717572D+05 0.65717572D+05 0.11369977D+01  1  2  4  1  7  1       -2 -.926681522310D-03 0.100000000000D+01
-.113013337590D-03 0.000000000000D+00 -.388649363958D-04 0.136349251897D-05 0.000000000000D+00  7 -2 2 24 -11 11 -24 21 2 0.30852843D-01 0.26777587D+00 0.65717572D+05 0.65717572D+05 0.65717572D+05 0.11369977D+01  1  2  5  1  7  1       -2 -.175314831537D-02 0.100000000000D+01
0.117570314204D-03 0.000000000000D+00 0.385075866144D-04 0.136349251897D-05 0.000000000000D+00  7 -2 2 24 -11 11 -24 21 2 0.26926181D-01 0.26777587D+00 0.65717572D+05 0.65717572D+05 0.65717572D+05 0.11369977D+01  1  2  6  1  7  1       -2 0.231006952877D-02 0.100000000000D+01
0.840936619751D-06 0.000000000000D+00 0.000000000000D+00 0.136349251897D-05 0.000000000000D+00  7 21 2 24 -11 11 -24 2 2 0.29753451D-01 0.26777587D+00 0.87812322D+05 0.87812322D+05 0.87812322D+05 0.11263836D+01  1  2 12  3  7  1       -2 0.160930532768D-03 0.100000000000D+01
-.215521502829D-05 0.000000000000D+00 -.819020261073D-06 0.136349251897D-05 0.000000000000D+00  7 21 2 24 -11 11 -24 2 2 0.30852843D-01 0.26777587D+00 0.65717572D+05 0.65717572D+05 0.65717572D+05 0.11369977D+01  1  2  5  3  7  1       -2 -.399088171881D-03 0.100000000000D+01
  </mgrwgt>
  </event>
  <event>
  8     66 0.27011060E-05 0.36430074E+03 0.75467711E-02 0.98343090E-01
       -2 -1    0    0    0  501 0.00000000E+00 0.00000000E+00 0.97648219E+02 0.97648743E+02 0.32000000E+00 0.0000E+00 0.9000E+01
        2 -1    0    0  501    0 0.00000000E+00 0.00000000E+00 -.25242316E+04 0.25242316E+04 0.32000000E+00 0.0000E+00 0.9000E+01
       25  2    1    2    0    0 0.16200323E+03 -.25214821E+03 -.21855980E+04 0.22267542E+04 0.30293842E+03 0.0000E+00 0.0000E+00
       23  2    1    2    0    0 -.16200323E+03 0.25214821E+03 -.24098531E+03 0.39512614E+03 0.90702694E+02 0.0000E+00 0.0000E+00
       24  1    3    3    0    0 -.47165500E+02 -.11790619E+02 -.61576903E+03 0.62289832E+03 0.80419002E+02 0.0000E+00 0.9000E+01
      -11  1    4    4    0    0 -.72323352E+02 0.60028138E+02 -.11490963E+03 0.14845291E+03 0.51099893E-03 0.0000E+00 0.9000E+01
       11  1    4    4    0    0 -.89679875E+02 0.19212007E+03 -.12607569E+03 0.24667323E+03 0.51099893E-03 0.0000E+00 0.9000E+01
      -24  1    3    3    0    0 0.20916873E+03 -.24035759E+03 -.15698290E+04 0.16038559E+04 0.80419002E+02 0.0000E+00 0.9000E+01
#aMCatNLO 1  0  0  2  1 0.98103742D+00 0.00000000D+00  -5  7  0 0.00000000D+00 0.00000000D+00 0.00000000D+00 0.00000000D+00 0.00000000D+00
  <mgrwgt>
 0.4299367060D-03    8    2    0
 0.496475002453268D+03 0.000000000000000D+00 0.000000000000000D+00 0.496475002453268D+03
 0.496475002453268D+03 0.000000000000000D+00 0.000000000000000D+00 -.496475002453268D+03
 0.139936530103494D+03 -.471655002603690D+02 -.117906193986092D+02 -.103689022477897D+03
 0.111171741564670D+03 -.723233522952126D+02 0.600281377049038D+02 0.593726495870403D+02
 0.343234322389791D+03 -.896798752346461D+02 0.192120073708966D+03 0.269920724143846D+03
 0.398607410848581D+03 0.209168727790228D+03 -.240357592015261D+03 -.225604351252989D+03
 0.000000000000000D+00 0.000000000000000D+00 -.000000000000000D+00 0.000000000000000D+00
 0.512400335855063D+03 0.000000000000000D+00 0.000000000000000D+00 0.512400335855063D+03
 0.496490353544416D+03 0.000000000000000D+00 0.000000000000000D+00 -.496490353544416D+03
 0.139975765987617D+03 -.472943004274740D+02 -.117403097958897D+02 -.103689022477897D+03
 0.111259932393298D+03 -.724257030571309D+02 0.600681161170898D+02 0.593726495870403D+02
 0.343386082201593D+03 -.899958199933582D+02 0.192243482363236D+03 0.269920724143846D+03
 0.398328708957789D+03 0.208802021836840D+03 -.240214355936889D+03 -.225604351252989D+03
 0.159401998591823D+02 0.913801641123189D+00 -.356932747547283D+00 0.159099823106465D+02
0.292217603690D-04 0.000000000000D+00 0.000000000000D+00 0.156894803611D-06 0.000000000000D+00  7 -2 2 24 -11 11 -24 21 0 0.15022845D-01 0.38834336D+00 0.13271503D+06 0.13271503D+06 0.13271503D+06 0.11117725D+01  1  2  2  2  7  2        2 0.423957716775D-03 0.100000000000D+01
-.143428975208D-05 0.000000000000D+00 -.112219254083D-06 0.156894803611D-06 0.000000000000D+00  7 -2 2 24 -11 11 -24 21 2 0.15022845D-01 0.38834336D+00 0.13271503D+06 0.13271503D+06 0.13271503D+06 0.11117725D+01  1  2  3  2  7  2        2 -.257208245248D-04 0.100000000000D+01
0.182524435162D-05 0.000000000000D+00 0.000000000000D+00 0.156894803611D-06 0.000000000000D+00  7 -2 2 24 -11 11 -24 21 2 0.15022845D-01 0.38834336D+00 0.13271503D+06 0.13271503D+06 0.13271503D+06 0.11117725D+01  1  2 15  2  7  2        2 0.327317333298D-04 0.100000000000D+01
-.208369768527D-05 0.000000000000D+00 0.000000000000D+00 0.156894803611D-06 0.000000000000D+00  7 -2 2 24 -11 11 -24 21 2 0.15022845D-01 0.38834336D+00 0.13271503D+06 0.13271503D+06 0.13271503D+06 0.11117725D+01  1  2  4  2  7  2        2 -.373665240567D-04 0.100000000000D+01
0.447270215199D-09 0.000000000000D+00 0.000000000000D+00 0.156894803611D-06 0.000000000000D+00  7 -2 2 24 -11 11 -24 21 2 0.15022845D-01 0.39598965D+00 0.13271503D+06 0.13271503D+06 0.13271503D+06 0.11117725D+01  1  2  5  2  7  2        2 0.750916488259D-08 0.100000000000D+01
-.447185207343D-09 0.000000000000D+00 0.000000000000D+00 0.156894803611D-06 0.000000000000D+00  7 -2 2 24 -11 11 -24 21 2 0.15022845D-01 0.38834336D+00 0.13271503D+06 0.13271503D+06 0.13271503D+06 0.11117725D+01  1  2  6  2  7  2        2 -.801928078440D-08 0.100000000000D+01
0.208472470458D-05 0.000000000000D+00 0.000000000000D+00 0.156894803611D-06 0.107499006446D-05  7 -2 2 24 -11 11 -24 21 2 0.15504730D-01 0.38835537D+00 0.13309827D+06 0.13309827D+06 0.13309827D+06 0.11116725D+01  1  2 11  2  7  2        2 0.355204046280D-04 0.100000000000D+01
0.400943080031D-06 0.000000000000D+00 0.000000000000D+00 0.156894803611D-06 0.633423251855D-11  7 -2 21 24 -11 11 -24 -2 2 0.15504730D-01 0.38835537D+00 0.13309827D+06 0.13309827D+06 0.13309827D+06 0.11116725D+01  1  2 11  4  7  2        2 0.814709943394D-06 0.100000000000D+01
  </mgrwgt>
  </event>
  <event>
  8     66 0.27011060E-05 0.31261056E+03 0.75467711E-02 0.92690495E-01
       -2 -1    0    0    0  501 0.00000000E+00 0.00000000E+00 0.38883241E+03 0.38883255E+03 0.32000000E+00 0.0000E+00 0.9000E+01
       21 -1    0    0  501  502 0.00000000E+00 0.00000000E+00 -.10488759E+04 0.10488762E+04 0.75000000E+00 0.0000E+00 0.9000E+01
       23  2    1    2    0    0 -.87572665E+01 0.16145820E+03 0.43296721E+02 0.19025240E+03 0.90420837E+02 0.0000E+00 0.0000E+00
       24  1    1    2    0    0 -.13501300E+03 -.23673043E+03 -.24296519E+03 0.37385706E+03 0.80419002E+02 0.0000E+00 0.9000E+01
      -13  1    3    3    0    0 0.42628473E-01 0.14777318E+03 0.41192061E+01 0.14783062E+03 0.10565837E+00 0.0000E+00 0.9000E+01
       13  1    3    3    0    0 -.87998949E+01 0.13685023E+02 0.39177515E+02 0.42421773E+02 0.10565837E+00 0.0000E+00 0.9000E+01
      -24  1    1    2    0    0 -.27207485E+03 -.85553066E+02 -.17255751E+03 0.34291013E+03 0.80419002E+02 0.0000E+00 0.9000E+01
       -2  1    1    2    0  502 0.41584511E+03 0.16082529E+03 -.28781754E+03 0.53068915E+03 0.32000000E+00 0.0000E+00 0.9000E+01
#aMCatNLO 2  0  0  2  2 0.44586089D+03 0.00000000D+00  -5  7  0 0.00000000D+00 0.00000000D+00 0.00000000D+00 0.00000000D+00 0.00000000D+00
  <mgrwgt>
 0.1695598837D-04    1    2    0
 0.348331893938316D+03 0.000000000000000D+00 0.000000000000000D+00 0.348331893938316D+03
 0.348331893938316D+03 0.000000000000000D+00 0.000000000000000D+00 -.348331893938316D+03
 0.221686548847130D+03 0.752837777734491D+01 -.181603509821912D+03 -.981896060374244D+02
 0.228807768613375D+03 0.107231104219109D+03 0.189227777395022D+03 0.710445883084862D+02
 0.740696255601464D+02 0.289206380840540D+02 0.282730063284879D+02 0.620527456006642D+02
 0.172099844855981D+03 -.143680120080508D+03 -.358972739015977D+02 -.349077278717260D+02
 0.000000000000000D+00 0.000000000000000D+00 0.000000000000000D+00 -.000000000000000D+00
 0.601376561837614D+03 0.000000000000000D+00 0.000000000000000D+00 0.601376561837614D+03
 0.678172712169346D+03 0.000000000000000D+00 0.000000000000000D+00 -.678172712169346D+03
 0.300629705947387D+03 -.135013001555561D+03 -.236730426478759D+03 -.981896060374244D+02
 0.163964331367628D+03 0.426405615893515D-01 0.147773362331286D+03 0.710445883084862D+02
 0.641502645826948D+02 -.879990691402232D+01 0.136848400704406D+02 0.620527456006642D+02
 0.298378643753334D+03 -.272074846641747D+03 -.855530680537606D+02 -.349077278717260D+02
 0.452426328355917D+03 0.415845114549741D+03 0.160825292130793D+03 -.767961503317318D+02
0.293193413354D-05 0.000000000000D+00 0.000000000000D+00 0.347376099888D-09 0.212535757836D-14  7 -2 21 24 -13 13 -24 -2 2 0.59820397D-01 0.16136554D+00 0.35424907D+06 0.35424907D+06 0.35424907D+06 0.10792512D+01  1  2  1  4  7  2        2 0.169559883671D-04 0.100000000000D+01
  </mgrwgt>
  </event>
  <event>
  8     66 0.27011060E-05 0.37826143E+03 0.75467711E-02 0.95919754E-01
       -2 -1    0    0    0  501 0.00000000E+00 0.00000000E+00 0.77915609E+03 0.77915616E+03 0.32000000E+00 0.0000E+00 0.9000E+01
        2 -1    0    0  501    0 0.00000000E+00 0.00000000E+00 -.19759655E+03 0.19759681E+03 0.32000000E+00 0.0000E+00 0.9000E+01
       25  2    1    2    0    0 -.27524819E+03 -.15761023E+03 0.22928046E+03 0.49359181E+03 0.30076702E+03 0.0000E+00 0.0000E+00
       23  2    1    2    0    0 0.27524819E+03 0.15761023E+03 0.35227908E+03 0.48316116E+03 0.93496542E+02 0.0000E+00 0.0000E+00
       24  1    3    3    0    0 -.29486825E+03 -.88700180E+02 0.11990627E+03 0.34008784E+03 0.80419002E+02 0.0000E+00 0.9000E+01
      -11  1    4    4    0    0 0.21063110E+03 0.16211339E+03 0.28801442E+03 0.39191647E+03 0.51099893E-03 0.0000E+00 0.9000E+01
       11  1    4    4    0    0 0.64617084E+02 -.45031649E+01 0.64264665E+02 0.91244689E+02 0.51099893E-03 0.0000E+00 0.9000E+01
      -24  1    3    3    0    0 0.19620061E+02 -.68910045E+02 0.10937419E+03 0.15350398E+03 0.80419002E+02 0.0000E+00 0.9000E+01
#aMCatNLO 1  0  0  2  1 0.12742798D+03 0.00000000D+00  -5  7  0 0.00000000D+00 0.00000000D+00 0.00000000D+00 0.00000000D+00 0.00000000D+00
  <mgrwgt>
 0.4247804991D-03    4    2    0
 0.392375730928752D+03 0.000000000000000D+00 0.000000000000000D+00 0.392375730928752D+03
 0.392375730928752D+03 0.000000000000000D+00 0.000000000000000D+00 -.392375730928752D+03
 0.334436033472263D+03 -.294868248599950D+03 -.887001801435177D+02 -.102787346207575D+03
 0.274364623652254D+03 0.210631103205910D+03 0.162113390434489D+03 0.680421466147214D+02
 0.659441795191340D+02 0.646170841780884D+02 -.450316489261805D+01 0.123688621434431D+02
 0.110006625213853D+03 0.196200612159519D+02 -.689100453983530D+02 0.223763374494102D+02
 0.000000000000000D+00 -.000000000000000D+00 0.000000000000000D+00 0.000000000000000D+00
 0.482310783140401D+03 0.000000000000000D+00 0.000000000000000D+00 0.482310783140401D+03
 0.445388544094707D+03 0.000000000000000D+00 0.000000000000000D+00 -.445388544094707D+03
 0.306248455672568D+03 -.251338161640065D+03 -.116553809935407D+03 -.102787346207575D+03
 0.292579508596918D+03 0.249151042109291D+03 0.137465607883314D+03 0.680421466147214D+02
 0.760400926899878D+02 0.742639350398109D+02 -.106759026775807D+02 0.123688621434431D+02
 0.120161972489917D+03 0.352584280614695D+02 -.789165790647392D+02 0.223763374494102D+02
 0.132669297785718D+03 -.107335243570506D+03 0.686806837944139D+02 0.369222390456939D+02
0.626168438170D-04 0.000000000000D+00 0.000000000000D+00 0.143947426426D-06 0.000000000000D+00  7 -2 2 24 -11 11 -24 21 0 0.11987019D+00 0.30399494D-01 0.14308171D+06 0.14308171D+06 0.14308171D+06 0.11091738D+01  1  2  2  2  7  2        2 0.720583077887D-03 0.100000000000D+01
-.347303710028D-05 0.000000000000D+00 -.240465167651D-06 0.143947426426D-06 0.000000000000D+00  7 -2 2 24 -11 11 -24 21 2 0.11987019D+00 0.30399494D-01 0.14308171D+06 0.14308171D+06 0.14308171D+06 0.11091738D+01  1  2  3  2  7  2        2 -.491701518307D-04 0.100000000000D+01
0.387807859272D-05 0.000000000000D+00 0.000000000000D+00 0.143947426426D-06 0.000000000000D+00  7 -2 2 24 -11 11 -24 21 2 0.11987019D+00 0.30399494D-01 0.14308171D+06 0.14308171D+06 0.14308171D+06 0.11091738D+01  1  2 15  2  7  2        2 0.549046001265D-04 0.100000000000D+01
-.212984756639D-04 0.000000000000D+00 0.000000000000D+00 0.143947426426D-06 0.000000000000D+00  7 -2 2 24 -11 11 -24 21 2 0.11987019D+00 0.30399494D-01 0.14308171D+06 0.14308171D+06 0.14308171D+06 0.11091738D+01  1  2  4  2  7  2        2 -.301537027080D-03 0.100000000000D+01
  </mgrwgt>
  </event>
  <event>
  8     66 0.27011060E-05 0.98222151E+02 0.75467711E-02 0.10380127E+00
       -2 -1    0    0    0  501 0.00000000E+00 0.00000000E+00 0.32212930E+03 0.32212946E+03 0.32000000E+00 0.0000E+00 0.9000E+01
        2 -1    0    0  501    0 0.00000000E+00 0.00000000E+00 -.23052008E+03 0.23052031E+03 0.32000000E+00 0.0000E+00 0.9000E+01
       25  2    1    2    0    0 0.52687034E+02 0.82458547E+02 0.20469688E+03 0.37726679E+03 0.30142011E+03 0.0000E+00 0.0000E+00
       23  2    1    2    0    0 -.52687034E+02 -.82458547E+02 -.11308766E+03 0.17538298E+03 0.91624432E+02 0.0000E+00 0.0000E+00
       24  1    3    3    0    0 0.10441610E+03 -.59698080E+02 0.10790767E+03 0.18049339E+03 0.80419002E+02 0.0000E+00 0.9000E+01
      -11  1    4    4    0    0 0.23343633E+02 -.40480134E+02 -.46721187E+02 0.66079012E+02 0.51099893E-03 0.0000E+00 0.9000E+01
       11  1    4    4    0    0 -.76030667E+02 -.41978413E+02 -.66366472E+02 0.10930397E+03 0.51099893E-03 0.0000E+00 0.9000E+01
      -24  1    3    3    0    0 -.51729064E+02 0.14215663E+03 0.96789205E+02 0.19677339E+03 0.80419002E+02 0.0000E+00 0.9000E+01
#aMCatNLO 1  0  0  2  1 0.29523758D+02 0.00000000D+00  -5  7  0 0.00000000D+00 0.00000000D+00 0.00000000D+00 0.00000000D+00 0.00000000D+00
  <mgrwgt>
 0.5317684826D-03    9    2    0
 0.272502072160924D+03 0.000000000000000D+00 0.000000000000000D+00 0.272502072160924D+03
 0.272502072160924D+03 0.000000000000000D+00 0.000000000000000D+00 -.272502072160924D+03
 0.164887357205543D+03 0.104416097628458D+03 -.596980804156083D+02 0.790825035174877D+02
 0.748593242060478D+02 0.233436333530319D+02 -.404801341574112D+02 -.584837750240474D+02
 0.121992824370896D+03 -.760306668847963D+02 -.419784128332722D+02 -.856702967605512D+02
 0.183264638539362D+03 -.517290640966940D+02 0.142156627406292D+03 0.650715682671108D+02
 0.000000000000000D+00 -.000000000000000D+00 -.000000000000000D+00 -.000000000000000D+00
 0.284216231836379D+03 0.000000000000000D+00 0.000000000000000D+00 0.284216231836379D+03
 0.292161050247311D+03 0.000000000000000D+00 0.000000000000000D+00 -.292161050247311D+03
 0.169203135412598D+03 0.112827071799869D+03 -.563781392523483D+02 0.790825035174877D+02
 0.753402191768146D+02 0.271250174626208D+02 -.389875635581347D+02 -.584837750240474D+02
 0.117505716894677D+03 -.700011147449282D+02 -.395984556562293D+02 -.856702967605512D+02
 0.183754161960522D+03 -.424890955263968D+02 0.145803785438001D+03 0.650715682671108D+02
 0.305740486390791D+02 -.274618789911651D+02 -.108396269712885D+02 -.794481841093282D+01
0.445031770875D-05 0.000000000000D+00 0.000000000000D+00 0.113381420995D-06 0.000000000000D+00  7 -2 2 24 -11 11 -24 21 0 0.49558384D-01 0.35464658D-01 0.50532014D+05 0.50532014D+05 0.50532014D+05 0.11468913D+01  1  2  2  2  7  2        2 0.307749061950D-03 0.100000000000D+01
-.236104526077D-06 0.000000000000D+00 -.170903917972D-07 0.113381420995D-06 0.000000000000D+00  7 -2 2 24 -11 11 -24 21 2 0.49558384D-01 0.35464658D-01 0.50532014D+05 0.50532014D+05 0.50532014D+05 0.11468913D+01  1  2  3  2  7  2        2 -.214760568612D-04 0.100000000000D+01
0.265907002607D-06 0.000000000000D+00 0.000000000000D+00 0.113381420995D-06 0.000000000000D+00  7 -2 2 24 -11 11 -24 21 2 0.49558384D-01 0.35464658D-01 0.50532014D+05 0.50532014D+05 0.50532014D+05 0.11468913D+01  1  2 15  2  7  2        2 0.241868887591D-04 0.100000000000D+01
0.964664053525D-05 0.000000000000D+00 0.000000000000D+00 0.113381420995D-06 0.000000000000D+00  7 -2 2 24 -11 11 -24 21 2 0.49558384D-01 0.38741119D-01 0.57330486D+05 0.57330486D+05 0.57330486D+05 0.11421056D+01  1  2 12  2  7  2        2 0.789301166223D-03 0.100000000000D+01
-.874368759317D-05 0.000000000000D+00 0.000000000000D+00 0.113381420995D-06 0.000000000000D+00  7 -2 2 24 -11 11 -24 21 2 0.49558384D-01 0.35464658D-01 0.50532014D+05 0.50532014D+05 0.50532014D+05 0.11468913D+01  1  2  4  2  7  2        2 -.795325422375D-03 0.100000000000D+01
-.285026651639D-04 0.000000000000D+00 -.606689640700D-05 0.113381420995D-06 0.000000000000D+00  7 -2 2 24 -11 11 -24 21 2 0.49558384D-01 0.39501434D-01 0.50532014D+05 0.50532014D+05 0.50532014D+05 0.11468913D+01  1  2  5  2  7  2        2 -.230274355566D-02 0.100000000000D+01
0.290229601886D-04 0.000000000000D+00 0.603181485438D-05 0.113381420995D-06 0.000000000000D+00  7 -2 2 24 -11 11 -24 21 2 0.49558384D-01 0.35464658D-01 0.50532014D+05 0.50532014D+05 0.50532014D+05 0.11468913D+01  1  2  6  2  7  2        2 0.263992712739D-02 0.100000000000D+01
0.140679750824D-06 0.000000000000D+00 0.000000000000D+00 0.113381420995D-06 0.000000000000D+00  7 -2 21 24 -11 11 -24 -2 2 0.49558384D-01 0.38741119D-01 0.57330486D+05 0.57330486D+05 0.57330486D+05 0.11421056D+01  1  2 12  4  7  2        2 0.486220287800D-04 0.100000000000D+01
-.470799676539D-06 0.000000000000D+00 -.105110161827D-06 0.113381420995D-06 0.000000000000D+00  7 -2 21 24 -11 11 -24 -2 2 0.49558384D-01 0.39501434D-01 0.50532014D+05 0.50532014D+05 0.50532014D+05 0.11468913D+01  1  2  5  4  7  2        2 -.158472755642D-03 0.100000000000D+01
  </mgrwgt>
  </event>
  <event>
  8     66 0.27011060E-05 0.15681013E+03 0.75467711E-02 0.10386121E+00
       -2 -1    0    0    0  501 0.00000000E+00 0.00000000E+00 0.11597428E+03 0.11597472E+03 0.32000000E+00 0.0000E+00 0.9000E+01
        2 -1    0    0  501    0 0.00000000E+00 0.00000000E+00 -.72246913E+03 0.72246920E+03 0.32000000E+00 0.0000E+00 0.9000E+01
       25  2    1    2    0    0 -.12150029E+03 -.40496928E+02 -.59896029E+03 0.68236353E+03 0.30077274E+03 0.0000E+00 0.0000E+00
       23  2    1    2    0    0 0.12150029E+03 0.40496928E+02 -.75345686E+01 0.15608039E+03 0.88893191E+02 0.0000E+00 0.0000E+00
       24  1    3    3    0    0 0.53315241E+02 0.39599435E+02 -.11401032E+03 0.15451925E+03 0.80419002E+02 0.0000E+00 0.9000E+01
      -11  1    4    4    0    0 0.43442472E+02 -.22178311E+02 0.19274935E+02 0.52446630E+02 0.51099893E-03 0.0000E+00 0.9000E+01
       11  1    4    4    0    0 0.78057813E+02 0.62675238E+02 -.26809504E+02 0.10363376E+03 0.51099893E-03 0.0000E+00 0.9000E+01
      -24  1    3    3    0    0 -.17481553E+03 -.80096362E+02 -.48494996E+03 0.52784427E+03 0.80419002E+02 0.0000E+00 0.9000E+01
#aMCatNLO 1  0  0  2  1 0.15505370D+02 0.00000000D+00  -5  7  0 0.00000000D+00 0.00000000D+00 0.00000000D+00 0.00000000D+00 0.00000000D+00
  <mgrwgt>
 0.6107306036D-03    9    2    0
 0.289461657285926D+03 0.000000000000000D+00 0.000000000000000D+00 0.289461657285926D+03
 0.289461657285926D+03 0.000000000000000D+00 0.000000000000000D+00 -.289461657285926D+03
 0.104347249338147D+03 0.533152413570011D+02 0.395994349354466D+02 -.324072243564861D+01
 0.961503979237290D+02 0.434424720204313D+02 -.221783107634070D+02 0.828599612438192D+02
 0.122004542746741D+03 0.780578134692309D+02 0.626752382895512D+02 0.697416712775951D+02
 0.256421124563234D+03 -.174815526846663D+03 -.800963624615908D+02 -.149360910085766D+03
 0.000000000000000D+00 0.000000000000000D+00 -.000000000000000D+00 -.000000000000000D+00
 0.290455780438127D+03 0.000000000000000D+00 0.000000000000000D+00 0.290455780438127D+03
 0.357073813813188D+03 0.000000000000000D+00 0.000000000000000D+00 -.357073813813188D+03
 0.102977692431975D+03 0.505398639745269D+02 0.396536133508072D+02 -.324072243564861D+01
 0.950099812807410D+02 0.408834832738793D+02 -.221283564919305D+02 0.828599612438192D+02
 0.119990823440936D+03 0.748183167630143D+02 0.627384768239635D+02 0.697416712775951D+02
 0.261152421242861D+03 -.181744080162694D+03 -.799611094895898D+02 -.149360910085766D+03
 0.683986758548025D+02 0.155024161512734D+02 -.302624193250448D+00 -.666180333750609D+02
0.431100511329D-05 0.000000000000D+00 0.000000000000D+00 0.807096823850D-07 0.000000000000D+00  7 -2 2 24 -11 11 -24 21 0 0.17842236D-01 0.11114914D+00 0.53270785D+05 0.53270785D+05 0.53270785D+05 0.11448827D+01  1  2  2  2  7  2        2 0.505577258121D-03 0.100000000000D+01
-.224567640182D-06 0.000000000000D+00 -.165553947487D-07 0.807096823850D-07 0.000000000000D+00  7 -2 2 24 -11 11 -24 21 2 0.17842236D-01 0.11114914D+00 0.53270785D+05 0.53270785D+05 0.53270785D+05 0.11448827D+01  1  2  3  2  7  2        2 -.345205831918D-04 0.100000000000D+01
0.256875793569D-06 0.000000000000D+00 0.000000000000D+00 0.807096823850D-07 0.000000000000D+00  7 -2 2 24 -11 11 -24 21 2 0.17842236D-01 0.11114914D+00 0.53270785D+05 0.53270785D+05 0.53270785D+05 0.11448827D+01  1  2 15  2  7  2        2 0.394869990827D-04 0.100000000000D+01
0.931615459721D-04 0.000000000000D+00 0.000000000000D+00 0.807096823850D-07 0.000000000000D+00  7 -2 2 24 -11 11 -24 21 2 0.17842236D-01 0.13727263D+00 0.56831122D+05 0.56831122D+05 0.56831122D+05 0.11424353D+01  1  2 12  2  7  2        2 0.109536861854D-01 0.100000000000D+01
-.918154032218D-04 0.000000000000D+00 0.000000000000D+00 0.807096823850D-07 0.000000000000D+00  7 -2 2 24 -11 11 -24 21 2 0.17842236D-01 0.11114914D+00 0.53270785D+05 0.53270785D+05 0.53270785D+05 0.11448827D+01  1  2  4  2  7  2        2 -.141138824037D-01 0.100000000000D+01
-.982877603245D-04 0.000000000000D+00 -.295367602340D-05 0.807096823850D-07 0.000000000000D+00  7 -2 2 24 -11 11 -24 21 2 0.17842236D-01 0.13730103D+00 0.53270785D+05 0.53270785D+05 0.53270785D+05 0.11448827D+01  1  2  5  2  7  2        2 -.116062912165D-01 0.100000000000D+01
0.968073884773D-04 0.000000000000D+00 0.288894161145D-05 0.807096823850D-07 0.000000000000D+00  7 -2 2 24 -11 11 -24 21 2 0.17842236D-01 0.11114914D+00 0.53270785D+05 0.53270785D+05 0.53270785D+05 0.11448827D+01  1  2  6  2  7  2        2 0.148812513896D-01 0.100000000000D+01
0.277813292655D-05 0.000000000000D+00 0.000000000000D+00 0.807096823850D-07 0.000000000000D+00  7 -2 21 24 -11 11 -24 -2 2 0.17842236D-01 0.13727263D+00 0.56831122D+05 0.56831122D+05 0.56831122D+05 0.11424353D+01  1  2 12  4  7  2        2 0.293101716442D-03 0.100000000000D+01
-.289580918010D-05 0.000000000000D+00 -.881459216065D-07 0.807096823850D-07 0.000000000000D+00  7 -2 21 24 -11 11 -24 -2 2 0.17842236D-01 0.13730103D+00 0.53270785D+05 0.53270785D+05 0.53270785D+05 0.11448827D+01  1  2  5  4  7  2        2 -.307678741610D-03 0.100000000000D+01
  </mgrwgt>
  </event>
  <event>
  7     66 0.27011060E-05 0.25941111E+03 0.75467711E-02 0.94027574E-01
       -2 -1    0    0    0  501 0.00000000E+00 0.00000000E+00 0.25191457E+03 0.25191477E+03 0.32000000E+00 0.0000E+00 0.9000E+01
        2 -1    0    0  501    0 0.00000000E+00 0.00000000E+00 -.13992407E+04 0.13992407E+04 0.32000000E+00 0.0000E+00 0.9000E+01
       25  2    1    2    0    0 -.45744510E+03 0.18232140E+03 -.31629474E+03 0.65368088E+03 0.29113436E+03 0.0000E+00 0.0000E+00
       24  1    3    3    0    0 -.11719777E+03 0.20211511E+02 0.16483426E+02 0.14450862E+03 0.80419002E+02 0.0000E+00 0.9000E+01
      -13  1    1    2    0    0 0.31324310E+03 -.64777008E+02 -.31501215E+03 0.44894317E+03 0.10565837E+00 0.0000E+00 0.9000E+01
       13  1    1    2    0    0 0.14420200E+03 -.11754439E+03 -.51601921E+03 0.54853144E+03 0.10565837E+00 0.0000E+00 0.9000E+01
      -24  1    3    3    0    0 -.34024734E+03 0.16210989E+03 -.33277817E+03 0.50917226E+03 0.80419002E+02 0.0000E+00 0.9000E+01
#aMCatNLO 1  0  0  2  1 0.19102991D+02 0.00000000D+00  -5  7  0 0.00000000D+00 0.00000000D+00 0.00000000D+00 0.00000000D+00 0.00000000D+00
  <mgrwgt>
 0.8022639072D-02    9    2    0
 0.593708102648660D+03 0.000000000000000D+00 0.000000000000000D+00 0.593708102648660D+03
 0.593708102648660D+03 0.000000000000000D+00 0.000000000000000D+00 -.593708102648660D+03
 0.216872770876412D+03 -.117197936118816D+03 0.202115784425762D+02 0.162550664900491D+03
 0.319898843400362D+03 0.313242814162216D+03 -.647774241050410D+02 -.425378783442403D+01
 0.264160156788799D+03 0.144202763034026D+03 -.117544160665510D+03 -.187535388291054D+03
 0.386484434231747D+03 -.340247641077426D+03 0.162110006327975D+03 0.292385112249874D+02
 0.000000000000000D+00 -.000000000000000D+00 0.000000000000000D+00 -.000000000000000D+00
 0.598856243982828D+03 0.000000000000000D+00 0.000000000000000D+00 0.598856243982828D+03
 0.611774558211500D+03 0.000000000000000D+00 0.000000000000000D+00 -.611774558211500D+03
 0.215279873255838D+03 -.114609729863859D+03 0.178913117356037D+02 0.162550664900491D+03
 0.324388204536837D+03 0.317101514994204D+03 -.682366596491484D+02 -.425378783442403D+01
 0.267184033492199D+03 0.147385037574036D+03 -.120396995772253D+03 -.187535388291054D+03
 0.380717747242608D+03 -.335652788976277D+03 0.157990828293635D+03 0.292385112249874D+02
 0.230609436668470D+02 -.142240337281033D+02 0.127515153921628D+02 -.129183142286717D+02
0.244988632984D-03 0.000000000000D+00 0.000000000000D+00 0.448586371270D-11 0.000000000000D+00  7 -2 2 24 -13 13 -24 21 0 0.38756106D-01 0.21526781D+00 0.26773045D+06 0.26773045D+06 0.26773045D+06 0.10882275D+01  1  2  2  2  7  2        2 0.282450690216D-02 0.100000000000D+01
-.132975220715D-04 0.000000000000D+00 -.940820857648D-06 0.448586371270D-11 0.000000000000D+00  7 -2 2 24 -13 13 -24 21 2 0.38756106D-01 0.21526781D+00 0.26773045D+06 0.26773045D+06 0.26773045D+06 0.10882275D+01  1  2  3  2  7  2        2 -.181554410211D-03 0.100000000000D+01
0.148923226661D-04 0.000000000000D+00 0.000000000000D+00 0.448586371270D-11 0.000000000000D+00  7 -2 2 24 -13 13 -24 21 2 0.38756106D-01 0.21526781D+00 0.26773045D+06 0.26773045D+06 0.26773045D+06 0.10882275D+01  1  2 15  2  7  2        2 0.203328623467D-03 0.100000000000D+01
0.556527657019D-03 0.000000000000D+00 0.000000000000D+00 0.448586371270D-11 0.000000000000D+00  7 -2 2 24 -13 13 -24 21 2 0.38756106D-01 0.22273303D+00 0.27800004D+06 0.27800004D+06 0.27800004D+06 0.10870075D+01  1  2 12  2  7  2        2 0.711631282556D-02 0.100000000000D+01
-.553770694306D-03 0.000000000000D+00 0.000000000000D+00 0.448586371270D-11 0.000000000000D+00  7 -2 2 24 -13 13 -24 21 2 0.38756106D-01 0.21526781D+00 0.26773045D+06 0.26773045D+06 0.26773045D+06 0.10882275D+01  1  2  4  2  7  2        2 -.756077043951D-02 0.100000000000D+01
-.656930189853D-02 0.000000000000D+00 -.819748615411D-03 0.448586371270D-11 0.000000000000D+00  7 -2 2 24 -13 13 -24 21 2 0.38756106D-01 0.22277485D+00 0.26773045D+06 0.26773045D+06 0.26773045D+06 0.10882275D+01  1  2  5  2  7  2        2 -.842771789451D-01 0.100000000000D+01
0.659400875925D-02 0.000000000000D+00 0.819267235825D-03 0.448586371270D-11 0.000000000000D+00  7 -2 2 24 -13 13 -24 21 2 0.38756106D-01 0.21526781D+00 0.26773045D+06 0.26773045D+06 0.26773045D+06 0.10882275D+01  1  2  6  2  7  2        2 0.900296585165D-01 0.100000000000D+01
0.124829878086D-04 0.000000000000D+00 0.000000000000D+00 0.448586371270D-11 0.000000000000D+00  7 -2 21 24 -13 13 -24 -2 2 0.38756106D-01 0.22273303D+00 0.27800004D+06 0.27800004D+06 0.27800004D+06 0.10870075D+01  1  2 12  4  7  2        2 0.597776729407D-04 0.100000000000D+01
-.397877229310D-04 0.000000000000D+00 -.500806707501D-05 0.448586371270D-11 0.000000000000D+00  7 -2 21 24 -13 13 -24 -2 2 0.38756106D-01 0.22277485D+00 0.26773045D+06 0.26773045D+06 0.26773045D+06 0.10882275D+01  1  2  5  4  7  2        2 -.191441673466D-03 0.100000000000D+01
  </mgrwgt>
  </event>
  <event>
  8     66 0.27011060E-05 0.25668770E+03 0.75467711E-02 0.99568708E-01
       -2 -1    0    0    0  501 0.00000000E+00 0.00000000E+00 0.31822202E+02 0.31823811E+02 0.32000000E+00 0.0000E+00 0.9000E+01
        2 -1    0    0  501    0 0.00000000E+00 0.00000000E+00 -.28024355E+04 0.28024355E+04 0.32000000E+00 0.0000E+00 0.9000E+01
       25  2    1    2    0    0 0.12384360E+03 -.17213625E+03 -.17779552E+04 0.18154973E+04 0.29989621E+03 0.0000E+00 0.0000E+00
       23  2    1    2    0    0 -.12384360E+03 0.17213625E+03 -.99265813E+03 0.10187620E+04 0.86820396E+02 0.0000E+00 0.0000E+00
       24  1    3    3    0    0 0.12143378E+03 -.16457992E+03 -.68132114E+03 0.71588995E+03 0.80419002E+02 0.0000E+00 0.9000E+01
      -13  1    4    4    0    0 -.10975509E+03 0.16092054E+03 -.97213869E+03 0.99146117E+03 0.10565837E+00 0.0000E+00 0.9000E+01
       13  1    4    4    0    0 -.14088515E+02 0.11215714E+02 -.20519435E+02 0.27300858E+02 0.10565837E+00 0.0000E+00 0.9000E+01
      -24  1    3    3    0    0 0.24098202E+01 -.75563259E+01 -.10966340E+04 0.10996073E+04 0.80419002E+02 0.0000E+00 0.9000E+01
#aMCatNLO 1  0  0  1  1 0.13232251D+03 0.00000000D+00  -5  7  0 0.00000000D+00 0.00000000D+00 0.00000000D+00 0.00000000D+00 0.00000000D+00
  <mgrwgt>
 0.2261955273D-02    7    2    0
 0.298633509636864D+03 0.000000000000000D+00 0.000000000000000D+00 0.298633509636864D+03
 0.298633509636864D+03 0.000000000000000D+00 0.000000000000000D+00 -.298633509636864D+03
 0.236645197092961D+03 0.121433784505503D+03 -.164579924621932D+03 0.877554428221188D+02
 0.195285882976498D+03 -.109755231366622D+03 0.160920758719453D+03 -.139597525309560D+02
 0.343667906801480D+02 -.140883735764848D+02 0.112154922098478D+02 0.292712617786347D+02
 0.130969148524121D+03 0.240982043760381D+01 -.755632630736818D+01 -.103066952069797D+03
 0.000000000000000D+00 -.000000000000000D+00 -.000000000000000D+00 0.000000000000000D+00
 0.376868275219922D+03 0.000000000000000D+00 0.000000000000000D+00 0.376868275219922D+03
 0.367532409070275D+03 0.000000000000000D+00 0.000000000000000D+00 -.367532409070275D+03
 0.211902935579755D+03 0.131058051118948D+03 -.116440575595212D+03 0.877554428221188D+02
 0.230213681298809D+03 -.100625506032376D+03 0.206586475603202D+03 -.139597525309560D+02
 0.370247329222862D+02 -.125565623681852D+02 0.188774156956704D+02 0.292712617786347D+02
 0.132607894865359D+03 0.806525751109848D+01 0.207314456460053D+02 -.103066952069797D+03
 0.132651439623989D+03 -.259412402294852D+02 -.129754761349666D+03 0.933586614964687D+01
0.389544628594D-04 0.000000000000D+00 0.000000000000D+00 0.103335244473D-06 0.000000000000D+00  7 -2 2 24 -13 13 -24 21 0 0.48958485D-02 0.43114405D+00 0.65888576D+05 0.65888576D+05 0.65888576D+05 0.11369012D+01  1  2  2  1  7  1       -2 0.221782673910D-02 0.100000000000D+01
-.210385716243D-05 0.000000000000D+00 -.149595394326D-06 0.103335244473D-06 0.000000000000D+00  7 -2 2 24 -13 13 -24 21 2 0.48958485D-02 0.43114405D+00 0.65888576D+05 0.65888576D+05 0.65888576D+05 0.11369012D+01  1  2  3  1  7  1       -2 -.154821781434D-03 0.100000000000D+01
0.246653705333D-05 0.000000000000D+00 0.000000000000D+00 0.103335244473D-06 0.000000000000D+00  7 -2 2 24 -13 13 -24 21 2 0.48958485D-02 0.43114405D+00 0.65888576D+05 0.65888576D+05 0.65888576D+05 0.11369012D+01  1  2 15  1  7  1       -2 0.181511210642D-03 0.100000000000D+01
-.126058915653D-04 0.000000000000D+00 0.000000000000D+00 0.103335244473D-06 0.000000000000D+00  7 -2 2 24 -13 13 -24 21 2 0.48958485D-02 0.43114405D+00 0.65888576D+05 0.65888576D+05 0.65888576D+05 0.11369012D+01  1  2  4  1  7  1       -2 -.927661166148D-03 0.100000000000D+01
-.143313454644D-04 0.000000000000D+00 -.134080104678D-04 0.103335244473D-06 0.000000000000D+00  7 -2 2 24 -13 13 -24 21 2 0.85536474D-02 0.43114405D+00 0.65888576D+05 0.65888576D+05 0.65888576D+05 0.11369012D+01  1  2  5  1  7  1       -2 -.457472812903D-03 0.100000000000D+01
0.204005562768D-04 0.000000000000D+00 0.115611599021D-04 0.103335244473D-06 0.000000000000D+00  7 -2 2 24 -13 13 -24 21 2 0.48958485D-02 0.43114405D+00 0.65888576D+05 0.65888576D+05 0.65888576D+05 0.11369012D+01  1  2  6  1  7  1       -2 0.150126658854D-02 0.100000000000D+01
-.204738764331D-06 0.000000000000D+00 -.826739711815D-06 0.103335244473D-06 0.000000000000D+00  7 21 2 24 -13 13 -24 2 2 0.85536474D-02 0.43114405D+00 0.65888576D+05 0.65888576D+05 0.65888576D+05 0.11369012D+01  1  2  5  3  7  1       -2 -.986935048044D-04 0.100000000000D+01
  </mgrwgt>
  </event>
  <event>
  8     66 0.27011060E-05 0.48891793E+03 0.75467711E-02 0.90213098E-01
       -2 -1    0    0    0  501 0.00000000E+00 0.00000000E+00 0.20592443E+03 0.20592468E+03 0.32000000E+00 0.0000E+00 0.9000E+01
        2 -1    0    0  501    0 0.00000000E+00 0.00000000E+00 -.14462089E+04 0.14462089E+04 0.32000000E+00 0.0000E+00 0.9000E+01
       25  2    1    2    0    0 0.43822407E+02 0.46969505E+03 -.91259034E+03 0.10705919E+04 0.30135029E+03 0.0000E+00 0.0000E+00
       23  2    1    2    0    0 -.43822407E+02 -.46969505E+03 -.32769412E+03 0.58154173E+03 0.90958816E+02 0.0000E+00 0.0000E+00
       24  1    3    3    0    0 -.19334043E+02 0.18809597E+03 -.15956078E+03 0.26015526E+03 0.80419002E+02 0.0000E+00 0.9000E+01
      -13  1    4    4    0    0 -.58174641E+01 -.23045845E+03 -.21160572E+03 0.31292480E+03 0.10565837E+00 0.0000E+00 0.9000E+01
       13  1    4    4    0    0 -.38004943E+02 -.23923660E+03 -.11608840E+03 0.26861693E+03 0.10565837E+00 0.0000E+00 0.9000E+01
      -24  1    3    3    0    0 0.63156450E+02 0.28159907E+03 -.75302957E+03 0.81043662E+03 0.80419002E+02 0.0000E+00 0.9000E+01
#aMCatNLO 1  0  0  1  1 0.43518020D+03 0.00000000D+00  -5  7  0 0.00000000D+00 0.00000000D+00 0.00000000D+00 0.00000000D+00 0.00000000D+00
  <mgrwgt>
 0.7800871885D-03    3    2    0
 0.545719688502523D+03 0.000000000000000D+00 0.000000000000000D+00 0.545719688502523D+03
 0.545719688502523D+03 0.000000000000000D+00 0.000000000000000D+00 -.545719688502523D+03
 0.212481332332325D+03 -.193340429599995D+02 0.188095974894721D+03 0.541036010499760D+02
 0.233217012059159D+03 -.581742066030457D+01 -.230458434131825D+03 0.352879932579087D+02
 0.274690914388343D+03 -.380049866296570D+02 -.239236612457803D+03 0.129524371060038D+03
 0.371050118225220D+03 0.631564502499610D+02 0.281599071694908D+03 -.218915965367922D+03
 0.000000000000000D+00 -.000000000000000D+00 -.000000000000000D+00 -.000000000000000D+00
 0.779119420906709D+03 0.000000000000000D+00 0.000000000000000D+00 0.779119420906709D+03
 0.834579051959255D+03 0.000000000000000D+00 0.000000000000000D+00 -.834579051959255D+03
 0.302366601345796D+03 -.799078750967311D+01 0.286299307235343D+03 0.541036010499760D+02
 0.159523883546123D+03 0.283554269688329D+01 -.155546091725510D+03 0.352879932579087D+02
 0.199223424942925D+03 -.275635901299129D+02 -.148841052289485D+03 0.129524371060038D+03
 0.513884693713320D+03 0.826535502130369D+02 0.450393664723066D+03 -.218915965367922D+03
 0.438699869317800D+03 -.499347152703342D+02 -.432305827943414D+03 -.554596310525467D+02
0.492945774666D-04 0.000000000000D+00 0.000000000000D+00 0.894699623205D-06 0.000000000000D+00  7 -2 2 24 -13 13 -24 21 0 0.31680704D-01 0.22249370D+00 0.23904074D+06 0.23904074D+06 0.23904074D+06 0.10919267D+01  1  2  2  1  7  1       -2 0.776660789821D-03 0.100000000000D+01
-.269836329073D-05 0.000000000000D+00 -.189304157032D-06 0.894699623205D-06 0.000000000000D+00  7 -2 2 24 -13 13 -24 21 2 0.31680704D-01 0.22249370D+00 0.23904074D+06 0.23904074D+06 0.23904074D+06 0.10919267D+01  1  2  3  1  7  1       -2 -.506896897794D-04 0.100000000000D+01
0.288076070389D-05 0.000000000000D+00 0.000000000000D+00 0.894699623205D-06 0.000000000000D+00  7 -2 2 24 -13 13 -24 21 2 0.31680704D-01 0.22249370D+00 0.23904074D+06 0.23904074D+06 0.23904074D+06 0.10919267D+01  1  2 15  1  7  1       -2 0.541160884120D-04 0.100000000000D+01
  </mgrwgt>
  </event>
  <event>
  8     66 0.27011060E-05 0.43313090E+03 0.75467711E-02 0.90840415E-01
       -2 -1    0    0    0  501 0.00000000E+00 0.00000000E+00 0.62824568E+03 0.62824576E+03 0.32000000E+00 0.0000E+00 0.9000E+01
        2 -1    0    0  501    0 0.00000000E+00 0.00000000E+00 -.34382385E+03 0.34382400E+03 0.32000000E+00 0.0000E+00 0.9000E+01
       25  2    1    2    0    0 -.10025091E+03 -.36380170E+03 0.32496933E+03 0.58157586E+03 0.30037226E+03 0.0000E+00 0.0000E+00
       23  2    1    2    0    0 0.10025091E+03 0.36380170E+03 -.40547500E+02 0.39049390E+03 0.91866580E+02 0.0000E+00 0.0000E+00
       24  1    3    3    0    0 -.31991705E+02 -.36652103E+03 0.26059485E+03 0.45797164E+03 0.80419002E+02 0.0000E+00 0.9000E+01
      -11  1    4    4    0    0 -.60459466E+00 0.12392842E+03 -.40178581E+02 0.13028022E+03 0.51099893E-03 0.0000E+00 0.9000E+01
       11  1    4    4    0    0 0.10085550E+03 0.23987328E+03 -.36891855E+00 0.26021368E+03 0.51099893E-03 0.0000E+00 0.9000E+01
      -24  1    3    3    0    0 -.68259202E+02 0.27193298E+01 0.64374482E+02 0.12360422E+03 0.80419002E+02 0.0000E+00 0.9000E+01
#aMCatNLO 1  0  0  1  1 0.44292125D+03 0.00000000D+00  -5  7  0 0.00000000D+00 0.00000000D+00 0.00000000D+00 0.00000000D+00 0.00000000D+00
  <mgrwgt>
 0.1050000144D-02    3    2    0
 0.464764416409983D+03 0.000000000000000D+00 0.000000000000000D+00 0.464764416409983D+03
 0.464764416409983D+03 0.000000000000000D+00 0.000000000000000D+00 -.464764416409983D+03
 0.399193128058061D+03 -.319917046983823D+02 -.366521028677176D+03 0.132388836018471D+03
 0.148536686543963D+03 -.604594666487777D+00 0.123928418855852D+03 -.818811865732138D+02
 0.272235534130944D+03 0.100855501373211D+03 0.239873280000915D+03 -.800072710940784D+02
 0.109563484086998D+03 -.682592020083412D+02 0.271932982040892D+01 0.294996216488216D+02
 0.000000000000000D+00 0.000000000000000D+00 -.000000000000000D+00 -.000000000000000D+00
 0.611278810868495D+03 0.000000000000000D+00 0.000000000000000D+00 0.611278810868495D+03
 0.102334122228211D+04 0.000000000000000D+00 0.000000000000000D+00 -.102334122228211D+04
 0.345594692382216D+03 -.163900399553912D+03 -.261874646676860D+03 0.132388836018471D+03
 0.201464253694769D+03 -.625929435063057D+02 0.173105286532126D+03 -.818811865732138D+02
 0.334950278219437D+03 -.668262672693261D+01 0.325185897528453D+03 -.800072710940784D+02
 0.147652411023444D+03 -.113814475723825D+03 0.388594385568389D+02 0.294996216488216D+02
 0.604958397830741D+03 0.346990445510976D+03 -.275275975940557D+03 -.412062411413617D+03
0.990614061083D-04 0.000000000000D+00 0.000000000000D+00 0.160360560462D-05 0.000000000000D+00  7 -2 2 24 -11 11 -24 21 0 0.96653200D-01 0.52895995D-01 0.18760237D+06 0.18760237D+06 0.18760237D+06 0.10999663D+01  1  2  2  1  7  1       -2 0.103886259560D-02 0.100000000000D+01
-.547016260072D-05 0.000000000000D+00 -.380421882923D-06 0.160360560462D-05 0.000000000000D+00  7 -2 2 24 -11 11 -24 21 2 0.96653200D-01 0.52895995D-01 0.18760237D+06 0.18760237D+06 0.18760237D+06 0.10999663D+01  1  2  3  1  7  1       -2 -.694084875852D-04 0.100000000000D+01
0.634792555986D-05 0.000000000000D+00 0.000000000000D+00 0.160360560462D-05 0.000000000000D+00  7 -2 2 24 -11 11 -24 21 2 0.96653200D-01 0.52895995D-01 0.18760237D+06 0.18760237D+06 0.18760237D+06 0.10999663D+01  1  2 15  1  7  1       -2 0.805460357531D-04 0.100000000000D+01
  </mgrwgt>
  </event>
  <event>
  8     66 0.27011060E-05 0.20886964E+03 0.75467711E-02 0.10440272E+00
       -2 -1    0    0    0  501 0.00000000E+00 0.00000000E+00 0.21554286E+02 0.21556661E+02 0.32000000E+00 0.0000E+00 0.9000E+01
        2 -1    0    0  501    0 0.00000000E+00 0.00000000E+00 -.30798560E+04 0.30798560E+04 0.32000000E+00 0.0000E+00 0.9000E+01
       25  2    1    2    0    0 0.42621972E+02 -.12770511E+03 -.15573218E+04 0.15916617E+04 0.30001747E+03 0.0000E+00 0.0000E+00
       23  2    1    2    0    0 -.42621972E+02 0.12770511E+03 -.15009799E+04 0.15097510E+04 0.91006313E+02 0.0000E+00 0.0000E+00
       24  1    3    3    0    0 0.38991373E+02 0.17114141E+02 -.15616827E+03 0.18074558E+03 0.80419002E+02 0.0000E+00 0.9000E+01
      -11  1    4    4    0    0 -.70330832E+02 0.88455799E+02 -.11400794E+04 0.11456666E+04 0.51099893E-03 0.0000E+00 0.9000E+01
       11  1    4    4    0    0 0.27708860E+02 0.39249315E+02 -.36090050E+03 0.36408441E+03 0.51099893E-03 0.0000E+00 0.9000E+01
      -24  1    3    3    0    0 0.36305995E+01 -.14481926E+03 -.14011536E+04 0.14109161E+04 0.80419002E+02 0.0000E+00 0.9000E+01
#aMCatNLO 1  0  0  1  2 0.39686126D+02 0.00000000D+00  -5  7  0 0.00000000D+00 0.00000000D+00 0.00000000D+00 0.00000000D+00 0.00000000D+00
  <mgrwgt>
 0.4963188223D-03    4    2    0
 0.257658310922416D+03 0.000000000000000D+00 0.000000000000000D+00 0.257658310922416D+03
 0.257658310922416D+03 0.000000000000000D+00 0.000000000000000D+00 -.257658310922416D+03
 0.160982490164569D+03 0.389913728172711D+02 0.171141408923482D+02 0.132796555725502D+03
 0.129004270392032D+03 -.703308324417848D+02 0.884557989987200D+02 -.622193491682782D+02
 0.493548985998266D+02 0.277088600927444D+02 0.392493151675573D+02 -.112967405492752D+02
 0.175974962688405D+03 0.363059953176919D+01 -.144819255058626D+03 -.592804660079491D+02
 0.000000000000000D+00 -.000000000000000D+00 0.000000000000000D+00 -.000000000000000D+00
 0.269569558342163D+03 0.000000000000000D+00 0.000000000000000D+00 0.269569558342163D+03
 0.293740334257284D+03 0.000000000000000D+00 0.000000000000000D+00 -.293740334257284D+03
 0.161041911562941D+03 0.424846608222967D+02 0.523542813278922D+01 0.132796555725502D+03
 0.121322616242519D+03 -.676153117988621D+02 0.792218367077422D+02 -.622193491682782D+02
 0.472031858805407D+02 0.287563123867136D+02 0.356875175397923D+02 -.112967405492752D+02
 0.187274824578880D+03 0.757109633226521D+01 -.158218674046042D+03 -.592804660079491D+02
 0.464673543345658D+02 -.111967577424134D+02 0.380738916657182D+02 -.241707759151201D+02
0.995602029817D-05 0.000000000000D+00 0.000000000000D+00 0.536049479965D-06 0.000000000000D+00  7 -2 2 24 -11 11 -24 21 0 0.33162279D-02 0.47382418D+00 0.43626527D+05 0.43626527D+05 0.43626527D+05 0.11525410D+01  1  2  2  1  7  1       -2 0.690167495159D-03 0.100000000000D+01
-.523476283413D-06 0.000000000000D+00 -.382337394253D-07 0.536049479965D-06 0.000000000000D+00  7 -2 2 24 -11 11 -24 21 2 0.33162279D-02 0.47382418D+00 0.43626527D+05 0.43626527D+05 0.43626527D+05 0.11525410D+01  1  2  3  1  7  1       -2 -.482034933273D-04 0.100000000000D+01
0.638709753965D-06 0.000000000000D+00 0.000000000000D+00 0.536049479965D-06 0.000000000000D+00  7 -2 2 24 -11 11 -24 21 2 0.33162279D-02 0.47382418D+00 0.43626527D+05 0.43626527D+05 0.43626527D+05 0.11525410D+01  1  2 15  1  7  1       -2 0.588145869047D-04 0.100000000000D+01
-.222037514849D-05 0.000000000000D+00 0.000000000000D+00 0.536049479965D-06 0.000000000000D+00  7 -2 2 24 -11 11 -24 21 2 0.33162279D-02 0.47382418D+00 0.43626527D+05 0.43626527D+05 0.43626527D+05 0.11525410D+01  1  2  4  1  7  1       -2 -.204459766460D-03 0.100000000000D+01
  </mgrwgt>
  </event>
  <event>
  8     66 -.27011060E-05 0.71302767E+02 0.75467711E-02 0.10460802E+00
       -2 -1    0    0    0  501 0.00000000E+00 0.00000000E+00 0.29297713E+03 0.29297730E+03 0.32000000E+00 0.0000E+00 0.9000E+01
        2 -1    0    0  501    0 0.00000000E+00 0.00000000E+00 -.16806688E+03 0.16806719E+03 0.32000000E+00 0.0000E+00 0.9000E+01
       25  2    1    2    0    0 -.22488967E+01 0.56685585E+02 0.94321813E+01 0.30370489E+03 0.29821029E+03 0.0000E+00 0.0000E+00
       23  2    1    2    0    0 0.22488967E+01 -.56685585E+02 0.11547806E+03 0.15733960E+03 0.90566300E+02 0.0000E+00 0.0000E+00
       24  1    3    3    0    0 0.36595931E+02 0.30760248E+02 0.12451429E+03 0.15574492E+03 0.80419002E+02 0.0000E+00 0.9000E+01
      -13  1    4    4    0    0 0.33564320E+02 0.36450365E+01 0.62959242E+02 0.71440375E+02 0.10565837E+00 0.0000E+00 0.9000E+01
       13  1    4    4    0    0 -.31315424E+02 -.60330622E+02 0.52518822E+02 0.85899229E+02 0.10565837E+00 0.0000E+00 0.9000E+01
      -24  1    3    3    0    0 -.38844828E+02 0.25925337E+02 -.11508211E+03 0.14795997E+03 0.80419002E+02 0.0000E+00 0.9000E+01
#aMCatNLO 1  0  0  2  1 0.13874343D+03 0.00000000D+00  -5  7  0 0.00000000D+00 0.00000000D+00 0.00000000D+00 0.00000000D+00 0.00000000D+00
  <mgrwgt>
 -.1694929357D-02    7    2    0
 0.221900569851519D+03 0.000000000000000D+00 0.000000000000000D+00 0.221900569851519D+03
 0.221900569851519D+03 0.000000000000000D+00 0.000000000000000D+00 -.221900569851519D+03
 0.126750958302161D+03 0.365959268633506D+02 0.307602531229779D+02 0.855168664122357D+02
 0.564958630154305D+02 0.335644078204739D+02 0.364511672147200D+01 0.452981919021725D+02
 0.744550638627416D+02 -.313155106038091D+02 -.603307159215378D+02 0.303825615579455D+02
 0.186099254522705D+03 -.388448240800153D+02 0.259253460770879D+02 -.161197619872354D+03
 0.000000000000000D+00 0.000000000000000D+00 0.000000000000000D+00 -.000000000000000D+00
 0.235513810457443D+03 0.000000000000000D+00 0.000000000000000D+00 0.235513810457443D+03
 0.182479492339800D+04 0.000000000000000D+00 0.000000000000000D+00 -.182479492339800D+04
 0.117874742233342D+03 0.681180968094261D+01 0.822822642547219D+01 0.855168664122357D+02
 0.501365613561115D+02 0.205815012167365D+02 -.617660122353456D+01 0.452981919021725D+02
 0.971953478116894D+02 -.522146065063585D+02 -.761411219827963D+02 0.303825615579455D+02
 0.199776349196959D+03 -.858266586700030D+02 -.961695134258060D+01 -.161197619872354D+03
 0.159532573325734D+04 0.110647954278682D+03 0.837064481234393D+02 -.158928111294056D+04
0.922710361342D-05 0.000000000000D+00 0.000000000000D+00 0.303008131909D-07 0.000000000000D+00  7 -2 2 24 -13 13 -24 21 0 0.45073441D-01 0.25856480D-01 0.20777411D+05 0.20777411D+05 0.20777411D+05 0.11824332D+01  1  2  2  2  7  2        2 0.108291205204D-02 0.100000000000D+01
-.396613105137D-06 0.000000000000D+00 -.354345074277D-07 0.303008131909D-07 0.000000000000D+00  7 -2 2 24 -13 13 -24 21 2 0.45073441D-01 0.25856480D-01 0.20777411D+05 0.20777411D+05 0.20777411D+05 0.11824332D+01  1  2  3  2  7  2        2 -.650800818785D-04 0.100000000000D+01
0.559819970171D-06 0.000000000000D+00 0.000000000000D+00 0.303008131909D-07 0.000000000000D+00  7 -2 2 24 -13 13 -24 21 2 0.45073441D-01 0.25856480D-01 0.20777411D+05 0.20777411D+05 0.20777411D+05 0.11824332D+01  1  2 15  2  7  2        2 0.918606294752D-04 0.100000000000D+01
0.382559694004D-06 0.000000000000D+00 0.000000000000D+00 0.303008131909D-07 0.000000000000D+00  7 -2 2 24 -13 13 -24 21 2 0.45073441D-01 0.20438192D+00 0.51005929D+05 0.51005929D+05 0.51005929D+05 0.11465353D+01  1  2 12  2  7  2        2 0.506723783709D-05 0.100000000000D+01
-.187587445849D-03 0.000000000000D+00 -.618732232272D-05 0.303008131909D-07 0.000000000000D+00  7 -2 2 24 -13 13 -24 21 2 0.45073441D-01 0.21495932D+00 0.20777411D+05 0.20777411D+05 0.20777411D+05 0.11824332D+01  1  2  5  2  7  2        2 -.251194109694D-02 0.100000000000D+01
0.960778843843D-07 0.000000000000D+00 0.000000000000D+00 0.303008131909D-07 0.000000000000D+00  7 -2 21 24 -13 13 -24 -2 2 0.45073441D-01 0.20438192D+00 0.51005929D+05 0.51005929D+05 0.51005929D+05 0.11465353D+01  1  2 12  4  7  2        2 0.603682660913D-06 0.100000000000D+01
-.488755213941D-04 0.000000000000D+00 -.158622650725D-05 0.303008131909D-07 0.000000000000D+00  7 -2 21 24 -13 13 -24 -2 2 0.45073441D-01 0.21495932D+00 0.20777411D+05 0.20777411D+05 0.20777411D+05 0.11824332D+01  1  2  5  4  7  2        2 -.298351780646D-03 0.100000000000D+01
  </mgrwgt>
  </event>
  <event>
  8     66 0.27011060E-05 0.12960911E+03 0.75467711E-02 0.96926262E-01
       -2 -1    0    0    0  501 0.00000000E+00 0.00000000E+00 0.51642931E+02 0.51643923E+02 0.32000000E+00 0.0000E+00 0.9000E+01
        2 -1    0    0  501    0 0.00000000E+00 0.00000000E+00 -.32964638E+04 0.32964638E+04 0.32000000E+00 0.0000E+00 0.9000E+01
       25  2    1    2    0    0 0.30457943E+03 0.17546796E+03 -.17706878E+04 0.18301076E+04 0.30066750E+03 0.0000E+00 0.0000E+00
       23  2    1    2    0    0 -.30457943E+03 -.17546796E+03 -.14741331E+04 0.15180001E+04 0.87740783E+02 0.0000E+00 0.0000E+00
       24  1    3    3    0    0 0.12799722E+03 0.18748020E+03 -.12772261E+04 0.12997330E+04 0.80419002E+02 0.0000E+00 0.9000E+01
      -13  1    4    4    0    0 -.49118146E+02 -.19341421E+02 -.37981170E+03 0.38346267E+03 0.10565837E+00 0.0000E+00 0.9000E+01
       13  1    4    4    0    0 -.25546129E+03 -.15612654E+03 -.10943214E+04 0.11345374E+04 0.10565837E+00 0.0000E+00 0.9000E+01
      -24  1    3    3    0    0 0.17658222E+03 -.12012239E+02 -.49346166E+03 0.53037459E+03 0.80419002E+02 0.0000E+00 0.9000E+01
#aMCatNLO 1  0  0  2  1 0.32468417D+02 0.00000000D+00  -5  7  0 0.00000000D+00 0.00000000D+00 0.00000000D+00 0.00000000D+00 0.00000000D+00
  <mgrwgt>
 0.2666100370D-02    9    2    0
 0.412602398506539D+03 0.000000000000000D+00 0.000000000000000D+00 0.412602398506539D+03
 0.412602398506539D+03 0.000000000000000D+00 0.000000000000000D+00 -.412602398506539D+03
 0.251181492680894D+03 0.127997215820607D+03 0.187480201273137D+03 -.713639487681847D+02
 0.623519486345472D+02 -.491178467122840D+02 -.193412225696597D+02 -.331831243614079D+02
 0.300140161457685D+03 -.255461586970330D+03 -.156126739658193D+03 0.211644812397768D+02
 0.211531194239952D+03 0.176582217862006D+03 -.120122390452844D+02 0.833825918898158D+02
 0.000000000000000D+00 0.000000000000000D+00 -.000000000000000D+00 -.000000000000000D+00
 0.422344691687102D+03 0.000000000000000D+00 0.000000000000000D+00 0.422344691687102D+03
 0.440890275079309D+03 0.000000000000000D+00 0.000000000000000D+00 -.440890275079309D+03
 0.254822104577413D+03 0.122580328066880D+03 0.195827319376331D+03 -.713639487681847D+02
 0.628138777555885D+02 -.504577763804357D+02 -.172764666251897D+02 -.331831243614079D+02
 0.300691086726163D+03 -.261893627074349D+03 -.146215329115158D+03 0.211644812397768D+02
 0.207516230326123D+03 0.172096216429087D+03 -.509956418952338D+01 0.833825918898158D+02
 0.373916673811236D+02 0.176748589588175D+02 -.272359594464597D+02 -.185455833922066D+02
0.732032064168D-04 0.000000000000D+00 0.000000000000D+00 0.158210893460D-06 0.000000000000D+00  7 -2 2 24 -13 13 -24 21 0 0.79451438D-02 0.50714835D+00 0.15500594D+06 0.15500594D+06 0.15500594D+06 0.11064286D+01  1  2  2  2  7  2        2 0.952672045965D-03 0.100000000000D+01
-.405597998413D-05 0.000000000000D+00 -.281119587488D-06 0.158210893460D-06 0.000000000000D+00  7 -2 2 24 -13 13 -24 21 2 0.79451438D-02 0.50714835D+00 0.15500594D+06 0.15500594D+06 0.15500594D+06 0.11064286D+01  1  2  3  2  7  2        2 -.646183524603D-04 0.100000000000D+01
0.484245122080D-05 0.000000000000D+00 0.000000000000D+00 0.158210893460D-06 0.000000000000D+00  7 -2 2 24 -13 13 -24 21 2 0.79451438D-02 0.50714835D+00 0.15500594D+06 0.15500594D+06 0.15500594D+06 0.11064286D+01  1  2 15  2  7  2        2 0.771481173431D-04 0.100000000000D+01
0.158335436333D-03 0.000000000000D+00 0.000000000000D+00 0.158210893460D-06 0.000000000000D+00  7 -2 2 24 -13 13 -24 21 2 0.79451438D-02 0.54761832D+00 0.16826389D+06 0.16826389D+06 0.16826389D+06 0.11036355D+01  1  2 12  2  7  2        2 0.164392372119D-02 0.100000000000D+01
-.155612252978D-03 0.000000000000D+00 0.000000000000D+00 0.158210893460D-06 0.000000000000D+00  7 -2 2 24 -13 13 -24 21 2 0.79451438D-02 0.50714835D+00 0.15500594D+06 0.15500594D+06 0.15500594D+06 0.11064286D+01  1  2  4  2  7  2        2 -.247915607310D-02 0.100000000000D+01
-.476614245992D-03 0.000000000000D+00 -.745987665090D-04 0.158210893460D-06 0.000000000000D+00  7 -2 2 24 -13 13 -24 21 2 0.79451438D-02 0.54510480D+00 0.15500594D+06 0.15500594D+06 0.15500594D+06 0.11064286D+01  1  2  5  2  7  2        2 -.513075699515D-02 0.100000000000D+01
0.481322860913D-03 0.000000000000D+00 0.745562624964D-04 0.158210893460D-06 0.000000000000D+00  7 -2 2 24 -13 13 -24 21 2 0.79451438D-02 0.50714835D+00 0.15500594D+06 0.15500594D+06 0.15500594D+06 0.11064286D+01  1  2  6  2  7  2        2 0.766825536500D-02 0.100000000000D+01
0.209509714662D-05 0.000000000000D+00 0.000000000000D+00 0.158210893460D-06 0.000000000000D+00  7 -2 21 24 -13 13 -24 -2 2 0.79451438D-02 0.54761832D+00 0.16826389D+06 0.16826389D+06 0.16826389D+06 0.11036355D+01  1  2 12  4  7  2        2 0.725800578244D-06 0.100000000000D+01
-.567371430727D-05 0.000000000000D+00 -.908843675339D-06 0.158210893460D-06 0.000000000000D+00  7 -2 21 24 -13 13 -24 -2 2 0.79451438D-02 0.54510480D+00 0.15500594D+06 0.15500594D+06 0.15500594D+06 0.11064286D+01  1  2  5  4  7  2        2 -.209325912655D-05 0.100000000000D+01
  </mgrwgt>
  </event>
  <event>
  8     66 0.27011060E-05 0.30210134E+03 0.75467711E-02 0.98472457E-01
       -2 -1    0    0    0  501 0.00000000E+00 0.00000000E+00 0.23588472E+03 0.23588494E+03 0.32000000E+00 0.0000E+00 0.9000E+01
        2 -1    0    0  501    0 0.00000000E+00 0.00000000E+00 -.50083039E+03 0.50083049E+03 0.32000000E+00 0.0000E+00 0.9000E+01
       25  2    1    2    0    0 0.25665131E+03 0.45297430E+02 -.80810924E+02 0.40512401E+03 0.29945501E+03 0.0000E+00 0.0000E+00
       23  2    1    2    0    0 -.25665131E+03 -.45297430E+02 -.18413474E+03 0.33159142E+03 0.90141646E+02 0.0000E+00 0.0000E+00
       24  1    3    3    0    0 0.67419041E+02 -.34374587E+02 0.76428122E+02 0.13429599E+03 0.80419002E+02 0.0000E+00 0.9000E+01
      -13  1    4    4    0    0 -.11985582E+03 -.62876584E+02 -.11348464E+03 0.17662859E+03 0.10565837E+00 0.0000E+00 0.9000E+01
       13  1    4    4    0    0 -.13679549E+03 0.17579155E+02 -.70650100E+02 0.15496284E+03 0.10565837E+00 0.0000E+00 0.9000E+01
      -24  1    3    3    0    0 0.18923227E+03 0.79672016E+02 -.15723905E+03 0.27082802E+03 0.80419002E+02 0.0000E+00 0.9000E+01
#aMCatNLO 1  0  0  2  1 0.11212822D+03 0.00000000D+00  -5  7  0 0.00000000D+00 0.00000000D+00 0.00000000D+00 0.00000000D+00 0.00000000D+00
  <mgrwgt>
 0.1892505934D-03    4    2    0
 0.343712605582077D+03 0.000000000000000D+00 0.000000000000000D+00 0.343712605582077D+03
 0.343712605582077D+03 0.000000000000000D+00 0.000000000000000D+00 -.343712605582077D+03
 0.173382102439346D+03 0.674190410537870D+02 -.343745864135899D+02 0.133668239324829D+03
 0.145554375598362D+03 -.119855796428616D+03 -.628766947246115D+02 -.535461070368258D+02
 0.138844294900002D+03 -.136795513704306D+03 0.175792649448057D+02 -.159904690567268D+02
 0.229644438226444D+03 0.189232269079135D+03 0.796720161933958D+02 -.641316632312769D+02
 0.000000000000000D+00 0.000000000000000D+00 -.000000000000000D+00 0.000000000000000D+00
 0.420349616898508D+03 0.000000000000000D+00 0.000000000000000D+00 0.420349616898508D+03
 0.391853031934978D+03 0.000000000000000D+00 0.000000000000000D+00 -.391853031934978D+03
 0.167597872737130D+03 0.608080686201047D+02 -.755060117695653D+01 0.133668239324829D+03
 0.142198194537842D+03 -.125434787710749D+03 -.402399674823680D+02 -.535461070368258D+02
 0.148802792649469D+03 -.142372459873753D+03 0.402076941532782D+02 -.159904690567268D+02
 0.237911124367414D+03 0.180167229603068D+03 0.116453365308787D+03 -.641316632312769D+02
 0.115692664541631D+03 0.268319493613289D+02 -.108870490802741D+03 0.284965849635307D+02
0.645488253682D-05 0.000000000000D+00 0.000000000000D+00 0.179831500010D-06 0.000000000000D+00  7 -2 2 24 -13 13 -24 21 0 0.36289982D-01 0.77050854D-01 0.91265222D+05 0.91265222D+05 0.91265222D+05 0.11249941D+01  1  2  2  2  7  2        2 0.342596905231D-03 0.100000000000D+01
-.351344053716D-06 0.000000000000D+00 -.247884485510D-07 0.179831500010D-06 0.000000000000D+00  7 -2 2 24 -13 13 -24 21 2 0.36289982D-01 0.77050854D-01 0.91265222D+05 0.91265222D+05 0.91265222D+05 0.11249941D+01  1  2  3  2  7  2        2 -.236008787035D-04 0.100000000000D+01
0.416293608747D-06 0.000000000000D+00 0.000000000000D+00 0.179831500010D-06 0.000000000000D+00  7 -2 2 24 -13 13 -24 21 2 0.36289982D-01 0.77050854D-01 0.91265222D+05 0.91265222D+05 0.91265222D+05 0.11249941D+01  1  2 15  2  7  2        2 0.279637434054D-04 0.100000000000D+01
-.234780162613D-05 0.000000000000D+00 0.000000000000D+00 0.179831500010D-06 0.000000000000D+00  7 -2 2 24 -13 13 -24 21 2 0.36289982D-01 0.77050854D-01 0.91265222D+05 0.91265222D+05 0.91265222D+05 0.11249941D+01  1  2  4  2  7  2        2 -.157709176553D-03 0.100000000000D+01
  </mgrwgt>
  </event>
  <event>
  8     66 0.27011060E-05 0.83744490E+03 0.75467711E-02 0.88932221E-01
       -2 -1    0    0    0  501 0.00000000E+00 0.00000000E+00 0.40374753E+03 0.40374765E+03 0.32000000E+00 0.0000E+00 0.9000E+01
        2 -1    0    0  501    0 0.00000000E+00 0.00000000E+00 -.20028830E+04 0.20028831E+04 0.32000000E+00 0.0000E+00 0.9000E+01
       25  2    1    2    0    0 -.78715605E+03 -.19227120E+03 -.39284614E+03 0.95060248E+03 0.30452280E+03 0.0000E+00 0.0000E+00
       23  2    1    2    0    0 0.78715605E+03 0.19227120E+03 -.12062894E+04 0.14560282E+04 0.91111583E+02 0.0000E+00 0.0000E+00
       24  1    3    3    0    0 -.70231871E+03 -.96490397E+02 -.30613061E+03 0.77636662E+03 0.80419002E+02 0.0000E+00 0.9000E+01
      -11  1    4    4    0    0 0.18160850E+02 0.48635988E+01 -.91950597E+01 0.20928932E+02 0.51099893E-03 0.0000E+00 0.9000E+01
       11  1    4    4    0    0 0.76899520E+03 0.18740760E+03 -.11970943E+04 0.14350993E+04 0.51099893E-03 0.0000E+00 0.9000E+01
      -24  1    3    3    0    0 -.84837340E+02 -.95780805E+02 -.86715535E+02 0.17423587E+03 0.80419002E+02 0.0000E+00 0.9000E+01
#aMCatNLO 1  0  0  2  1 0.31839967D+02 0.00000000D+00  -5  7  0 0.00000000D+00 0.00000000D+00 0.00000000D+00 0.00000000D+00 0.00000000D+00
  <mgrwgt>
 0.1391295214D-02    4    2    0
 0.899254835506071D+03 0.000000000000000D+00 0.000000000000000D+00 0.899254835506071D+03
 0.899254835506071D+03 0.000000000000000D+00 0.000000000000000D+00 -.899254835506071D+03
 0.766681131499931D+03 -.702318705980639D+03 -.964903969224802D+02 0.280661326112216D+03
 0.198297875814540D+02 0.181608504074033D+02 0.486359882550442D+01 0.630471208462829D+01
 0.855952053714474D+03 0.768995196020182D+03 0.187407603192039D+03 -.325850728128269D+03
 0.156046698216282D+03 -.848373404469465D+02 -.957808050950636D+02 0.388846899314252D+02
 0.000000000000000D+00 -.000000000000000D+00 0.000000000000000D+00 0.000000000000000D+00
 0.106025808727733D+04 0.000000000000000D+00 0.000000000000000D+00 0.106025808727733D+04
 0.900971289448555D+03 0.000000000000000D+00 0.000000000000000D+00 -.900971289448555D+03
 0.757667018503931D+03 -.691331022541095D+03 -.104320334889616D+03 0.280661326112216D+03
 0.200447580266532D+02 0.184482708923079D+02 0.465877998633147D+01 0.630471208462829D+01
 0.865247644622446D+03 0.781401808919943D+03 0.178566521273189D+03 -.325850728128269D+03
 0.155832067651089D+03 -.825892810709716D+02 -.973827956836325D+02 0.388846899314252D+02
 0.162437887921767D+03 -.259297762001844D+02 0.184778293137279D+02 0.159286797828777D+03
0.724065512673D-03 0.000000000000D+00 0.000000000000D+00 0.414109036734D-06 0.000000000000D+00  7 -2 2 24 -11 11 -24 21 0 0.62115016D-01 0.30813586D+00 0.70131397D+06 0.70131397D+06 0.70131397D+06 0.10582777D+01  1  2  2  2  7  2        2 0.145639479878D-02 0.100000000000D+01
-.399778451606D-04 0.000000000000D+00 -.278060221949D-05 0.414109036734D-06 0.000000000000D+00  7 -2 2 24 -11 11 -24 21 2 0.62115016D-01 0.30813586D+00 0.70131397D+06 0.70131397D+06 0.70131397D+06 0.10582777D+01  1  2  3  2  7  2        2 -.900575078005D-04 0.100000000000D+01
0.461400168004D-04 0.000000000000D+00 0.000000000000D+00 0.414109036734D-06 0.000000000000D+00  7 -2 2 24 -11 11 -24 21 2 0.62115016D-01 0.30813586D+00 0.70131397D+06 0.70131397D+06 0.70131397D+06 0.10582777D+01  1  2 15  2  7  2        2 0.103938941837D-03 0.100000000000D+01
-.350608295253D-04 0.000000000000D+00 0.000000000000D+00 0.414109036734D-06 0.000000000000D+00  7 -2 2 24 -11 11 -24 21 2 0.62115016D-01 0.30813586D+00 0.70131397D+06 0.70131397D+06 0.70131397D+06 0.10582777D+01  1  2  4  2  7  2        2 -.789810185063D-04 0.100000000000D+01
  </mgrwgt>
  </event>
  <event>
  7     66 0.27011060E-05 0.25453570E+03 0.75467711E-02 0.95150502E-01
       -2 -1    0    0    0  501 0.00000000E+00 0.00000000E+00 0.77047030E+02 0.77047694E+02 0.32000000E+00 0.0000E+00 0.9000E+01
        2 -1    0    0  501    0 0.00000000E+00 0.00000000E+00 -.10760277E+04 0.10760277E+04 0.32000000E+00 0.0000E+00 0.9000E+01
       25  2    1    2    0    0 0.10418018E+03 0.80522301E+02 -.65055076E+03 0.72811321E+03 0.29932457E+03 0.0000E+00 0.0000E+00
       24  1    3    3    0    0 -.39503496E+02 0.11036543E+02 -.45220221E+03 0.46112513E+03 0.80419002E+02 0.0000E+00 0.9000E+01
      -13  1    1    2    0    0 0.58891057E+02 -.42523881E+02 -.75542940E+02 0.10480069E+03 0.10565837E+00 0.0000E+00 0.9000E+01
       13  1    1    2    0    0 -.16307123E+03 -.37998419E+02 -.27288696E+03 0.32016154E+03 0.10565837E+00 0.0000E+00 0.9000E+01
      -24  1    3    3    0    0 0.14368367E+03 0.69485758E+02 -.19834855E+03 0.26698808E+03 0.80419002E+02 0.0000E+00 0.9000E+01
#aMCatNLO 1  0  0  1  2 0.34119960D+03 0.00000000D+00  -5  7  0 0.00000000D+00 0.00000000D+00 0.00000000D+00 0.00000000D+00 0.00000000D+00
  <mgrwgt>
 0.2735441142D-02    3    2    0
 0.287932541087389D+03 0.000000000000000D+00 0.000000000000000D+00 0.287932541087389D+03
 0.287932541087389D+03 0.000000000000000D+00 0.000000000000000D+00 -.287932541087389D+03
 0.138871032956777D+03 -.394986261626925D+02 0.110403054309546D+02 -.105526859269869D+03
 0.787901254420500D+02 0.588793606105509D+02 -.425252672354240D+02 0.305402424322804D+02
 0.167682732755628D+03 -.163071083850500D+03 -.380059569632066D+02 0.899264763734535D+01
 0.190521191020322D+03 0.143690349402642D+03 0.694909187676759D+02 0.659939692002430D+02
 0.000000000000000D+00 -.000000000000000D+00 -.000000000000000D+00 -.000000000000000D+00
 0.391869549872911D+03 0.000000000000000D+00 0.000000000000000D+00 0.391869549872911D+03
 0.843570597004035D+03 0.000000000000000D+00 0.000000000000000D+00 -.843570597004035D+03
 0.150910008973701D+03 0.128386245237181D+02 0.707521487097617D+02 -.105526859269869D+03
 0.956284374757678D+02 0.903810350851129D+02 -.658484192505408D+01 0.305402424322804D+02
 0.114285576887091D+03 -.112144887957620D+03 0.200960065151895D+02 0.899264763734535D+01
 0.308532204719089D+03 0.233824205312320D+03 0.172325106800230D+03 0.659939692002430D+02
 0.566083918821297D+03 -.224898976963531D+03 -.256588420100127D+03 -.451701047131124D+03
0.202884397311D-04 0.000000000000D+00 0.000000000000D+00 0.141076129321D-09 0.000000000000D+00  7 -2 2 24 -13 13 -24 21 0 0.11853444D-01 0.16554278D+00 0.64788423D+05 0.64788423D+05 0.64788423D+05 0.11375271D+01  1  2  2  1  7  1       -2 0.270128296155D-02 0.100000000000D+01
-.110630603477D-05 0.000000000000D+00 -.779129506364D-07 0.141076129321D-09 0.000000000000D+00  7 -2 2 24 -13 13 -24 21 2 0.11853444D-01 0.16554278D+00 0.64788423D+05 0.64788423D+05 0.64788423D+05 0.11375271D+01  1  2  3  1  7  1       -2 -.190598832354D-03 0.100000000000D+01
0.130457273181D-05 0.000000000000D+00 0.000000000000D+00 0.141076129321D-09 0.000000000000D+00  7 -2 2 24 -13 13 -24 21 2 0.11853444D-01 0.16554278D+00 0.64788423D+05 0.64788423D+05 0.64788423D+05 0.11375271D+01  1  2 15  1  7  1       -2 0.224757012607D-03 0.100000000000D+01
  </mgrwgt>
  </event>
  <event>
  8     66 0.27011060E-05 0.30581857E+03 0.75467711E-02 0.99301113E-01
       -2 -1    0    0    0  501 0.00000000E+00 0.00000000E+00 0.32246048E+02 0.32247635E+02 0.32000000E+00 0.0000E+00 0.9000E+01
        2 -1    0    0  501    0 0.00000000E+00 0.00000000E+00 -.36373357E+04 0.36373357E+04 0.32000000E+00 0.0000E+00 0.9000E+01
       25  2    1    2    0    0 0.25901048E+03 -.70556491E+02 -.21067095E+04 0.21444988E+04 0.29763291E+03 0.0000E+00 0.0000E+00
       23  2    1    2    0    0 -.25901048E+03 0.70556491E+02 -.14983801E+04 0.15250845E+04 0.93141220E+02 0.0000E+00 0.0000E+00
       24  1    3    3    0    0 0.14929408E+03 -.89568837E+02 -.17770588E+04 0.17873770E+04 0.80419002E+02 0.0000E+00 0.9000E+01
      -11  1    4    4    0    0 -.11095932E+02 -.16384095E+02 -.15485280E+03 0.15611197E+03 0.51099893E-03 0.0000E+00 0.9000E+01
       11  1    4    4    0    0 -.24791455E+03 0.86940586E+02 -.13435273E+04 0.13689726E+04 0.51099893E-03 0.0000E+00 0.9000E+01
      -24  1    3    3    0    0 0.10971641E+03 0.19012346E+02 -.32965072E+03 0.35712179E+03 0.80419002E+02 0.0000E+00 0.9000E+01
#aMCatNLO 1  0  0  1  2 0.57100230D+02 0.00000000D+00  -5  7  0 0.00000000D+00 0.00000000D+00 0.00000000D+00 0.00000000D+00 0.00000000D+00
  <mgrwgt>
 0.1847257987D-02    4    2    0
 0.342480129010799D+03 0.000000000000000D+00 0.000000000000000D+00 0.342480129010799D+03
 0.342480129010799D+03 0.000000000000000D+00 0.000000000000000D+00 -.342480129010799D+03
 0.222600561318385D+03 0.149294075402981D+03 -.895688366136912D+02 -.113015470189387D+03
 0.213262997832537D+02 -.110959323475709D+02 -.163840947386972D+02 -.795316209923636D+01
 0.262821932401433D+03 -.247914549799980D+03 0.869405858397721D+02 0.742150136653988D+01
 0.178211464518527D+03 0.109716406744570D+03 0.190123455126163D+02 0.113547130922084D+03
 0.000000000000000D+00 -.000000000000000D+00 0.000000000000000D+00 -.000000000000000D+00
 0.351590539506603D+03 0.000000000000000D+00 0.000000000000000D+00 0.351590539506603D+03
 0.446553912589327D+03 0.000000000000000D+00 0.000000000000000D+00 -.446553912589327D+03
 0.237825308528719D+03 0.164750822506885D+03 -.100887716812239D+03 -.113015470189387D+03
 0.214609424858528D+02 -.965954133147383D+01 -.174359549858877D+02 -.795316209923636D+01
 0.242777430856453D+03 -.230941303930092D+03 0.745111829848059D+02 0.742150136653988D+01
 0.185272474116817D+03 0.121918760443078D+03 0.100766374541706D+02 0.113547130922084D+03
 0.110808296108087D+03 -.460687376883973D+02 0.337358513591498D+02 -.949633730827235D+02
0.123021774678D-03 0.000000000000D+00 0.000000000000D+00 0.278848752447D-07 0.000000000000D+00  7 -2 2 24 -11 11 -24 21 0 0.49610536D-02 0.55959023D+00 0.93524996D+05 0.93524996D+05 0.93524996D+05 0.11241156D+01  1  2  2  1  7  1       -2 0.192858465674D-02 0.100000000000D+01
-.672801846383D-05 0.000000000000D+00 -.472436007141D-06 0.278848752447D-07 0.000000000000D+00  7 -2 2 24 -11 11 -24 21 2 0.49610536D-02 0.55959023D+00 0.93524996D+05 0.93524996D+05 0.93524996D+05 0.11241156D+01  1  2  3  1  7  1       -2 -.133280263268D-03 0.100000000000D+01
0.814704149738D-05 0.000000000000D+00 0.000000000000D+00 0.278848752447D-07 0.000000000000D+00  7 -2 2 24 -11 11 -24 21 2 0.49610536D-02 0.55959023D+00 0.93524996D+05 0.93524996D+05 0.93524996D+05 0.11241156D+01  1  2 15  1  7  1       -2 0.161390733611D-03 0.100000000000D+01
-.552441212490D-05 0.000000000000D+00 0.000000000000D+00 0.278848752447D-07 0.000000000000D+00  7 -2 2 24 -11 11 -24 21 2 0.49610536D-02 0.55959023D+00 0.93524996D+05 0.93524996D+05 0.93524996D+05 0.11241156D+01  1  2  4  1  7  1       -2 -.109437140574D-03 0.100000000000D+01
  </mgrwgt>
  </event>
  <event>
  9     66 0.27011060E-05 0.23898039E+03 0.75467711E-02 0.98864034E-01
       -2 -1    0    0    0  501 0.00000000E+00 0.00000000E+00 0.11377545E+03 0.11377590E+03 0.32000000E+00 0.0000E+00 0.9000E+01
        2 -1    0    0  502    0 0.00000000E+00 0.00000000E+00 -.25192359E+04 0.25192360E+04 0.32000000E+00 0.0000E+00 0.9000E+01
       25  2    1    2    0    0 -.76214476E+02 -.52349042E+02 -.21599481E+03 0.38120007E+03 0.30018439E+03 0.0000E+00 0.0000E+00
       23  2    1    2    0    0 0.18895450E+03 -.91964849E+02 -.47068317E+03 0.52330067E+03 0.90219770E+02 0.0000E+00 0.0000E+00
       24  1    3    3    0    0 -.16376054E+03 -.30756142E+02 -.86969751E+02 0.20443681E+03 0.80419002E+02 0.0000E+00 0.9000E+01
      -11  1    4    4    0    0 0.17360549E+03 -.80572418E+02 -.33127738E+03 0.38259049E+03 0.51099893E-03 0.0000E+00 0.9000E+01
       11  1    4    4    0    0 0.15349006E+02 -.11392432E+02 -.13940580E+03 0.14071018E+03 0.51099893E-03 0.0000E+00 0.9000E+01
      -24  1    3    3    0    0 0.87546069E+02 -.21592900E+02 -.12902506E+03 0.17676326E+03 0.80419002E+02 0.0000E+00 0.9000E+01
       21  1    1    2  502  501 -.11274002E+03 0.14431389E+03 -.17187825E+04 0.17285111E+04 0.75000000E+00 0.0000E+00 0.9000E+01
#aMCatNLO 2  0  0  2  1 0.18313059D+03 0.00000000D+00  -5  7  0 0.00000000D+00 0.00000000D+00 0.00000000D+00 0.00000000D+00 0.00000000D+00
  <mgrwgt>
 0.2093034494D-03    2    2    0
 0.279757986628204D+03 0.000000000000000D+00 0.000000000000000D+00 0.279757986628204D+03
 0.279757986628204D+03 0.000000000000000D+00 0.000000000000000D+00 -.279757986628204D+03
 0.248816600808463D+03 -.209069885198434D+03 0.272424918585918D+02 0.104833747543221D+03
 0.156157280365124D+03 0.138498068533346D+03 -.356328411738652D+02 -.627190708910980D+02
 0.503489465721037D+02 0.514442902143116D+01 0.167002954925364D+01 -.500575895571154D+02
 0.104193145510718D+03 0.654273876436566D+02 0.672031976601977D+01 0.794291290499279D+01
 0.000000000000000D+00 -.000000000000000D+00 0.000000000000000D+00 -.000000000000000D+00
 0.307508422452505D+03 0.000000000000000D+00 0.000000000000000D+00 0.307508422452505D+03
 0.932096198467392D+03 0.000000000000000D+00 0.000000000000000D+00 -.932096198467392D+03
 0.212651797240417D+03 -.163760544682535D+03 -.307561424195652D+02 0.104833747543221D+03
 0.201406213673884D+03 0.173605491221372D+03 -.805724175558469D+02 -.627190708910980D+02
 0.535830359611615D+02 0.153490055579882D+02 -.113924316512036D+02 -.500575895571154D+02
 0.121082093533888D+03 0.875460691369696D+02 -.215929000698671D+02 0.794291290499279D+01
 0.650881480510548D+03 -.112740021233794D+03 0.144313891696483D+03 -.624587776014887D+03
-.161917705209D-05 0.000000000000D+00 0.000000000000D+00 0.692971115839D-06 0.000000000000D+00  7 -2 2 24 -11 11 -24 21 2 0.15924334D-01 0.37723867D+00 0.12231590D+06 0.12231590D+06 0.12231590D+06 0.11146130D+01  1  2 13  2  7  2        2 -.293144100650D-04 0.100000000000D+01
0.167797068801D-04 0.000000000000D+00 0.000000000000D+00 0.692971115839D-06 0.264504901542D-09  7 -2 2 24 -11 11 -24 21 2 0.17503939D-01 0.38757454D+00 0.12231590D+06 0.12231590D+06 0.12231590D+06 0.11146130D+01  1  2  1  2  7  2        2 0.238617859448D-03 0.100000000000D+01
  </mgrwgt>
  </event>
  <event>
  8     66 0.27011060E-05 0.12188461E+03 0.75467711E-02 0.10669047E+00
       -4 -1    0    0    0  501 0.00000000E+00 0.00000000E+00 0.59116635E+03 0.59116838E+03 0.15500000E+01 0.0000E+00 0.9000E+01
        4 -1    0    0  501    0 0.00000000E+00 0.00000000E+00 -.12318373E+03 0.12319348E+03 0.15500000E+01 0.0000E+00 0.9000E+01
       25  2    1    2    0    0 -.51705445E+02 -.63403848E+02 0.10006989E+03 0.32646886E+03 0.29979065E+03 0.0000E+00 0.0000E+00
       23  2    1    2    0    0 0.51705445E+02 0.63403848E+02 0.36791273E+03 0.38789300E+03 0.91693503E+02 0.0000E+00 0.0000E+00
       24  1    3    3    0    0 0.71225409E+02 -.65117323E+02 0.12527903E+03 0.17741301E+03 0.80419002E+02 0.0000E+00 0.9000E+01
      -13  1    4    4    0    0 0.59235571E+02 0.19901793E+02 0.30308354E+03 0.30945852E+03 0.10565837E+00 0.0000E+00 0.9000E+01
       13  1    4    4    0    0 -.75301261E+01 0.43502055E+02 0.64829193E+02 0.78434476E+02 0.10565837E+00 0.0000E+00 0.9000E+01
      -24  1    3    3    0    0 -.12293085E+03 0.17134748E+01 -.25209134E+02 0.14905585E+03 0.80419002E+02 0.0000E+00 0.9000E+01
#aMCatNLO 1  0  0  1  2 0.11179633D+02 0.00000000D+00  -5  7  0 0.00000000D+00 0.00000000D+00 0.00000000D+00 0.00000000D+00 0.00000000D+00
  <mgrwgt>
 0.1635792432D-04    7    2    0
 0.269863449849170D+03 0.000000000000000D+00 0.000000000000000D+00 0.269863449849170D+03
 0.269863449849170D+03 0.000000000000000D+00 0.000000000000000D+00 -.269863449849170D+03
 0.126191000139914D+03 0.712254082484849D+02 -.651173226403111D+02 0.119844930612706D+02
 0.146792027183176D+03 0.592356598154478D+02 0.199017626473846D+02 0.132826788315844D+03
 0.476010938496355D+02 -.753021424471834D+01 0.435020856782836D+02 0.177968691277348D+02
 0.219142778525614D+03 -.122930853819214D+03 0.171347431464292D+01 -.162608150504849D+03
 0.000000000000000D+00 -.000000000000000D+00 0.000000000000000D+00 0.000000000000000D+00
 0.697068753020982D+03 0.000000000000000D+00 0.000000000000000D+00 0.697068753020982D+03
 0.269994486480295D+03 0.000000000000000D+00 0.000000000000000D+00 -.269994486480295D+03
 0.127985894761783D+03 0.721143910647076D+02 -.675948210370764D+02 0.119844930612706D+02
 0.146849899531331D+03 0.602626714447806D+02 0.170395929645753D+02 0.132826788315844D+03
 0.467104919080288D+02 -.720035979771320D+01 0.425828172191997D+02 0.177968691277348D+02
 0.218296385747532D+03 -.121400911845802D+03 -.255030752354578D+01 -.162608150504849D+03
 0.427220567552603D+03 -.377579086597284D+01 0.105227183768472D+02 0.427074266540688D+03
0.427377575898D-05 0.000000000000D+00 0.000000000000D+00 0.123255943799D-05 0.000000000000D+00  7 -4 4 24 -13 13 -24 21 0 0.90949575D-01 0.18952249D-01 0.35942059D+05 0.35942059D+05 0.35942059D+05 0.11601235D+01  1  2  2  1  7  1       -4 0.238970280325D-04 0.100000000000D+01
-.201442329016D-06 0.000000000000D+00 -.164124242255D-07 0.123255943799D-05 0.000000000000D+00  7 -4 4 24 -13 13 -24 21 2 0.90949575D-01 0.18952249D-01 0.35942059D+05 0.35942059D+05 0.35942059D+05 0.11601235D+01  1  2  3  1  7  1       -4 -.151597268679D-05 0.100000000000D+01
0.253984662823D-06 0.000000000000D+00 0.000000000000D+00 0.123255943799D-05 0.000000000000D+00  7 -4 4 24 -13 13 -24 21 2 0.90949575D-01 0.18952249D-01 0.35942059D+05 0.35942059D+05 0.35942059D+05 0.11601235D+01  1  2 15  1  7  1       -4 0.191138482952D-05 0.100000000000D+01
0.135837887304D-02 0.000000000000D+00 0.000000000000D+00 0.123255943799D-05 0.000000000000D+00  7 -4 4 24 -13 13 -24 21 2 0.23490807D+00 0.18952249D-01 0.38036487D+05 0.38036487D+05 0.38036487D+05 0.11578912D+01  1  2 12  1  7  1       -4 0.465990500526D-03 0.100000000000D+01
-.135641025213D-02 0.000000000000D+00 -.120071758597D-05 0.123255943799D-05 0.000000000000D+00  7 -4 4 24 -13 13 -24 21 2 0.23495104D+00 0.18952249D-01 0.35942059D+05 0.35942059D+05 0.35942059D+05 0.11601235D+01  1  2  5  1  7  1       -4 -.466402794645D-03 0.100000000000D+01
0.142649841760D-03 0.000000000000D+00 0.000000000000D+00 0.123255943799D-05 0.000000000000D+00  7 21 4 24 -13 13 -24 4 2 0.23490807D+00 0.18952249D-01 0.38036487D+05 0.38036487D+05 0.38036487D+05 0.11578912D+01  1  2 12  3  7  1       -4 0.161241871097D-02 0.100000000000D+01
-.142402347326D-03 0.000000000000D+00 -.126121335735D-06 0.123255943799D-05 0.000000000000D+00  7 21 4 24 -13 13 -24 4 2 0.23495104D+00 0.18952249D-01 0.35942059D+05 0.35942059D+05 0.35942059D+05 0.11601235D+01  1  2  5  3  7  1       -4 -.161994093271D-02 0.100000000000D+01
  </mgrwgt>
  </event>
  <event>
  8     66 0.27011060E-05 0.19880803E+03 0.75467711E-02 0.99650094E-01
       -2 -1    0    0    0  501 0.00000000E+00 0.00000000E+00 0.82772605E+02 0.82773223E+02 0.32000000E+00 0.0000E+00 0.9000E+01
        2 -1    0    0  501    0 0.00000000E+00 0.00000000E+00 -.14324192E+04 0.14324192E+04 0.32000000E+00 0.0000E+00 0.9000E+01
       25  2    1    2    0    0 0.10675038E+03 0.20156076E+03 -.47496073E+03 0.60665876E+03 0.30070713E+03 0.0000E+00 0.0000E+00
       23  2    1    2    0    0 -.10675038E+03 -.20156076E+03 -.87468588E+03 0.90853371E+03 0.91300215E+02 0.0000E+00 0.0000E+00
       24  1    3    3    0    0 0.14579048E+03 0.32848555E+02 -.31401948E+03 0.35694445E+03 0.80419002E+02 0.0000E+00 0.9000E+01
      -11  1    4    4    0    0 -.58830268E+01 -.71188282E+02 -.39261176E+03 0.39905686E+03 0.51099893E-03 0.0000E+00 0.9000E+01
       11  1    4    4    0    0 -.10086735E+03 -.13037247E+03 -.48207412E+03 0.50947685E+03 0.51099893E-03 0.0000E+00 0.9000E+01
      -24  1    3    3    0    0 -.39040102E+02 0.16871220E+03 -.16094125E+03 0.24971431E+03 0.80419002E+02 0.0000E+00 0.9000E+01
#aMCatNLO 1  0  0  1  2 0.57625303D+02 0.00000000D+00  -5  7  0 0.00000000D+00 0.00000000D+00 0.00000000D+00 0.00000000D+00 0.00000000D+00
  <mgrwgt>
 0.9236939730D-03    9    2    0
 0.344333508210443D+03 0.000000000000000D+00 0.000000000000000D+00 0.344333508210443D+03
 0.344333508210443D+03 0.000000000000000D+00 0.000000000000000D+00 -.344333508210443D+03
 0.169928596745703D+03 0.145790480317066D+03 0.328485546762611D+02 0.863830667393849D+01
 0.108558729346359D+03 -.588302679208256D+01 -.711882824907470D+02 -.817472699793537D+02
 0.176174820768265D+03 -.100867351947728D+03 -.130372473059452D+03 -.621800856556641D+02
 0.234004869560559D+03 -.390401015772556D+02 0.168712200873938D+03 0.135289048961079D+03
 0.000000000000000D+00 -.000000000000000D+00 0.000000000000000D+00 0.000000000000000D+00
 0.529074217364941D+03 0.000000000000000D+00 0.000000000000000D+00 0.529074217364941D+03
 0.350060038353138D+03 0.000000000000000D+00 0.000000000000000D+00 -.350060038353138D+03
 0.172517785346458D+03 0.151120208584999D+03 0.195763255364602D+02 0.863830667393849D+01
 0.114282420142567D+03 -.241479691494512D+01 -.798249595078156D+02 -.817472699793537D+02
 0.183768667582837D+03 -.952653041964782D+02 -.144322839319971D+03 -.621800856556641D+02
 0.220504882098368D+03 -.319662541134050D+02 0.151096720361524D+03 0.135289048961079D+03
 0.188060500547849D+03 -.214738533601702D+02 0.534747529298025D+02 0.179014179011804D+03
0.109683540984D-04 0.000000000000D+00 0.000000000000D+00 0.662349814326D-06 0.000000000000D+00  7 -2 2 24 -11 11 -24 21 0 0.12734297D-01 0.22037224D+00 0.89075111D+05 0.89075111D+05 0.89075111D+05 0.11258686D+01  1  2  2  1  7  1       -2 0.822764928148D-03 0.100000000000D+01
-.594204127952D-06 0.000000000000D+00 -.421213677717D-07 0.662349814326D-06 0.000000000000D+00  7 -2 2 24 -11 11 -24 21 2 0.12734297D-01 0.22037224D+00 0.89075111D+05 0.89075111D+05 0.89075111D+05 0.11258686D+01  1  2  3  1  7  1       -2 -.564995998090D-04 0.100000000000D+01
0.646677998699D-06 0.000000000000D+00 0.000000000000D+00 0.662349814326D-06 0.000000000000D+00  7 -2 2 24 -11 11 -24 21 2 0.12734297D-01 0.22037224D+00 0.89075111D+05 0.89075111D+05 0.89075111D+05 0.11258686D+01  1  2 15  1  7  1       -2 0.614890513429D-04 0.100000000000D+01
0.589344030625D-04 0.000000000000D+00 0.000000000000D+00 0.662349814326D-06 0.000000000000D+00  7 -2 2 24 -11 11 -24 21 2 0.19625996D-01 0.22037224D+00 0.10786030D+06 0.10786030D+06 0.10786030D+06 0.11190353D+01  1  2 12  1  7  1       -2 0.275089339087D-02 0.100000000000D+01
-.555282436822D-04 0.000000000000D+00 0.000000000000D+00 0.662349814326D-06 0.000000000000D+00  7 -2 2 24 -11 11 -24 21 2 0.12734297D-01 0.22037224D+00 0.89075111D+05 0.89075111D+05 0.89075111D+05 0.11258686D+01  1  2  4  1  7  1       -2 -.527987504387D-02 0.100000000000D+01
-.615975287023D-04 0.000000000000D+00 -.425522035639D-05 0.662349814326D-06 0.000000000000D+00  7 -2 2 24 -11 11 -24 21 2 0.19793617D-01 0.22037224D+00 0.89075111D+05 0.89075111D+05 0.89075111D+05 0.11258686D+01  1  2  5  1  7  1       -2 -.288203579732D-02 0.100000000000D+01
0.581124751199D-04 0.000000000000D+00 0.387241540458D-05 0.662349814326D-06 0.000000000000D+00  7 -2 2 24 -11 11 -24 21 2 0.12734297D-01 0.22037224D+00 0.89075111D+05 0.89075111D+05 0.89075111D+05 0.11258686D+01  1  2  6  1  7  1       -2 0.552559538673D-02 0.100000000000D+01
0.297267214527D-05 0.000000000000D+00 0.000000000000D+00 0.662349814326D-06 0.000000000000D+00  7 21 2 24 -11 11 -24 2 2 0.19625996D-01 0.22037224D+00 0.10786030D+06 0.10786030D+06 0.10786030D+06 0.11190353D+01  1  2 12  3  7  1       -2 0.178382675848D-02 0.100000000000D+01
-.298763973949D-05 0.000000000000D+00 -.217795599993D-06 0.662349814326D-06 0.000000000000D+00  7 21 2 24 -11 11 -24 2 2 0.19793617D-01 0.22037224D+00 0.89075111D+05 0.89075111D+05 0.89075111D+05 0.11258686D+01  1  2  5  3  7  1       -2 -.180246510158D-02 0.100000000000D+01
  </mgrwgt>
  </event>
  <event>
  8     66 0.27011060E-05 0.31052349E+03 0.75467711E-02 0.87808687E-01
       -2 -1    0    0    0  501 0.00000000E+00 0.00000000E+00 0.54714606E+03 0.54714615E+03 0.32000000E+00 0.0000E+00 0.9000E+01
        2 -1    0    0  501    0 0.00000000E+00 0.00000000E+00 -.93711648E+03 0.93711654E+03 0.32000000E+00 0.0000E+00 0.9000E+01
       25  2    1    2    0    0 0.40261068E+02 0.25862085E+03 -.85556292E+03 0.94409050E+03 0.30135240E+03 0.0000E+00 0.0000E+00
       23  2    1    2    0    0 -.40261068E+02 -.25862085E+03 0.46559250E+03 0.54017218E+03 0.80646865E+02 0.0000E+00 0.0000E+00
       24  1    3    3    0    0 -.61720373E+02 0.74132544E+02 -.55060115E+03 0.56474232E+03 0.80419002E+02 0.0000E+00 0.9000E+01
      -11  1    4    4    0    0 -.71352980E+01 -.21475331E+03 0.40421995E+03 0.45778124E+03 0.51099893E-03 0.0000E+00 0.9000E+01
       11  1    4    4    0    0 -.33125770E+02 -.43867547E+02 0.61372542E+02 0.82390941E+02 0.51099893E-03 0.0000E+00 0.9000E+01
      -24  1    3    3    0    0 0.10198144E+03 0.18448831E+03 -.30496177E+03 0.37934818E+03 0.80419002E+02 0.0000E+00 0.9000E+01
#aMCatNLO 1  0  0  1  1 0.87508852D+03 0.00000000D+00  -5  7  0 0.00000000D+00 0.00000000D+00 0.00000000D+00 0.00000000D+00 0.00000000D+00
  <mgrwgt>
 0.1705956043D-02    5    2    0
 0.716058446423367D+03 0.000000000000000D+00 0.000000000000000D+00 0.716058446423367D+03
 0.716058446423367D+03 0.000000000000000D+00 0.000000000000000D+00 -.716058446423367D+03
 0.435374925409543D+03 -.617203728573135D+02 0.741325443974392D+02 -.416868169996835D+03
 0.584520335629718D+03 -.713529795658379D+01 -.214753308083974D+03 0.543593714969865D+03
 0.102102891201448D+03 -.331257695897883D+02 -.438675465737759D+02 0.860425600408109D+02
 0.310118740606024D+03 0.101981440403686D+03 0.184488310260311D+03 -.212768105013841D+03
 0.000000000000000D+00 -.000000000000000D+00 -.000000000000000D+00 0.000000000000000D+00
 0.200097995811824D+04 0.000000000000000D+00 0.000000000000000D+00 0.200097995811824D+04
 0.100393696048329D+04 0.000000000000000D+00 0.000000000000000D+00 -.100393696048329D+04
 0.483351698434076D+03 0.190469987101121D+03 0.130781349136351D+03 -.416868169996835D+03
 0.651992271597135D+03 0.332287280443367D+03 -.138509777716970D+03 0.543593714969865D+03
 0.940315594035769D+02 0.207131161185575D+02 -.317738704937095D+02 0.860425600408109D+02
 0.448938716277525D+03 0.310342631113208D+03 0.231291893115803D+03 -.212768105013841D+03
 0.132660267288921D+04 -.853813014776254D+03 -.191789594041475D+03 0.997042997634951D+03
0.345395550117D-03 0.000000000000D+00 0.000000000000D+00 0.356961689973D-07 0.000000000000D+00  7 -2 2 24 -11 11 -24 21 0 0.84176328D-01 0.14417178D+00 0.96424840D+05 0.96424840D+05 0.96424840D+05 0.11230218D+01  1  2  2  1  7  1       -2 0.157370149189D-02 0.100000000000D+01
-.290239683990D-05 0.000000000000D+00 -.132640985719D-05 0.356961689973D-07 0.000000000000D+00  7 -2 2 24 -11 11 -24 21 2 0.84176328D-01 0.14417178D+00 0.96424840D+05 0.96424840D+05 0.96424840D+05 0.11230218D+01  1  2  3  1  7  1       -2 -.166778020341D-04 0.100000000000D+01
0.178693060329D-04 0.000000000000D+00 0.000000000000D+00 0.356961689973D-07 0.000000000000D+00  7 -2 2 24 -11 11 -24 21 2 0.84176328D-01 0.14417178D+00 0.96424840D+05 0.96424840D+05 0.96424840D+05 0.11230218D+01  1  2 15  1  7  1       -2 0.102680909931D-03 0.100000000000D+01
0.106850839748D-03 0.000000000000D+00 -.104468756743D-03 0.356961689973D-07 0.000000000000D+00  7 -2 2 24 -11 11 -24 21 2 0.27905024D+00 0.14417178D+00 0.96424840D+05 0.96424840D+05 0.96424840D+05 0.11230218D+01  1  2  5  1  7  1       -2 0.196762190427D-04 0.100000000000D+01
0.189206056528D-04 0.000000000000D+00 -.145113308658D-04 0.356961689973D-07 0.000000000000D+00  7 21 2 24 -11 11 -24 2 2 0.27905024D+00 0.14417178D+00 0.96424840D+05 0.96424840D+05 0.96424840D+05 0.11230218D+01  1  2  5  3  7  1       -2 0.265752242401D-04 0.100000000000D+01
  </mgrwgt>
  </event>
  <event>
  8     66 0.27011060E-05 0.17496441E+03 0.75467711E-02 0.98019431E-01
       -2 -1    0    0    0  501 0.00000000E+00 0.00000000E+00 0.11526451E+03 0.11526495E+03 0.32000000E+00 0.0000E+00 0.9000E+01
        2 -1    0    0  501    0 0.00000000E+00 0.00000000E+00 -.13218594E+04 0.13218594E+04 0.32000000E+00 0.0000E+00 0.9000E+01
       25  2    1    2    0    0 0.30374419E+03 0.54253627E+02 -.87524743E+03 0.97548725E+03 0.30052175E+03 0.0000E+00 0.0000E+00
       23  2    1    2    0    0 -.30374419E+03 -.54253627E+02 -.33134743E+03 0.46163711E+03 0.90076168E+02 0.0000E+00 0.0000E+00
       24  1    3    3    0    0 -.13448569E+02 0.62986140E+02 -.19331565E+03 0.21905770E+03 0.80419002E+02 0.0000E+00 0.9000E+01
      -13  1    4    4    0    0 -.40589509E+02 -.12026053E+02 -.88277755E+01 0.43244364E+02 0.10565837E+00 0.0000E+00 0.9000E+01
       13  1    4    4    0    0 -.26315468E+03 -.42227574E+02 -.32251966E+03 0.41839275E+03 0.10565837E+00 0.0000E+00 0.9000E+01
      -24  1    3    3    0    0 0.31719276E+03 -.87325132E+01 -.68193178E+03 0.75642955E+03 0.80419002E+02 0.0000E+00 0.9000E+01
#aMCatNLO 1  0  0  2  1 0.10074311D+02 0.00000000D+00  -5  7  0 0.00000000D+00 0.00000000D+00 0.00000000D+00 0.00000000D+00 0.00000000D+00
  <mgrwgt>
 0.2492463270D-03    9    2    0
 0.390338083042956D+03 0.000000000000000D+00 0.000000000000000D+00 0.390338083042956D+03
 0.390338083042956D+03 0.000000000000000D+00 0.000000000000000D+00 -.390338083042956D+03
 0.104472873753923D+03 -.134485692282421D+02 0.629861399992954D+02 -.172987730702208D+02
 0.659630221404438D+02 -.405892033597176D+02 -.120260112703522D+02 0.505866772327413D+02
 0.271728642125236D+03 -.263154984815618D+03 -.422276155145664D+02 0.529408859566069D+02
 0.338511628066309D+03 0.317192757403578D+03 -.873251321437669D+01 -.862287901191273D+02
 0.000000000000000D+00 -.000000000000000D+00 -.000000000000000D+00 -.000000000000000D+00
 0.390488829362916D+03 0.000000000000000D+00 0.000000000000000D+00 0.390488829362916D+03
 0.604947343445862D+03 0.000000000000000D+00 0.000000000000000D+00 -.604947343445862D+03
 0.105219378815764D+03 -.130901946642957D+02 0.642907534402937D+02 -.172987730702208D+02
 0.656801231488093D+02 -.403642186298984D+02 -.112069852231092D+02 0.505866772327413D+02
 0.270326273566371D+03 -.262228585811051D+03 -.388551870146844D+02 0.529408859566069D+02
 0.339515390315111D+03 0.318351539543016D+03 -.451412578851584D+01 -.862287901191273D+02
 0.214695006962723D+03 -.266854043777096D+01 -.971445541398427D+01 -.214458514082947D+03
0.517623481494D-05 0.000000000000D+00 0.000000000000D+00 0.940031367480D-06 0.000000000000D+00  7 -2 2 24 -13 13 -24 21 0 0.17733039D-01 0.20336302D+00 0.13661544D+06 0.13661544D+06 0.13661544D+06 0.11107695D+01  1  2  2  2  7  2        2 0.260927435385D-03 0.100000000000D+01
-.286528147740D-06 0.000000000000D+00 -.198781046233D-07 0.940031367480D-06 0.000000000000D+00  7 -2 2 24 -13 13 -24 21 2 0.17733039D-01 0.20336302D+00 0.13661544D+06 0.13661544D+06 0.13661544D+06 0.11107695D+01  1  2  3  2  7  2        2 -.178205427195D-04 0.100000000000D+01
0.334976649751D-06 0.000000000000D+00 0.000000000000D+00 0.940031367480D-06 0.000000000000D+00  7 -2 2 24 -13 13 -24 21 2 0.17733039D-01 0.20336302D+00 0.13661544D+06 0.13661544D+06 0.13661544D+06 0.11107695D+01  1  2 15  2  7  2        2 0.208337845479D-04 0.100000000000D+01
0.107397425919D-02 0.000000000000D+00 0.000000000000D+00 0.940031367480D-06 0.000000000000D+00  7 -2 2 24 -13 13 -24 21 2 0.17733039D-01 0.31519422D+00 0.14033547D+06 0.14033547D+06 0.14033547D+06 0.11098417D+01  1  2 12  2  7  2        2 0.269300206513D-01 0.100000000000D+01
-.979057608241D-03 0.000000000000D+00 0.000000000000D+00 0.940031367480D-06 0.000000000000D+00  7 -2 2 24 -13 13 -24 21 2 0.17733039D-01 0.20336302D+00 0.13661544D+06 0.13661544D+06 0.13661544D+06 0.11107695D+01  1  2  4  2  7  2        2 -.608922302053D-01 0.100000000000D+01
-.107505546746D-02 0.000000000000D+00 -.183170087682D-05 0.940031367480D-06 0.000000000000D+00  7 -2 2 24 -13 13 -24 21 2 0.17733039D-01 0.31520546D+00 0.13661544D+06 0.13661544D+06 0.13661544D+06 0.11107695D+01  1  2  5  2  7  2        2 -.270250975585D-01 0.100000000000D+01
0.980366377951D-03 0.000000000000D+00 0.166886885874D-05 0.940031367480D-06 0.000000000000D+00  7 -2 2 24 -13 13 -24 21 2 0.17733039D-01 0.20336302D+00 0.13661544D+06 0.13661544D+06 0.13661544D+06 0.11107695D+01  1  2  6  2  7  2        2 0.609736287929D-01 0.100000000000D+01
0.547006018936D-04 0.000000000000D+00 0.000000000000D+00 0.940031367480D-06 0.000000000000D+00  7 -2 21 24 -13 13 -24 -2 2 0.17733039D-01 0.31519422D+00 0.14033547D+06 0.14033547D+06 0.14033547D+06 0.11098417D+01  1  2 12  4  7  2        2 0.269092980699D-03 0.100000000000D+01
-.546885242039D-04 0.000000000000D+00 -.932995097138D-07 0.940031367480D-06 0.000000000000D+00  7 -2 21 24 -13 13 -24 -2 2 0.17733039D-01 0.31520546D+00 0.13661544D+06 0.13661544D+06 0.13661544D+06 0.11107695D+01  1  2  5  4  7  2        2 -.270109011404D-03 0.100000000000D+01
  </mgrwgt>
  </event>
  <event>
  8     66 0.27011060E-05 0.10458698E+03 0.75467711E-02 0.92251213E-01
       -2 -1    0    0    0  501 0.00000000E+00 0.00000000E+00 0.68250912E+03 0.68250920E+03 0.32000000E+00 0.0000E+00 0.9000E+01
        2 -1    0    0  501    0 0.00000000E+00 0.00000000E+00 -.13818734E+04 0.13818734E+04 0.32000000E+00 0.0000E+00 0.9000E+01
       25  2    1    2    0    0 -.39201934E+03 -.26713773E+02 -.12700529E+04 0.13629962E+04 0.30055181E+03 0.0000E+00 0.0000E+00
       23  2    1    2    0    0 0.39201934E+03 0.26713773E+02 0.57068868E+03 0.70138642E+03 0.10892454E+03 0.0000E+00 0.0000E+00
       24  1    3    3    0    0 -.32940782E+03 0.59438443E+02 -.73613511E+03 0.81265279E+03 0.80419002E+02 0.0000E+00 0.9000E+01
      -13  1    4    4    0    0 0.36596940E+03 0.36551637E+02 0.56302036E+03 0.67250394E+03 0.10565837E+00 0.0000E+00 0.9000E+01
       13  1    4    4    0    0 0.26049942E+02 -.98378632E+01 0.76683204E+01 0.28882475E+02 0.10565837E+00 0.0000E+00 0.9000E+01
      -24  1    3    3    0    0 -.62611522E+02 -.86152216E+02 -.53391783E+03 0.55034341E+03 0.80419002E+02 0.0000E+00 0.9000E+01
#aMCatNLO 1  0  0  1  2 0.36507075D+03 0.00000000D+00  -5  7  0 0.00000000D+00 0.00000000D+00 0.00000000D+00 0.00000000D+00 0.00000000D+00
  <mgrwgt>
 0.7787055364D-03    9    2    0
 0.971154624729780D+03 0.000000000000000D+00 0.000000000000000D+00 0.971154624729780D+03
 0.971154624729780D+03 0.000000000000000D+00 0.000000000000000D+00 -.971154624729780D+03
 0.598668673048353D+03 -.329407818413190D+03 0.594384431125516D+02 -.489790286534680D+03
 0.917497242764991D+03 0.365969718073992D+03 0.365516796566321D+02 0.840554180673966D+03
 0.334580150346536D+02 0.260496219916915D+02 -.983790634655429D+01 0.185491660962296D+02
 0.392685318611562D+03 -.626115216524937D+02 -.861522164226294D+02 -.369313060235516D+03
 0.000000000000000D+00 0.000000000000000D+00 -.000000000000000D+00 0.000000000000000D+00
 0.126373840748903D+04 0.000000000000000D+00 0.000000000000000D+00 0.126373840748903D+04
 0.110906649445677D+04 0.000000000000000D+00 0.000000000000000D+00 -.110906649445677D+04
 0.671537589443263D+03 -.442166917724268D+03 0.953383981793030D+02 -.489790286534680D+03
 0.870102590256280D+03 0.207280414570861D+03 0.870747762416794D+02 0.840554180673966D+03
 0.288174560348409D+02 0.205212867643130D+02 -.807780904647474D+01 0.185491660962296D+02
 0.405862649777094D+03 -.133500441295802D+03 -.635827825988943D+02 -.369313060235516D+03
 0.396484616434322D+03 0.347865657684896D+03 -.110752582775613D+03 0.154671913032254D+03
0.690555172515D-03 0.000000000000D+00 0.000000000000D+00 0.148184226128D-06 0.000000000000D+00  7 -2 2 24 -13 13 -24 21 0 0.10500141D+00 0.21259591D+00 0.19068110D+06 0.19068110D+06 0.19068110D+06 0.10994205D+01  1  2  2  1  7  1       -2 0.997428657574D-03 0.100000000000D+01
-.856292768232D-05 0.000000000000D+00 -.265191368981D-05 0.148184226128D-06 0.000000000000D+00  7 -2 2 24 -13 13 -24 21 2 0.10500141D+00 0.21259591D+00 0.19068110D+06 0.19068110D+06 0.19068110D+06 0.10994205D+01  1  2  3  1  7  1       -2 -.149497307738D-04 0.100000000000D+01
0.390400597486D-04 0.000000000000D+00 0.000000000000D+00 0.148184226128D-06 0.000000000000D+00  7 -2 2 24 -13 13 -24 21 2 0.10500141D+00 0.21259591D+00 0.19068110D+06 0.19068110D+06 0.19068110D+06 0.10994205D+01  1  2 15  1  7  1       -2 0.681587424636D-04 0.100000000000D+01
0.217545701092D-04 0.000000000000D+00 0.000000000000D+00 0.148184226128D-06 0.000000000000D+00  7 -2 2 24 -13 13 -24 21 2 0.14230995D+00 0.21259591D+00 0.38421119D+06 0.38421119D+06 0.38421119D+06 0.10766907D+01  1  2 12  1  7  1       -2 0.159747170041D-04 0.100000000000D+01
-.437186784888D-03 0.000000000000D+00 0.000000000000D+00 0.148184226128D-06 0.000000000000D+00  7 -2 2 24 -13 13 -24 21 2 0.10500141D+00 0.21259591D+00 0.19068110D+06 0.19068110D+06 0.19068110D+06 0.10994205D+01  1  2  4  1  7  1       -2 -.763269873858D-03 0.100000000000D+01
-.336214588987D-03 0.000000000000D+00 -.279844084251D-03 0.148184226128D-06 0.000000000000D+00  7 -2 2 24 -13 13 -24 21 2 0.14994755D+00 0.21259591D+00 0.19068110D+06 0.19068110D+06 0.19068110D+06 0.10994205D+01  1  2  5  1  7  1       -2 -.233271888260D-03 0.100000000000D+01
0.425499702601D-03 0.000000000000D+00 0.262973422642D-03 0.148184226128D-06 0.000000000000D+00  7 -2 2 24 -13 13 -24 21 2 0.10500141D+00 0.21259591D+00 0.19068110D+06 0.19068110D+06 0.19068110D+06 0.10994205D+01  1  2  6  1  7  1       -2 0.742865785419D-03 0.100000000000D+01
0.849079473566D-06 0.000000000000D+00 0.000000000000D+00 0.148184226128D-06 0.000000000000D+00  7 21 2 24 -13 13 -24 2 2 0.14230995D+00 0.21259591D+00 0.38421119D+06 0.38421119D+06 0.38421119D+06 0.10766907D+01  1  2 12  3  7  1       -2 0.532518375887D-05 0.100000000000D+01
-.659060017316D-05 0.000000000000D+00 -.122459012026D-04 0.148184226128D-06 0.000000000000D+00  7 21 2 24 -13 13 -24 2 2 0.14994755D+00 0.21259591D+00 0.19068110D+06 0.19068110D+06 0.19068110D+06 0.10994205D+01  1  2  5  3  7  1       -2 -.395560568903D-04 0.100000000000D+01
  </mgrwgt>
  </event>
  <event>
  9     66 0.27011060E-05 0.25308449E+03 0.75467711E-02 0.10252682E+00
       21 -1    0    0  502  501 0.00000000E+00 0.00000000E+00 0.11691885E+03 0.11692125E+03 0.75000000E+00 0.0000E+00 0.9000E+01
        2 -1    0    0  501    0 0.00000000E+00 0.00000000E+00 -.84860667E+03 0.84860673E+03 0.32000000E+00 0.0000E+00 0.9000E+01
       25  2    1    2    0    0 0.30225407E+01 -.18777909E+03 -.50539490E+03 0.61728514E+03 0.30057746E+03 0.0000E+00 0.0000E+00
       23  2    1    2    0    0 -.56086782E+00 0.20869274E+03 -.16072964E+03 0.27938003E+03 0.93092490E+02 0.0000E+00 0.0000E+00
       24  1    3    3    0    0 0.58060801E+02 -.13286240E+03 -.93242368E+02 0.19022310E+03 0.80419002E+02 0.0000E+00 0.9000E+01
      -13  1    4    4    0    0 -.34121291E+02 0.18036059E+03 -.13976170E+03 0.23071096E+03 0.10565837E+00 0.0000E+00 0.9000E+01
       13  1    4    4    0    0 0.33560423E+02 0.28332155E+02 -.20967938E+02 0.48669072E+02 0.10565837E+00 0.0000E+00 0.9000E+01
      -24  1    3    3    0    0 -.55038260E+02 -.54916689E+02 -.41215253E+03 0.42706203E+03 0.80419002E+02 0.0000E+00 0.9000E+01
        2  1    1    2  502    0 -.24616729E+01 -.20913650E+02 -.65563275E+02 0.68862806E+02 0.32000000E+00 0.0000E+00 0.9000E+01
#aMCatNLO 2  0  0  1  2 0.21058029D+02 0.00000000D+00  -5  7  0 0.00000000D+00 0.00000000D+00 0.00000000D+00 0.00000000D+00 0.00000000D+00
  <mgrwgt>
 0.1587719787D-03    1    2    0
 0.299934611433236D+03 0.000000000000000D+00 0.000000000000000D+00 0.299934611433236D+03
 0.299934611433236D+03 0.000000000000000D+00 0.000000000000000D+00 -.299934611433236D+03
 0.185192223409591D+03 0.573103058265275D+02 -.139238390642110D+03 0.718132513849794D+02
 0.183513142632748D+03 -.348865922272611D+02 0.173859704475647D+03 0.472525381472467D+02
 0.483394605740301D+02 0.333599502836090D+02 0.266281069202327D+02 0.226883469540643D+02
 0.182824396250102D+03 -.557836638828753D+02 -.612494207537697D+02 -.141754136486290D+03
 0.000000000000000D+00 -.000000000000000D+00 -.000000000000000D+00 -.000000000000000D+00
 0.304413871696500D+03 0.000000000000000D+00 0.000000000000000D+00 0.304413871696500D+03
 0.325933750533867D+03 0.000000000000000D+00 0.000000000000000D+00 -.325933750533867D+03
 0.180687116239417D+03 0.580608010348348D+02 -.132862403746346D+03 0.718132513849794D+02
 0.189544407028639D+03 -.341213730057760D+02 0.180360782263446D+03 0.472525381472467D+02
 0.494344886824212D+02 0.335605051454512D+02 0.283319621305438D+02 0.226883469540643D+02
 0.180572711510731D+03 -.550382602524083D+02 -.549166904081204D+02 -.141754136486290D+03
 0.301088987691592D+02 -.246167292210171D+01 -.209136502395226D+02 -.215198788373676D+02
0.984095547024D-07 0.000000000000D+00 0.000000000000D+00 0.147445988400D-06 0.680243458729D-11  7 21 2 24 -13 13 -24 2 2 0.17987655D-01 0.13055470D+00 0.69221594D+05 0.69221594D+05 0.69221594D+05 0.11350727D+01  1  2  1  3  7  1       -2 0.158771978748D-03 0.100000000000D+01
  </mgrwgt>
  </event>
  <event>
  8     66 0.27011060E-05 0.11456042E+03 0.75467711E-02 0.10398053E+00
       -2 -1    0    0    0  501 0.00000000E+00 0.00000000E+00 0.14344432E+03 0.14344468E+03 0.32000000E+00 0.0000E+00 0.9000E+01
        2 -1    0    0  501    0 0.00000000E+00 0.00000000E+00 -.82309142E+03 0.82309148E+03 0.32000000E+00 0.0000E+00 0.9000E+01
       25  2    1    2    0    0 -.71260072E+02 0.82330629E+02 -.74517288E+03 0.81078499E+03 0.30038867E+03 0.0000E+00 0.0000E+00
       23  2    1    2    0    0 0.71260072E+02 -.82330629E+02 0.65525777E+02 0.15575117E+03 0.90047043E+02 0.0000E+00 0.0000E+00
       24  1    3    3    0    0 0.83416702E+02 0.64903832E+02 -.21808176E+03 0.25533845E+03 0.80419002E+02 0.0000E+00 0.9000E+01
      -13  1    4    4    0    0 0.77267744E+02 -.39831756E+02 0.71316511E+02 0.11244078E+03 0.10565837E+00 0.0000E+00 0.9000E+01
       13  1    4    4    0    0 -.60076728E+01 -.42498872E+02 -.57907341E+01 0.43310392E+02 0.10565837E+00 0.0000E+00 0.9000E+01
      -24  1    3    3    0    0 -.15467677E+03 0.17426797E+02 -.52709112E+03 0.55544654E+03 0.80419002E+02 0.0000E+00 0.9000E+01
#aMCatNLO 1  0  0  2  1 0.31019817D+02 0.00000000D+00  -5  7  0 0.00000000D+00 0.00000000D+00 0.00000000D+00 0.00000000D+00 0.00000000D+00
  <mgrwgt>
 0.1070122280D-02    9    2    0
 0.343610233194577D+03 0.000000000000000D+00 0.000000000000000D+00 0.343610233194577D+03
 0.343610233194577D+03 0.000000000000000D+00 0.000000000000000D+00 -.343610233194577D+03
 0.143440442575802D+03 0.834167018146246D+02 0.649038315440647D+02 -.541949363062750D+02
 0.228672327415161D+03 0.772678589090966D+02 -.398317530971271D+02 0.211504474539619D+03
 0.551864237937459D+02 -.600778716832343D+01 -.424988756009580D+02 0.346885202500386D+02
 0.259921272604445D+03 -.154676773555398D+03 0.174267971540204D+02 -.191998058483382D+03
 0.000000000000000D+00 0.000000000000000D+00 0.000000000000000D+00 -.000000000000000D+00
 0.349948966316380D+03 0.000000000000000D+00 0.000000000000000D+00 0.349948966316380D+03
 0.384127504602547D+03 0.000000000000000D+00 0.000000000000000D+00 -.384127504602547D+03
 0.140397875107611D+03 0.829638313957676D+02 0.585171679018670D+02 -.541949363062750D+02
 0.230451898084784D+03 0.765353158824660D+02 -.501625358546662D+02 0.211504474539619D+03
 0.571753091364289D+02 -.618706284001882D+01 -.450271339430185D+02 0.346885202500386D+02
 0.259895115438335D+03 -.155506152292219D+03 0.573037627178311D+01 -.191998058483382D+03
 0.461562731517665D+02 0.219406785400396D+01 0.309421256240346D+02 -.341785382861668D+02
0.104204902346D-04 0.000000000000D+00 0.000000000000D+00 0.126462230021D-05 0.000000000000D+00  7 -2 2 24 -13 13 -24 21 0 0.22068389D-01 0.12662948D+00 0.47930869D+05 0.47930869D+05 0.47930869D+05 0.11489134D+01  1  2  2  2  7  2        2 0.735499739970D-03 0.100000000000D+01
-.435905105051D-06 0.000000000000D+00 -.400174262791D-07 0.126462230021D-05 0.000000000000D+00  7 -2 2 24 -13 13 -24 21 2 0.22068389D-01 0.12662948D+00 0.47930869D+05 0.47930869D+05 0.47930869D+05 0.11489134D+01  1  2  3  2  7  2        2 -.406126091391D-04 0.100000000000D+01
0.606852791406D-06 0.000000000000D+00 0.000000000000D+00 0.126462230021D-05 0.000000000000D+00  7 -2 2 24 -13 13 -24 21 2 0.22068389D-01 0.12662948D+00 0.47930869D+05 0.47930869D+05 0.47930869D+05 0.11489134D+01  1  2 15  2  7  2        2 0.565395425215D-04 0.100000000000D+01
0.435541145738D-04 0.000000000000D+00 0.000000000000D+00 0.126462230021D-05 0.000000000000D+00  7 -2 2 24 -13 13 -24 21 2 0.22068389D-01 0.14264025D+00 0.55851619D+05 0.55851619D+05 0.55851619D+05 0.11430914D+01  1  2 12  2  7  2        2 0.343970051960D-02 0.100000000000D+01
-.443975720314D-04 0.000000000000D+00 0.000000000000D+00 0.126462230021D-05 0.000000000000D+00  7 -2 2 24 -13 13 -24 21 2 0.22068389D-01 0.12662948D+00 0.47930869D+05 0.47930869D+05 0.47930869D+05 0.11489134D+01  1  2  4  2  7  2        2 -.413645359677D-02 0.100000000000D+01
-.711340637158D-04 0.000000000000D+00 -.115267592325D-04 0.126462230021D-05 0.000000000000D+00  7 -2 2 24 -13 13 -24 21 2 0.22068389D-01 0.14295750D+00 0.47930869D+05 0.47930869D+05 0.47930869D+05 0.11489134D+01  1  2  5  2  7  2        2 -.566700191680D-02 0.100000000000D+01
0.720854964285D-04 0.000000000000D+00 0.114425003064D-04 0.126462230021D-05 0.000000000000D+00  7 -2 2 24 -13 13 -24 21 2 0.22068389D-01 0.12662948D+00 0.47930869D+05 0.47930869D+05 0.47930869D+05 0.11489134D+01  1  2  6  2  7  2        2 0.671609498748D-02 0.100000000000D+01
0.820938090640D-06 0.000000000000D+00 0.000000000000D+00 0.126462230021D-05 0.000000000000D+00  7 -2 21 24 -13 13 -24 -2 2 0.22068389D-01 0.14264025D+00 0.55851619D+05 0.55851619D+05 0.55851619D+05 0.11430914D+01  1  2 12  4  7  2        2 0.548938067538D-04 0.100000000000D+01
-.130742086979D-05 0.000000000000D+00 -.220667261671D-06 0.126462230021D-05 0.000000000000D+00  7 -2 21 24 -13 13 -24 -2 2 0.22068389D-01 0.14295750D+00 0.47930869D+05 0.47930869D+05 0.47930869D+05 0.11489134D+01  1  2  5  4  7  2        2 -.885381938413D-04 0.100000000000D+01
  </mgrwgt>
  </event>
  <event>
  8     66 0.27011060E-05 0.16308020E+03 0.75467711E-02 0.96592443E-01
       -2 -1    0    0    0  501 0.00000000E+00 0.00000000E+00 0.73192329E+03 0.73192336E+03 0.32000000E+00 0.0000E+00 0.9000E+01
        2 -1    0    0  501    0 0.00000000E+00 0.00000000E+00 -.18635183E+03 0.18635210E+03 0.32000000E+00 0.0000E+00 0.9000E+01
       25  2    1    2    0    0 -.23276577E+03 0.18660850E+03 0.36001917E+03 0.55553971E+03 0.30001322E+03 0.0000E+00 0.0000E+00
       23  2    1    2    0    0 0.23276577E+03 -.18660850E+03 0.18555230E+03 0.36273575E+03 0.90249298E+02 0.0000E+00 0.0000E+00
       24  1    3    3    0    0 -.14096756E+03 0.23926714E+03 0.26458855E+03 0.39191189E+03 0.80419002E+02 0.0000E+00 0.9000E+01
      -13  1    4    4    0    0 0.47531004E+02 -.89298324E+02 0.76170535E+02 0.12663076E+03 0.10565837E+00 0.0000E+00 0.9000E+01
       13  1    4    4    0    0 0.18523476E+03 -.97310181E+02 0.10938176E+03 0.23610500E+03 0.10565837E+00 0.0000E+00 0.9000E+01
      -24  1    3    3    0    0 -.91798206E+02 -.52658636E+02 0.95430624E+02 0.16362782E+03 0.80419002E+02 0.0000E+00 0.9000E+01
#aMCatNLO 1  0  0  2  1 0.10413960D+03 0.00000000D+00  -5  7  0 0.00000000D+00 0.00000000D+00 0.00000000D+00 0.00000000D+00 0.00000000D+00
  <mgrwgt>
 0.3158618933D-03    9    2    0
 0.369317478798450D+03 0.000000000000000D+00 0.000000000000000D+00 0.369317478798450D+03
 0.369317478798450D+03 0.000000000000000D+00 0.000000000000000D+00 -.369317478798450D+03
 0.291796525360281D+03 -.140967560317045D+03 0.239267140488386D+03 0.394636374240108D+02
 0.101166797309424D+03 0.475308154605598D+02 -.892983123552709D+02 0.116355919517131D+01
 0.212735625230412D+03 0.185234950770587D+03 -.973101922983886D+02 -.384081466624361D+02
 0.132936009696783D+03 -.917982059141017D+02 -.526586358347261D+02 -.221904995674599D+01
 0.000000000000000D+00 0.000000000000000D+00 0.000000000000000D+00 -.000000000000000D+00
 0.391635334785956D+03 0.000000000000000D+00 0.000000000000000D+00 0.391635334785956D+03
 0.518227153692658D+03 0.000000000000000D+00 0.000000000000000D+00 -.518227153692658D+03
 0.261028639414672D+03 -.141123746318165D+03 0.200488015069971D+03 0.394636374240108D+02
 0.114730355978479D+03 0.474698194799609D+02 -.104442888467754D+03 0.116355919517131D+01
 0.228453994273618D+03 0.185110304414385D+03 -.128258399214791D+03 -.384081466624361D+02
 0.141727126064504D+03 -.918758046551921D+02 -.719254797994686D+02 -.221904995674599D+01
 0.163922372747342D+03 0.419427079011252D+00 0.104138752412043D+03 -.126591818906702D+03
0.182735703774D-04 0.000000000000D+00 0.000000000000D+00 0.615049405553D-06 0.000000000000D+00  7 -2 2 24 -13 13 -24 21 0 0.11260361D+00 0.28669538D-01 0.13411450D+06 0.13411450D+06 0.13411450D+06 0.11114089D+01  1  2  2  2  7  2        2 0.263354905967D-03 0.100000000000D+01
-.101511059341D-05 0.000000000000D+00 -.701753217908D-07 0.615049405553D-06 0.000000000000D+00  7 -2 2 24 -13 13 -24 21 2 0.11260361D+00 0.28669538D-01 0.13411450D+06 0.13411450D+06 0.13411450D+06 0.11114089D+01  1  2  3  2  7  2        2 -.180708719728D-04 0.100000000000D+01
0.111063950088D-05 0.000000000000D+00 0.000000000000D+00 0.615049405553D-06 0.000000000000D+00  7 -2 2 24 -13 13 -24 21 2 0.11260361D+00 0.28669538D-01 0.13411450D+06 0.13411450D+06 0.13411450D+06 0.11114089D+01  1  2 15  2  7  2        2 0.197714656496D-04 0.100000000000D+01
0.286579528003D-04 0.000000000000D+00 0.000000000000D+00 0.615049405553D-06 0.000000000000D+00  7 -2 2 24 -13 13 -24 21 2 0.11260361D+00 0.40827081D-01 0.17800141D+06 0.17800141D+06 0.17800141D+06 0.11017334D+01  1  2 12  2  7  2        2 0.334849095601D-03 0.100000000000D+01
-.299585469987D-04 0.000000000000D+00 0.000000000000D+00 0.615049405553D-06 0.000000000000D+00  7 -2 2 24 -13 13 -24 21 2 0.11260361D+00 0.28669538D-01 0.13411450D+06 0.13411450D+06 0.13411450D+06 0.11114089D+01  1  2  4  2  7  2        2 -.533318311144D-03 0.100000000000D+01
-.389927453772D-04 0.000000000000D+00 -.856368436661D-05 0.615049405553D-06 0.000000000000D+00  7 -2 2 24 -13 13 -24 21 2 0.11260361D+00 0.42164829D-01 0.13411450D+06 0.13411450D+06 0.13411450D+06 0.11114089D+01  1  2  5  2  7  2        2 -.450367081366D-03 0.100000000000D+01
0.398911347161D-04 0.000000000000D+00 0.796377910437D-05 0.615049405553D-06 0.000000000000D+00  7 -2 2 24 -13 13 -24 21 2 0.11260361D+00 0.28669538D-01 0.13411450D+06 0.13411450D+06 0.13411450D+06 0.11114089D+01  1  2  6  2  7  2        2 0.710136996875D-03 0.100000000000D+01
0.124693599703D-05 0.000000000000D+00 0.000000000000D+00 0.615049405553D-06 0.000000000000D+00  7 -2 21 24 -13 13 -24 -2 2 0.11260361D+00 0.40827081D-01 0.17800141D+06 0.17800141D+06 0.17800141D+06 0.11017334D+01  1  2 12  4  7  2        2 0.564242571296D-04 0.100000000000D+01
-.152933390093D-05 0.000000000000D+00 -.396956849192D-06 0.615049405553D-06 0.000000000000D+00  7 -2 21 24 -13 13 -24 -2 2 0.11260361D+00 0.42164829D-01 0.13411450D+06 0.13411450D+06 0.13411450D+06 0.11114089D+01  1  2  5  4  7  2        2 -.669185634513D-04 0.100000000000D+01
  </mgrwgt>
  </event>
  <event>
  8     66 0.27011060E-05 0.69076285E+03 0.75467711E-02 0.82926414E-01
       -2 -1    0    0    0  501 0.00000000E+00 0.00000000E+00 0.41069014E+03 0.41069027E+03 0.32000000E+00 0.0000E+00 0.9000E+01
        2 -1    0    0  501    0 0.00000000E+00 0.00000000E+00 -.15701062E+04 0.15701063E+04 0.32000000E+00 0.0000E+00 0.9000E+01
       25  2    1    2    0    0 -.60350569E+03 -.29256062E+03 -.10701036E+04 0.12981556E+04 0.30045861E+03 0.0000E+00 0.0000E+00
       23  2    1    2    0    0 0.60350569E+03 0.29256062E+03 -.89312482E+02 0.68264094E+03 0.90615102E+02 0.0000E+00 0.0000E+00
       24  1    3    3    0    0 -.75029433E+02 -.70170450E+02 -.35401584E+03 0.37729000E+03 0.80419002E+02 0.0000E+00 0.9000E+01
      -11  1    4    4    0    0 0.40238659E+03 0.17203206E+03 -.19725084E+02 0.43806287E+03 0.51099893E-03 0.0000E+00 0.9000E+01
       11  1    4    4    0    0 0.20111910E+03 0.12052857E+03 -.69587398E+02 0.24457807E+03 0.51099893E-03 0.0000E+00 0.9000E+01
      -24  1    3    3    0    0 -.52847626E+03 -.22239017E+03 -.71608775E+03 0.92086559E+03 0.80419002E+02 0.0000E+00 0.9000E+01
#aMCatNLO 1  0  0  2  1 0.13397198D+04 0.00000000D+00  -5  7  0 0.00000000D+00 0.00000000D+00 0.00000000D+00 0.00000000D+00 0.00000000D+00
  <mgrwgt>
 0.1057391997D-02    3    2    0
 0.803011399489610D+03 0.000000000000000D+00 0.000000000000000D+00 0.803011399489610D+03
 0.803011399489610D+03 0.000000000000000D+00 0.000000000000000D+00 -.803011399489610D+03
 0.209762310558132D+03 -.750294332621024D+02 -.701704498158673D+02 -.164254994119881D+03
 0.526047218606152D+03 0.402386590266422D+03 0.172032058360168D+03 0.291917246961182D+03
 0.251415266223438D+03 0.201119101101057D+03 0.120528565702858D+03 0.907392313837663D+02
 0.618798003591499D+03 -.528476258105376D+03 -.222390174247159D+03 -.218401484225067D+03
 0.000000000000000D+00 0.000000000000000D+00 -.000000000000000D+00 0.000000000000000D+00
 0.953531646452397D+04 0.000000000000000D+00 0.000000000000000D+00 0.953531646452397D+04
 0.109857882659714D+04 0.000000000000000D+00 0.000000000000000D+00 -.109857882659714D+04
 0.218509096054627D+03 -.843864151591410D+02 0.847244884759224D+02 -.164254994119881D+03
 0.808052112457151D+03 0.373238851013080D+03 0.654542051718226D+03 0.291917246961182D+03
 0.417650228761511D+03 0.186501189123179D+03 0.362512636921896D+03 0.907392313837663D+02
 0.647237420573608D+03 -.556136919924048D+03 0.235502825083028D+03 -.218401484225067D+03
 0.854244643327421D+04 0.807832949469304D+02 -.133728200219907D+04 0.843673763792684D+04
0.305611974668D-03 0.000000000000D+00 0.000000000000D+00 0.838629617413D-05 0.000000000000D+00  7 -2 2 24 -11 11 -24 21 0 0.63183111D-01 0.24155482D+00 0.47715332D+06 0.47715332D+06 0.47715332D+06 0.10699489D+01  1  2  2  2  7  2        2 0.104868681519D-02 0.100000000000D+01
-.165104172757D-04 0.000000000000D+00 -.117363045220D-05 0.838629617413D-05 0.000000000000D+00  7 -2 2 24 -11 11 -24 21 2 0.63183111D-01 0.24155482D+00 0.47715332D+06 0.47715332D+06 0.47715332D+06 0.10699489D+01  1  2  3  2  7  2        2 -.648574054441D-04 0.100000000000D+01
0.187264509081D-04 0.000000000000D+00 0.000000000000D+00 0.838629617413D-05 0.000000000000D+00  7 -2 2 24 -11 11 -24 21 2 0.63183111D-01 0.24155482D+00 0.47715332D+06 0.47715332D+06 0.47715332D+06 0.10699489D+01  1  2 15  2  7  2        2 0.735625877164D-04 0.100000000000D+01
  </mgrwgt>
  </event>
  <event>
  8     66 0.27011060E-05 0.62611810E+03 0.75467711E-02 0.87594424E-01
       -2 -1    0    0    0  501 0.00000000E+00 0.00000000E+00 0.57129701E+03 0.57129710E+03 0.32000000E+00 0.0000E+00 0.9000E+01
        2 -1    0    0  501    0 0.00000000E+00 0.00000000E+00 -.13388605E+04 0.13388605E+04 0.32000000E+00 0.0000E+00 0.9000E+01
       25  2    1    2    0    0 0.13084799E+03 0.82926683E+03 -.51172308E+03 0.10278467E+04 0.29967244E+03 0.0000E+00 0.0000E+00
       23  2    1    2    0    0 -.13084799E+03 -.82926683E+03 -.25584042E+03 0.88231099E+03 0.90629403E+02 0.0000E+00 0.0000E+00
       24  1    3    3    0    0 0.19283747E+03 0.65841594E+03 -.36889135E+03 0.78310018E+03 0.80419002E+02 0.0000E+00 0.9000E+01
      -13  1    4    4    0    0 0.13326759E+02 -.10459564E+03 -.36204265E+02 0.11148368E+03 0.10565837E+00 0.0000E+00 0.9000E+01
       13  1    4    4    0    0 -.14417475E+03 -.72467119E+03 -.21963615E+03 0.77082731E+03 0.10565837E+00 0.0000E+00 0.9000E+01
      -24  1    3    3    0    0 -.61989479E+02 0.17085089E+03 -.14283174E+03 0.24474649E+03 0.80419002E+02 0.0000E+00 0.9000E+01
#aMCatNLO 1  0  0  2  1 0.20918926D+03 0.00000000D+00  -5  7  0 0.00000000D+00 0.00000000D+00 0.00000000D+00 0.00000000D+00 0.00000000D+00
  <mgrwgt>
 0.7228414042D-03    9    2    0
 0.874578258054779D+03 0.000000000000000D+00 0.000000000000000D+00 0.874578258054779D+03
 0.874578258054779D+03 0.000000000000000D+00 0.000000000000000D+00 -.874578258054779D+03
 0.693304027284757D+03 0.192837471274787D+03 0.658415942176418D+03 -.592065457122636D+02
 0.105857199578929D+03 0.133269729149625D+02 -.104594799257103D+03 0.938437339322649D+01
 0.745398421823283D+03 -.144174965402293D+03 -.724672030707775D+03 0.984013948974223D+02
 0.204596867422588D+03 -.619894787874562D+02 0.170850887788460D+03 -.485792225783851D+02
 0.000000000000000D+00 0.000000000000000D+00 -.000000000000000D+00 -.000000000000000D+00
 0.925680003355619D+03 0.000000000000000D+00 0.000000000000000D+00 0.925680003355619D+03
 0.112462958310056D+04 0.000000000000000D+00 0.000000000000000D+00 -.112462958310056D+04
 0.759020823478006D+03 0.155061024306068D+03 0.736271728511175D+03 -.592065457122636D+02
 0.946616449863782D+02 0.811127375924555D+01 -.938454463761891D+02 0.938437339322649D+01
 0.680264316757412D+03 -.181257903707030D+03 -.648245538726957D+03 0.984013948974223D+02
 0.227674247670043D+03 -.732332902851590D+02 0.194023945494980D+03 -.485792225783851D+02
 0.288688553564342D+03 0.913188959268759D+02 -.188204688903009D+03 -.198949579744944D+03
0.235853746460D-03 0.000000000000D+00 0.000000000000D+00 0.732650217033D-05 0.000000000000D+00  7 -2 2 24 -13 13 -24 21 0 0.87891858D-01 0.20597855D+00 0.75154376D+06 0.75154376D+06 0.75154376D+06 0.10562224D+01  1  2  2  2  7  2        2 0.512522467825D-03 0.100000000000D+01
-.131017523558D-04 0.000000000000D+00 -.905740488122D-06 0.732650217033D-05 0.000000000000D+00  7 -2 2 24 -13 13 -24 21 2 0.87891858D-01 0.20597855D+00 0.75154376D+06 0.75154376D+06 0.75154376D+06 0.10562224D+01  1  2  3  2  7  2        2 -.317621798752D-04 0.100000000000D+01
0.136786512712D-04 0.000000000000D+00 0.000000000000D+00 0.732650217033D-05 0.000000000000D+00  7 -2 2 24 -13 13 -24 21 2 0.87891858D-01 0.20597855D+00 0.75154376D+06 0.75154376D+06 0.75154376D+06 0.10562224D+01  1  2 15  2  7  2        2 0.331607383750D-04 0.100000000000D+01
0.327586095357D-03 0.000000000000D+00 0.000000000000D+00 0.732650217033D-05 0.000000000000D+00  7 -2 2 24 -13 13 -24 21 2 0.87891858D-01 0.26962337D+00 0.95612571D+06 0.95612571D+06 0.95612571D+06 0.10491635D+01  1  2 12  2  7  2        2 0.453703410775D-03 0.100000000000D+01
-.338248564124D-03 0.000000000000D+00 0.000000000000D+00 0.732650217033D-05 0.000000000000D+00  7 -2 2 24 -13 13 -24 21 2 0.87891858D-01 0.20597855D+00 0.75154376D+06 0.75154376D+06 0.75154376D+06 0.10562224D+01  1  2  4  2  7  2        2 -.820005709504D-03 0.100000000000D+01
-.528990401645D-03 0.000000000000D+00 -.115969956329D-03 0.732650217033D-05 0.000000000000D+00  7 -2 2 24 -13 13 -24 21 2 0.87891858D-01 0.27129045D+00 0.75154376D+06 0.75154376D+06 0.75154376D+06 0.10562224D+01  1  2  5  2  7  2        2 -.742725962562D-03 0.100000000000D+01
0.544415036290D-03 0.000000000000D+00 0.111706360545D-03 0.732650217033D-05 0.000000000000D+00  7 -2 2 24 -13 13 -24 21 2 0.87891858D-01 0.20597855D+00 0.75154376D+06 0.75154376D+06 0.75154376D+06 0.10562224D+01  1  2  6  2  7  2        2 0.131980881945D-02 0.100000000000D+01
0.117069156453D-04 0.000000000000D+00 0.000000000000D+00 0.732650217033D-05 0.000000000000D+00  7 -2 21 24 -13 13 -24 -2 2 0.87891858D-01 0.26962337D+00 0.95612571D+06 0.95612571D+06 0.95612571D+06 0.10491635D+01  1  2 12  4  7  2        2 0.399269910207D-05 0.100000000000D+01
-.169461244552D-04 0.000000000000D+00 -.421337839256D-05 0.732650217033D-05 0.000000000000D+00  7 -2 21 24 -13 13 -24 -2 2 0.87891858D-01 0.27129045D+00 0.75154376D+06 0.75154376D+06 0.75154376D+06 0.10562224D+01  1  2  5  4  7  2        2 -.585287942793D-05 0.100000000000D+01
  </mgrwgt>
  </event>
  <event>
  8     66 0.27011060E-05 0.53584764E+03 0.75467711E-02 0.84612733E-01
       -2 -1    0    0    0  501 0.00000000E+00 0.00000000E+00 0.25240773E+03 0.25240794E+03 0.32000000E+00 0.0000E+00 0.9000E+01
        2 -1    0    0  501    0 0.00000000E+00 0.00000000E+00 -.12956319E+04 0.12956319E+04 0.32000000E+00 0.0000E+00 0.9000E+01
       25  2    1    2    0    0 0.48769377E+03 -.14485577E+03 -.35973341E+03 0.69162921E+03 0.30019066E+03 0.0000E+00 0.0000E+00
       23  2    1    2    0    0 -.48769377E+03 0.14485577E+03 -.68349072E+03 0.85641064E+03 0.86320359E+02 0.0000E+00 0.0000E+00
       24  1    3    3    0    0 0.41586648E+03 -.83127641E+02 -.36783615E+03 0.56712061E+03 0.80419002E+02 0.0000E+00 0.9000E+01
      -11  1    4    4    0    0 -.40805935E+03 0.15289014E+03 -.58634551E+03 0.73054013E+03 0.51099893E-03 0.0000E+00 0.9000E+01
       11  1    4    4    0    0 -.79634418E+02 -.80343658E+01 -.97145211E+02 0.12587050E+03 0.51099893E-03 0.0000E+00 0.9000E+01
      -24  1    3    3    0    0 0.71827289E+02 -.61728130E+02 0.81027429E+01 0.12450860E+03 0.80419002E+02 0.0000E+00 0.9000E+01
#aMCatNLO 1  0  0  1  1 0.11343081D+04 0.00000000D+00  -5  7  0 0.00000000D+00 0.00000000D+00 0.00000000D+00 0.00000000D+00 0.00000000D+00
  <mgrwgt>
 0.9268523537D-03    5    2    0
 0.571863351511174D+03 0.000000000000000D+00 0.000000000000000D+00 0.571863351511174D+03
 0.571863351511174D+03 0.000000000000000D+00 0.000000000000000D+00 -.571863351511174D+03
 0.432087267784311D+03 0.415866478248822D+03 -.831276406938128D+02 0.194179980570364D+02
 0.453968106554314D+03 -.408059349165217D+03 0.152890135981898D+03 -.127276139345931D+03
 0.817575787562288D+02 -.796344181839133D+02 -.803436578669178D+01 -.166766330833357D+02
 0.175913749927494D+03 0.718272891003087D+02 -.617281295013935D+02 0.124534774372230D+03
 0.000000000000000D+00 -.000000000000000D+00 0.000000000000000D+00 0.000000000000000D+00
 0.170799858047979D+04 0.000000000000000D+00 0.000000000000000D+00 0.170799858047979D+04
 0.116179441197818D+04 0.000000000000000D+00 0.000000000000000D+00 -.116179441197818D+04
 0.907529897804013D+03 0.724333888687595D+03 -.540468924642255D+03 0.194179980570364D+02
 0.287362152786010D+03 -.237356680333570D+03 -.100197791931923D+03 -.127276139345931D+03
 0.775906200293794D+02 -.429420500207356D+02 -.624353631010821D+02 -.166766330833357D+02
 0.338344943319393D+03 0.190243245148340D+03 -.237294505547261D+03 0.124534774372230D+03
 0.125896537851917D+04 -.634278403481629D+03 0.940396585222521D+03 0.546204168501619D+03
0.683383681856D-04 0.000000000000D+00 0.000000000000D+00 0.228791178797D-06 0.000000000000D+00  7 -2 2 24 -11 11 -24 21 0 0.38831978D-01 0.19932800D+00 0.28713270D+06 0.28713270D+06 0.28713270D+06 0.10859632D+01  1  2  2  1  7  1       -2 0.895298086581D-03 0.100000000000D+01
-.377704292589D-05 0.000000000000D+00 -.262437327738D-06 0.228791178797D-06 0.000000000000D+00  7 -2 2 24 -11 11 -24 21 2 0.38831978D-01 0.19932800D+00 0.28713270D+06 0.28713270D+06 0.28713270D+06 0.10859632D+01  1  2  3  1  7  1       -2 -.583559606845D-04 0.100000000000D+01
0.425427985145D-05 0.000000000000D+00 0.000000000000D+00 0.228791178797D-06 0.000000000000D+00  7 -2 2 24 -11 11 -24 21 2 0.38831978D-01 0.19932800D+00 0.28713270D+06 0.28713270D+06 0.28713270D+06 0.10859632D+01  1  2 15  1  7  1       -2 0.657293529948D-04 0.100000000000D+01
0.429563944519D-04 0.000000000000D+00 -.295626825756D-04 0.228791178797D-06 0.000000000000D+00  7 -2 2 24 -11 11 -24 21 2 0.21844314D+00 0.19932800D+00 0.28713270D+06 0.28713270D+06 0.28713270D+06 0.10859632D+01  1  2  5  1  7  1       -2 0.102398736966D-04 0.100000000000D+01
0.757109779297D-05 0.000000000000D+00 -.625299276248D-05 0.228791178797D-06 0.000000000000D+00  7 21 2 24 -11 11 -24 2 2 0.21844314D+00 0.19932800D+00 0.28713270D+06 0.28713270D+06 0.28713270D+06 0.10859632D+01  1  2  5  3  7  1       -2 0.139410011117D-04 0.100000000000D+01
  </mgrwgt>
  </event>
  <event>
  8     66 0.27011060E-05 0.47242249E+03 0.75467711E-02 0.94710808E-01
       -2 -1    0    0    0  501 0.00000000E+00 0.00000000E+00 0.14707445E+03 0.14707480E+03 0.32000000E+00 0.0000E+00 0.9000E+01
        2 -1    0    0  501    0 0.00000000E+00 0.00000000E+00 -.27517698E+04 0.27517698E+04 0.32000000E+00 0.0000E+00 0.9000E+01
       25  2    1    2    0    0 0.35513806E+03 0.23302208E+03 -.23238926E+04 0.23814447E+04 0.30063182E+03 0.0000E+00 0.0000E+00
       23  2    1    2    0    0 -.35513806E+03 -.23302208E+03 -.28080274E+03 0.51739995E+03 0.91816086E+02 0.0000E+00 0.0000E+00
       24  1    3    3    0    0 0.30989636E+02 0.15415180E+03 -.84539795E+03 0.86364811E+03 0.80419002E+02 0.0000E+00 0.9000E+01
      -13  1    4    4    0    0 -.19324668E+03 -.11704991E+03 -.20255052E+03 0.30343317E+03 0.10565837E+00 0.0000E+00 0.9000E+01
       13  1    4    4    0    0 -.16189138E+03 -.11597217E+03 -.78252221E+02 0.21396678E+03 0.10565837E+00 0.0000E+00 0.9000E+01
      -24  1    3    3    0    0 0.32414843E+03 0.78870276E+02 -.14784947E+04 0.15177966E+04 0.80419002E+02 0.0000E+00 0.9000E+01
#aMCatNLO 1  0  0  1  2 0.45522502D+02 0.00000000D+00  -5  7  0 0.00000000D+00 0.00000000D+00 0.00000000D+00 0.00000000D+00 0.00000000D+00
  <mgrwgt>
 0.9309109839D-03    4    2    0
 0.636172585529294D+03 0.000000000000000D+00 0.000000000000000D+00 0.636172585529294D+03
 0.636172585529294D+03 0.000000000000000D+00 0.000000000000000D+00 -.636172585529294D+03
 0.237024943763198D+03 0.309896359930786D+02 0.154151802674317D+03 -.158083750603444D+03
 0.276672661785300D+03 -.193246724979279D+03 -.117049915069137D+03 0.159695906166857D+03
 0.327295889366094D+03 -.161891339537217D+03 -.115972163982009D+03 0.259738812194323D+03
 0.431351676143995D+03 0.324148428523417D+03 0.788702763768299D+02 -.261350967757737D+03
 0.000000000000000D+00 0.000000000000000D+00 -.000000000000000D+00 -.000000000000000D+00
 0.638936565218933D+03 0.000000000000000D+00 0.000000000000000D+00 0.638936565218933D+03
 0.856388774861292D+03 0.000000000000000D+00 0.000000000000000D+00 -.856388774861292D+03
 0.238930866545918D+03 0.235840620533785D+02 0.158347917088364D+03 -.158083750603444D+03
 0.280800680797419D+03 -.201920660602056D+03 -.112135127020349D+03 0.159695906166857D+03
 0.330499256253303D+03 -.172126219504112D+03 -.110172920371071D+03 0.259738812194323D+03
 0.422928468658963D+03 0.310856365183656D+03 0.864017680649221D+02 -.261350967757737D+03
 0.222166067824621D+03 0.396064528691339D+02 -.224416377618662D+02 -.217452209642359D+03
0.176839354465D-03 0.000000000000D+00 0.000000000000D+00 0.354776227840D-05 0.000000000000D+00  7 -2 2 24 -13 13 -24 21 0 0.22626866D-01 0.42334923D+00 0.22318301D+06 0.22318301D+06 0.22318301D+06 0.10941858D+01  1  2  2  1  7  1       -2 0.936763811852D-03 0.100000000000D+01
-.876651337323D-05 0.000000000000D+00 -.679109684016D-06 0.354776227840D-05 0.000000000000D+00  7 -2 2 24 -13 13 -24 21 2 0.22626866D-01 0.42334923D+00 0.22318301D+06 0.22318301D+06 0.22318301D+06 0.10941858D+01  1  2  3  1  7  1       -2 -.555981380134D-04 0.100000000000D+01
0.109505555080D-04 0.000000000000D+00 0.000000000000D+00 0.354776227840D-05 0.000000000000D+00  7 -2 2 24 -13 13 -24 21 2 0.22626866D-01 0.42334923D+00 0.22318301D+06 0.22318301D+06 0.22318301D+06 0.10941858D+01  1  2 15  1  7  1       -2 0.694495599945D-04 0.100000000000D+01
-.310689489106D-05 0.000000000000D+00 0.000000000000D+00 0.354776227840D-05 0.000000000000D+00  7 -2 2 24 -13 13 -24 21 2 0.22626866D-01 0.42334923D+00 0.22318301D+06 0.22318301D+06 0.22318301D+06 0.10941858D+01  1  2  4  1  7  1       -2 -.197042499785D-04 0.100000000000D+01
  </mgrwgt>
  </event>
  <event>
  8     66 0.27011060E-05 0.17201107E+03 0.75467711E-02 0.98608634E-01
       -2 -1    0    0    0  501 0.00000000E+00 0.00000000E+00 0.65035250E+02 0.65036038E+02 0.32000000E+00 0.0000E+00 0.9000E+01
        2 -1    0    0  501    0 0.00000000E+00 0.00000000E+00 -.14660586E+04 0.14660586E+04 0.32000000E+00 0.0000E+00 0.9000E+01
       25  2    1    2    0    0 -.18634656E+03 -.31221015E+02 -.11542507E+04 0.12069620E+04 0.29793066E+03 0.0000E+00 0.0000E+00
       23  2    1    2    0    0 0.18634656E+03 0.31221015E+02 -.24677258E+03 0.32413265E+03 0.92008042E+02 0.0000E+00 0.0000E+00
       24  1    3    3    0    0 -.67235527E+02 -.13756047E+03 -.52078240E+03 0.54874860E+03 0.80419002E+02 0.0000E+00 0.9000E+01
      -11  1    4    4    0    0 0.57624341E+02 0.21769561E+02 -.22898757E+02 0.65717818E+02 0.51099893E-03 0.0000E+00 0.9000E+01
       11  1    4    4    0    0 0.12872222E+03 0.94514540E+01 -.22387382E+03 0.25841483E+03 0.51099893E-03 0.0000E+00 0.9000E+01
      -24  1    3    3    0    0 -.11911103E+03 0.10633945E+03 -.63346834E+03 0.65821339E+03 0.80419002E+02 0.0000E+00 0.9000E+01
#aMCatNLO 1  0  0  2  1 0.15294524D+03 0.00000000D+00  -5  7  0 0.00000000D+00 0.00000000D+00 0.00000000D+00 0.00000000D+00 0.00000000D+00
  <mgrwgt>
 0.6388822083D-03    9    2    0
 0.308781663450360D+03 0.000000000000000D+00 0.000000000000000D+00 0.308781663450360D+03
 0.308781663450360D+03 0.000000000000000D+00 0.000000000000000D+00 -.308781663450360D+03
 0.179022529441380D+03 -.672355266496549D+02 -.137560465435077D+03 -.462423225914075D+02
 0.110982150967694D+03 0.576243414146626D+02 0.217695613248652D+02 0.923177085377739D+02
 0.132788203670253D+03 0.128722216380573D+03 0.945145401722328D+01 0.312084613687661D+02
 0.194770442821394D+03 -.119111031145581D+03 0.106339450092989D+03 -.772838473151325D+02
 0.000000000000000D+00 0.000000000000000D+00 -.000000000000000D+00 -.000000000000000D+00
 0.344271377547144D+03 0.000000000000000D+00 0.000000000000000D+00 0.344271377547144D+03
 0.541651077776690D+03 0.000000000000000D+00 0.000000000000000D+00 -.541651077776690D+03
 0.171566277540414D+03 -.970085507658951D+02 -.106858599627531D+03 -.462423225914075D+02
 0.108270372249245D+03 0.390047776086127D+02 0.409700075790491D+02 0.923177085377739D+02
 0.116287084132955D+03 0.107570016416273D+03 0.312635481566325D+02 0.312084613687661D+02
 0.240096911994376D+03 -.156041235374741D+03 0.144421781604302D+03 -.772838473151325D+02
 0.249701809406844D+03 0.106474992115751D+03 -.109796737712452D+03 -.197379700229546D+03
0.617365375809D-05 0.000000000000D+00 0.000000000000D+00 0.827720906641D-07 0.000000000000D+00  7 -2 2 24 -11 11 -24 21 0 0.10005486D-01 0.22554754D+00 0.73548480D+05 0.73548480D+05 0.73548480D+05 0.11328385D+01  1  2  2  2  7  2        2 0.647619211080D-03 0.100000000000D+01
-.335956573339D-06 0.000000000000D+00 -.237084559914D-07 0.827720906641D-07 0.000000000000D+00  7 -2 2 24 -11 11 -24 21 2 0.10005486D-01 0.22554754D+00 0.73548480D+05 0.73548480D+05 0.73548480D+05 0.11328385D+01  1  2  3  2  7  2        2 -.452268756220D-04 0.100000000000D+01
0.385077956788D-06 0.000000000000D+00 0.000000000000D+00 0.827720906641D-07 0.000000000000D+00  7 -2 2 24 -11 11 -24 21 2 0.10005486D-01 0.22554754D+00 0.73548480D+05 0.73548480D+05 0.73548480D+05 0.11328385D+01  1  2 15  2  7  2        2 0.518396549985D-04 0.100000000000D+01
0.279427824987D-05 0.000000000000D+00 0.000000000000D+00 0.827720906641D-07 0.000000000000D+00  7 -2 2 24 -11 11 -24 21 2 0.10005486D-01 0.40012949D+00 0.12747385D+06 0.12747385D+06 0.12747385D+06 0.11131723D+01  1  2 12  2  7  2        2 0.862054893673D-04 0.100000000000D+01
-.541258093993D-05 0.000000000000D+00 0.000000000000D+00 0.827720906641D-07 0.000000000000D+00  7 -2 2 24 -11 11 -24 21 2 0.10005486D-01 0.22554754D+00 0.73548480D+05 0.73548480D+05 0.73548480D+05 0.11328385D+01  1  2  4  2  7  2        2 -.728648118210D-03 0.100000000000D+01
-.565958396254D-05 0.000000000000D+00 -.181203827512D-05 0.827720906641D-07 0.000000000000D+00  7 -2 2 24 -11 11 -24 21 2 0.10005486D-01 0.40832569D+00 0.73548480D+05 0.73548480D+05 0.73548480D+05 0.11328385D+01  1  2  5  2  7  2        2 -.171807409331D-03 0.100000000000D+01
0.593655494494D-05 0.000000000000D+00 0.153384032681D-05 0.827720906641D-07 0.000000000000D+00  7 -2 2 24 -11 11 -24 21 2 0.10005486D-01 0.22554754D+00 0.73548480D+05 0.73548480D+05 0.73548480D+05 0.11328385D+01  1  2  6  2  7  2        2 0.799186125304D-03 0.100000000000D+01
0.176290368800D-06 0.000000000000D+00 0.000000000000D+00 0.827720906641D-07 0.000000000000D+00  7 -2 21 24 -11 11 -24 -2 2 0.10005486D-01 0.40012949D+00 0.12747385D+06 0.12747385D+06 0.12747385D+06 0.11131723D+01  1  2 12  4  7  2        2 0.599313514966D-06 0.100000000000D+01
-.270789351719D-06 0.000000000000D+00 -.117808434713D-06 0.827720906641D-07 0.000000000000D+00  7 -2 21 24 -11 11 -24 -2 2 0.10005486D-01 0.40832569D+00 0.73548480D+05 0.73548480D+05 0.73548480D+05 0.11328385D+01  1  2  5  4  7  2        2 -.885182769882D-06 0.100000000000D+01
  </mgrwgt>
  </event>
  <event>
  8     66 0.27011060E-05 0.25979197E+03 0.75467711E-02 0.97927940E-01
       -2 -1    0    0    0  501 0.00000000E+00 0.00000000E+00 0.15776832E+03 0.15776864E+03 0.32000000E+00 0.0000E+00 0.9000E+01
        2 -1    0    0  501    0 0.00000000E+00 0.00000000E+00 -.66981974E+03 0.66981981E+03 0.32000000E+00 0.0000E+00 0.9000E+01
       25  2    1    2    0    0 -.18758746E+03 0.52700981E+02 -.48280588E+03 0.60076156E+03 0.29974403E+03 0.0000E+00 0.0000E+00
       23  2    1    2    0    0 0.18758746E+03 -.52700981E+02 -.29245535E+02 0.22682690E+03 0.11237746E+03 0.0000E+00 0.0000E+00
       24  1    3    3    0    0 -.13229859E+03 0.10202337E+03 -.11766545E+03 0.21959977E+03 0.80419002E+02 0.0000E+00 0.9000E+01
      -11  1    4    4    0    0 0.76251876E+02 -.79655506E+02 -.10763197E+02 0.11079348E+03 0.51099893E-03 0.0000E+00 0.9000E+01
       11  1    4    4    0    0 0.11133558E+03 0.26954525E+02 -.18482338E+02 0.11603342E+03 0.51099893E-03 0.0000E+00 0.9000E+01
      -24  1    3    3    0    0 -.55288865E+02 -.49322387E+02 -.36514044E+03 0.38116179E+03 0.80419002E+02 0.0000E+00 0.9000E+01
#aMCatNLO 1  0  0  2  2 0.20069756D+03 0.00000000D+00  -5  7  0 0.00000000D+00 0.00000000D+00 0.00000000D+00 0.00000000D+00 0.00000000D+00
  <mgrwgt>
 0.4341990508D-03    7    2    0
 0.325079222056194D+03 0.000000000000000D+00 0.000000000000000D+00 0.325079222056194D+03
 0.325079222056194D+03 0.000000000000000D+00 0.000000000000000D+00 -.325079222056194D+03
 0.186858260332261D+03 -.132298593488326D+03 0.102023367529887D+03 0.231755936040646D+02
 0.132552446596298D+03 0.762518763994227D+02 -.796555048850660D+02 0.735581605652077D+02
 0.133142950354000D+03 0.111335581994548D+03 0.269545242273119D+02 0.678593179643162D+02
 0.197604786829829D+03 -.552888649056455D+02 -.493223868721329D+02 -.164593072133588D+03
 0.000000000000000D+00 0.000000000000000D+00 -.000000000000000D+00 -.000000000000000D+00
 0.437683457991410D+03 0.000000000000000D+00 0.000000000000000D+00 0.437683457991410D+03
 0.443529623337853D+03 0.000000000000000D+00 0.000000000000000D+00 -.443529623337853D+03
 0.240219209787990D+03 -.196145440009337D+03 0.110579885247898D+03 0.231755936040646D+02
 0.112128456317729D+03 0.396727891191317D+02 -.747533111906684D+02 0.735581605652077D+02
 0.106383746964546D+03 0.755270335429618D+02 0.317534531639418D+02 0.678593179643162D+02
 0.221698975967002D+03 -.117973564666170D+03 -.409216157553856D+02 -.164593072133588D+03
 0.200782692291997D+03 0.198919182013414D+03 -.266584114657856D+02 -.584616534644346D+01
0.544182246653D-05 0.000000000000D+00 0.000000000000D+00 0.323850402092D-08 0.000000000000D+00  7 -2 2 24 -11 11 -24 21 0 0.24272080D-01 0.10304922D+00 0.67491866D+05 0.67491866D+05 0.67491866D+05 0.11360092D+01  1  2  2  2  7  2        2 0.419762125175D-03 0.100000000000D+01
-.283848785293D-06 0.000000000000D+00 -.208980311362D-07 0.323850402092D-08 0.000000000000D+00  7 -2 2 24 -11 11 -24 21 2 0.24272080D-01 0.10304922D+00 0.67491866D+05 0.67491866D+05 0.67491866D+05 0.11360092D+01  1  2  3  2  7  2        2 -.282559310898D-04 0.100000000000D+01
0.346241577414D-06 0.000000000000D+00 0.000000000000D+00 0.323850402092D-08 0.000000000000D+00  7 -2 2 24 -11 11 -24 21 2 0.24272080D-01 0.10304922D+00 0.67491866D+05 0.67491866D+05 0.67491866D+05 0.11360092D+01  1  2 15  2  7  2        2 0.344668663694D-04 0.100000000000D+01
-.175417261135D-05 0.000000000000D+00 0.000000000000D+00 0.323850402092D-08 0.000000000000D+00  7 -2 2 24 -11 11 -24 21 2 0.24272080D-01 0.10304922D+00 0.67491866D+05 0.67491866D+05 0.67491866D+05 0.11360092D+01  1  2  4  2  7  2        2 -.174620371811D-03 0.100000000000D+01
-.192079281804D-05 0.000000000000D+00 -.194293298295D-05 0.323850402092D-08 0.000000000000D+00  7 -2 2 24 -11 11 -24 21 2 0.24272080D-01 0.17563069D+00 0.67491866D+05 0.67491866D+05 0.67491866D+05 0.11360092D+01  1  2  5  2  7  2        2 -.949404600422D-04 0.100000000000D+01
0.279655903041D-05 0.000000000000D+00 0.169608775574D-05 0.323850402092D-08 0.000000000000D+00  7 -2 2 24 -11 11 -24 21 2 0.24272080D-01 0.10304922D+00 0.67491866D+05 0.67491866D+05 0.67491866D+05 0.11360092D+01  1  2  6  2  7  2        2 0.278385476162D-03 0.100000000000D+01
-.200831431012D-07 0.000000000000D+00 -.115365913441D-06 0.323850402092D-08 0.000000000000D+00  7 -2 21 24 -11 11 -24 -2 2 0.24272080D-01 0.17563069D+00 0.67491866D+05 0.67491866D+05 0.67491866D+05 0.11360092D+01  1  2  5  4  7  2        2 -.598653990623D-06 0.100000000000D+01
  </mgrwgt>
  </event>
  <event>
  8     66 0.27011060E-05 0.94862806E+02 0.75467711E-02 0.10665170E+00
       -2 -1    0    0    0  501 0.00000000E+00 0.00000000E+00 0.11709403E+04 0.11709403E+04 0.32000000E+00 0.0000E+00 0.9000E+01
        2 -1    0    0  501    0 0.00000000E+00 0.00000000E+00 -.34971582E+03 0.34971597E+03 0.32000000E+00 0.0000E+00 0.9000E+01
       25  2    1    2    0    0 -.66485407E+01 -.87879421E+02 -.27418801E+03 0.41801632E+03 0.30297126E+03 0.0000E+00 0.0000E+00
       23  2    1    2    0    0 0.66485407E+01 0.87879421E+02 0.10954125E+04 0.11026400E+04 0.90107965E+02 0.0000E+00 0.0000E+00
       24  1    3    3    0    0 -.38430154E+02 -.95779881E+02 -.30011718E+03 0.32739609E+03 0.80419002E+02 0.0000E+00 0.9000E+01
      -11  1    4    4    0    0 -.37485728E+02 0.25280540E+02 0.55318094E+03 0.55502562E+03 0.51099893E-03 0.0000E+00 0.9000E+01
       11  1    4    4    0    0 0.44134269E+02 0.62598881E+02 0.54223152E+03 0.54761434E+03 0.51099893E-03 0.0000E+00 0.9000E+01
      -24  1    3    3    0    0 0.31781613E+02 0.79004600E+01 0.25929173E+02 0.90620231E+02 0.80419002E+02 0.0000E+00 0.9000E+01
#aMCatNLO 1  0  0  2  1 0.43949247D+02 0.00000000D+00  -5  7  0 0.00000000D+00 0.00000000D+00 0.00000000D+00 0.00000000D+00 0.00000000D+00
  <mgrwgt>
 0.1160287065D-02    9    2    0
 0.639919125803245D+03 0.000000000000000D+00 0.000000000000000D+00 0.639919125803245D+03
 0.639919125803245D+03 0.000000000000000D+00 0.000000000000000D+00 -.639919125803245D+03
 0.581573876192232D+03 -.384301539073973D+02 -.957798811699015D+02 -.566665946699306D+03
 0.304505265883859D+03 -.374857278906765D+02 0.252805397486636D+02 0.301129824935230D+03
 0.302725299308755D+03 0.441342686284891D+02 0.625988813827545D+02 0.292875661713006D+03
 0.910338102216452D+02 0.317816131695848D+02 0.790046003848342D+01 -.273395399489309D+02
 0.000000000000000D+00 0.000000000000000D+00 0.000000000000000D+00 -.000000000000000D+00
 0.660500731728619D+03 0.000000000000000D+00 0.000000000000000D+00 0.660500731728619D+03
 0.664196242711766D+03 0.000000000000000D+00 0.000000000000000D+00 -.664196242711766D+03
 0.585016861677812D+03 -.539572127275118D+02 -.108424335548087D+03 -.566665946699306D+03
 0.305134715252558D+03 -.455998981295741D+02 0.186727683354674D+02 0.301129824935230D+03
 0.300371160614336D+03 0.361071911766949D+02 0.560620339472385D+02 0.292875661713006D+03
 0.900698934600262D+02 0.293711638420511D+02 0.593751155570681D+01 -.273395399489309D+02
 0.441043434356522D+02 0.340787558383399D+02 0.277520217096738D+02 -.369551098314774D+01
0.272344904015D-03 0.000000000000D+00 0.000000000000D+00 0.194328698379D-06 0.000000000000D+00  7 -2 2 24 -11 11 -24 21 0 0.18014467D+00 0.53802449D-01 0.28810536D+05 0.28810536D+05 0.28810536D+05 0.11689696D+01  1  2  2  2  7  2        2 0.583194677088D-03 0.100000000000D+01
0.172687084593D-04 0.000000000000D+00 -.104587614148D-05 0.194328698379D-06 0.000000000000D+00  7 -2 2 24 -11 11 -24 21 2 0.18014467D+00 0.53802449D-01 0.28810536D+05 0.28810536D+05 0.28810536D+05 0.11689696D+01  1  2  3  2  7  2        2 0.505313137509D-04 0.100000000000D+01
0.152819449808D-04 0.000000000000D+00 0.000000000000D+00 0.194328698379D-06 0.000000000000D+00  7 -2 2 24 -11 11 -24 21 2 0.18014467D+00 0.53802449D-01 0.28810536D+05 0.28810536D+05 0.28810536D+05 0.11689696D+01  1  2 15  2  7  2        2 0.447176902874D-04 0.100000000000D+01
0.604514858756D-03 0.000000000000D+00 0.000000000000D+00 0.194328698379D-06 0.000000000000D+00  7 -2 2 24 -11 11 -24 21 2 0.18014467D+00 0.56678782D-01 0.38240759D+05 0.38240759D+05 0.38240759D+05 0.11576808D+01  1  2 12  2  7  2        2 0.162161605599D-02 0.100000000000D+01
-.514778876864D-03 0.000000000000D+00 0.000000000000D+00 0.194328698379D-06 0.000000000000D+00  7 -2 2 24 -11 11 -24 21 2 0.18014467D+00 0.53802449D-01 0.28810536D+05 0.28810536D+05 0.28810536D+05 0.11689696D+01  1  2  4  2  7  2        2 -.150633459360D-02 0.100000000000D+01
-.180000428614D-02 0.000000000000D+00 -.572398049946D-03 0.194328698379D-06 0.000000000000D+00  7 -2 2 24 -11 11 -24 21 2 0.18014467D+00 0.57530075D-01 0.28810536D+05 0.28810536D+05 0.28810536D+05 0.11689696D+01  1  2  5  2  7  2        2 -.490301584047D-02 0.100000000000D+01
0.183551052835D-02 0.000000000000D+00 0.571116126750D-03 0.194328698379D-06 0.000000000000D+00  7 -2 2 24 -11 11 -24 21 2 0.18014467D+00 0.53802449D-01 0.28810536D+05 0.28810536D+05 0.28810536D+05 0.11689696D+01  1  2  6  2  7  2        2 0.537103041723D-02 0.100000000000D+01
0.684707562651D-05 0.000000000000D+00 0.000000000000D+00 0.194328698379D-06 0.000000000000D+00  7 -2 21 24 -11 11 -24 -2 2 0.18014467D+00 0.56678782D-01 0.38240759D+05 0.38240759D+05 0.38240759D+05 0.11576808D+01  1  2 12  4  7  2        2 0.536052609738D-04 0.100000000000D+01
-.196188261513D-04 0.000000000000D+00 -.652003406098D-05 0.194328698379D-06 0.000000000000D+00  7 -2 21 24 -11 11 -24 -2 2 0.18014467D+00 0.57530075D-01 0.28810536D+05 0.28810536D+05 0.28810536D+05 0.11689696D+01  1  2  5  4  7  2        2 -.155057916388D-03 0.100000000000D+01
  </mgrwgt>
  </event>
  <event>
  9     66 -.27011060E-05 0.21382163E+03 0.75467711E-02 0.10520990E+00
       -2 -1    0    0    0  502 0.00000000E+00 0.00000000E+00 0.97391599E+03 0.97391605E+03 0.32000000E+00 0.0000E+00 0.9000E+01
        2 -1    0    0  501    0 0.00000000E+00 0.00000000E+00 -.67778860E+02 0.67779615E+02 0.32000000E+00 0.0000E+00 0.9000E+01
       25  2    1    2    0    0 -.52333324E+02 0.13428647E+03 0.55358878E+03 0.64605471E+03 0.30025742E+03 0.0000E+00 0.0000E+00
       23  2    1    2    0    0 0.57074157E+02 -.13612489E+03 0.33055433E+03 0.37305434E+03 0.90088459E+02 0.0000E+00 0.0000E+00
       24  1    3    3    0    0 -.94745370E+02 0.12076263E+03 0.52013097E+03 0.54823694E+03 0.80419002E+02 0.0000E+00 0.9000E+01
      -11  1    4    4    0    0 -.12412495E+02 -.38897316E+01 0.82304120E+02 0.83325675E+02 0.51099893E-03 0.0000E+00 0.9000E+01
       11  1    4    4    0    0 0.69486653E+02 -.13223516E+03 0.24825021E+03 0.28972867E+03 0.51099893E-03 0.0000E+00 0.9000E+01
      -24  1    3    3    0    0 0.42412046E+02 0.13523842E+02 0.33457812E+02 0.97817775E+02 0.80419002E+02 0.0000E+00 0.9000E+01
       21  1    1    2  501  502 -.47408332E+01 0.18384199E+01 0.21994021E+02 0.22586606E+02 0.75000000E+00 0.0000E+00 0.9000E+01
#aMCatNLO 2  0  0  1  2 0.50848095D+01 0.00000000D+00  -5  7  0 0.00000000D+00 0.00000000D+00 0.00000000D+00 0.00000000D+00 0.00000000D+00
  <mgrwgt>
 -.1944341381D-03    3    2    0
 0.253401049602415D+03 0.000000000000000D+00 0.000000000000000D+00 0.253401049602415D+03
 0.253401049602415D+03 0.000000000000000D+00 0.000000000000000D+00 -.253401049602415D+03
 0.196357114970042D+03 -.965758879717940D+02 0.121472479230395D+03 0.894786862725902D+02
 0.240745338944079D+02 -.126372099226447D+02 -.380259080645356D+01 0.201351536066323D+02
 0.148389017505617D+03 0.680933477083602D+02 -.131694861698040D+03 -.624979331534587D+01
 0.137981432834764D+03 0.411197501860784D+02 0.140249732740987D+02 -.103364046563877D+03
 0.000000000000000D+00 -.000000000000000D+00 0.000000000000000D+00 0.000000000000000D+00
 0.259329287909879D+03 0.000000000000000D+00 0.000000000000000D+00 0.259329287909879D+03
 0.254506498675726D+03 0.000000000000000D+00 0.000000000000000D+00 -.254506498675726D+03
 0.195022947258402D+03 -.947453697877051D+02 0.120762633333764D+03 0.894786862725902D+02
 0.239713258330977D+02 -.124124953079026D+02 -.388973156723608D+01 0.201351536066323D+02
 0.149511180793345D+03 0.694866525357064D+02 -.132235163194658D+03 -.624979331534587D+01
 0.138322152946020D+03 0.424120458007832D+02 0.135238415468608D+02 -.103364046563877D+03
 0.700817975474117D+01 -.474083324088182D+01 0.183841988126905D+01 0.482278923415369D+01
-.122696862702D-04 0.000000000000D+00 0.000000000000D+00 0.401318623228D-06 0.000000000000D+00  7 -2 2 24 -11 11 -24 21 2 0.15013634D+00 0.10381473D-01 0.46801988D+05 0.46801988D+05 0.46801988D+05 0.11498289D+01  1  2 13  1  7  1       -2 -.380465179747D-03 0.100000000000D+01
-.899535999451D-04 0.000000000000D+00 0.000000000000D+00 0.401318623228D-06 0.000000000000D+00  7 -2 2 24 -11 11 -24 21 2 0.14639664D+00 0.10381473D-01 0.45719689D+05 0.45719689D+05 0.45719689D+05 0.11507299D+01  1  2  8  1  7  1       -2 -.299091779691D-02 0.100000000000D+01
0.102432976949D-03 0.000000000000D+00 0.000000000000D+00 0.401318623228D-06 0.109493641561D-06  7 -2 2 24 -11 11 -24 21 2 0.14982155D+00 0.10426762D-01 0.46801988D+05 0.46801988D+05 0.46801988D+05 0.11498289D+01  1  2  1  1  7  1       -2 0.317694883854D-02 0.100000000000D+01
  </mgrwgt>
  </event>
  <event>
  8     66 0.27011060E-05 0.19691315E+03 0.75467711E-02 0.99358535E-01
       -2 -1    0    0    0  501 0.00000000E+00 0.00000000E+00 0.88929109E+02 0.88929685E+02 0.32000000E+00 0.0000E+00 0.9000E+01
        2 -1    0    0  501    0 0.00000000E+00 0.00000000E+00 -.11865087E+04 0.11865087E+04 0.32000000E+00 0.0000E+00 0.9000E+01
       25  2    1    2    0    0 0.11453095E+03 -.17964959E+03 -.89681024E+03 0.96932298E+03 0.29987853E+03 0.0000E+00 0.0000E+00
       23  2    1    2    0    0 -.11453095E+03 0.17964959E+03 -.20076934E+03 0.30611543E+03 0.89481928E+02 0.0000E+00 0.0000E+00
       24  1    3    3    0    0 0.18921639E+03 -.11481497E+03 -.50292715E+03 0.55532716E+03 0.80419002E+02 0.0000E+00 0.9000E+01
      -13  1    4    4    0    0 -.39261039E+02 0.12099825E+03 -.15430808E+03 0.19998250E+03 0.10565837E+00 0.0000E+00 0.9000E+01
       13  1    4    4    0    0 -.75269915E+02 0.58651342E+02 -.46461266E+02 0.10613294E+03 0.10565837E+00 0.0000E+00 0.9000E+01
      -24  1    3    3    0    0 -.74685432E+02 -.64834622E+02 -.39388309E+03 0.41399583E+03 0.80419002E+02 0.0000E+00 0.9000E+01
#aMCatNLO 1  0  0  2  1 0.79095735D+02 0.00000000D+00  -5  7  0 0.00000000D+00 0.00000000D+00 0.00000000D+00 0.00000000D+00 0.00000000D+00
  <mgrwgt>
 0.8827169573D-03    9    2    0
 0.324831579670199D+03 0.000000000000000D+00 0.000000000000000D+00 0.324831579670199D+03
 0.324831579670199D+03 0.000000000000000D+00 0.000000000000000D+00 -.324831579670199D+03
 0.240560077090910D+03 0.189216385577045D+03 -.114814966401351D+03 -.491591055149455D+02
 0.131914460724028D+03 -.392609886849295D+02 0.120998333430366D+03 0.349199516418192D+02
 0.129868973355539D+03 -.752699655707771D+02 0.586512554218102D+02 0.880932049640679D+02
 0.147319648169921D+03 -.746854313213388D+02 -.648346224508253D+02 -.738540510909415D+02
 0.000000000000000D+00 0.000000000000000D+00 -.000000000000000D+00 -.000000000000000D+00
 0.351746847856241D+03 0.000000000000000D+00 0.000000000000000D+00 0.351746847856241D+03
 0.391024885142706D+03 0.000000000000000D+00 0.000000000000000D+00 -.391024885142706D+03
 0.222587230427707D+03 0.181529356498901D+03 -.877971199366578D+02 -.491591055149455D+02
 0.148365677945586D+03 -.439129029700907D+02 0.137348565053755D+03 0.349199516418192D+02
 0.140203878652758D+03 -.797524657017356D+02 0.744060417098610D+02 0.880932049640679D+02
 0.143303567710354D+03 -.795090135272352D+02 -.478810241069268D+02 -.738540510909415D+02
 0.883113782625428D+02 0.216450257001607D+02 -.760764627200317D+02 -.392780372864651D+02
0.621362585539D-05 0.000000000000D+00 0.000000000000D+00 0.415922905827D-06 0.000000000000D+00  7 -2 2 24 -13 13 -24 21 0 0.13681449D-01 0.18253985D+00 0.85727552D+05 0.85727552D+05 0.85727552D+05 0.11272520D+01  1  2  2  2  7  2        2 0.569660738528D-03 0.100000000000D+01
-.340675581067D-06 0.000000000000D+00 -.238619593700D-07 0.415922905827D-06 0.000000000000D+00  7 -2 2 24 -13 13 -24 21 2 0.13681449D-01 0.18253985D+00 0.85727552D+05 0.85727552D+05 0.85727552D+05 0.11272520D+01  1  2  3  2  7  2        2 -.396875406830D-04 0.100000000000D+01
0.385152082110D-06 0.000000000000D+00 0.000000000000D+00 0.415922905827D-06 0.000000000000D+00  7 -2 2 24 -13 13 -24 21 2 0.13681449D-01 0.18253985D+00 0.85727552D+05 0.85727552D+05 0.85727552D+05 0.11272520D+01  1  2 15  2  7  2        2 0.448689010231D-04 0.100000000000D+01
0.650692663795D-05 0.000000000000D+00 0.000000000000D+00 0.415922905827D-06 0.000000000000D+00  7 -2 2 24 -13 13 -24 21 2 0.13681449D-01 0.22612565D+00 0.11298442D+06 0.11298442D+06 0.11298442D+06 0.11173971D+01  1  2 12  2  7  2        2 0.517479264091D-03 0.100000000000D+01
-.664781746690D-05 0.000000000000D+00 0.000000000000D+00 0.415922905827D-06 0.000000000000D+00  7 -2 2 24 -13 13 -24 21 2 0.13681449D-01 0.18253985D+00 0.85727552D+05 0.85727552D+05 0.85727552D+05 0.11272520D+01  1  2  4  2  7  2        2 -.774448011051D-03 0.100000000000D+01
-.135081513604D-04 0.000000000000D+00 -.366096529930D-05 0.415922905827D-06 0.000000000000D+00  7 -2 2 24 -13 13 -24 21 2 0.13681449D-01 0.22945858D+00 0.85727552D+05 0.85727552D+05 0.85727552D+05 0.11272520D+01  1  2  5  2  7  2        2 -.106899017611D-02 0.100000000000D+01
0.140696246677D-04 0.000000000000D+00 0.356722398826D-05 0.415922905827D-06 0.000000000000D+00  7 -2 2 24 -13 13 -24 21 2 0.13681449D-01 0.18253985D+00 0.85727552D+05 0.85727552D+05 0.85727552D+05 0.11272520D+01  1  2  6  2  7  2        2 0.163906318042D-02 0.100000000000D+01
0.196146240127D-06 0.000000000000D+00 0.000000000000D+00 0.415922905827D-06 0.000000000000D+00  7 -2 21 24 -13 13 -24 -2 2 0.13681449D-01 0.22612565D+00 0.11298442D+06 0.11298442D+06 0.11298442D+06 0.11173971D+01  1  2 12  4  7  2        2 0.594395661504D-05 0.100000000000D+01
-.375007907644D-06 0.000000000000D+00 -.115987470275D-06 0.415922905827D-06 0.000000000000D+00  7 -2 21 24 -13 13 -24 -2 2 0.13681449D-01 0.22945858D+00 0.85727552D+05 0.85727552D+05 0.85727552D+05 0.11272520D+01  1  2  5  4  7  2        2 -.111733555174D-04 0.100000000000D+01
  </mgrwgt>
  </event>
  <event>
  8     66 0.27011060E-05 0.25869662E+03 0.75467711E-02 0.90388637E-01
       -2 -1    0    0    0  501 0.00000000E+00 0.00000000E+00 0.73352024E+03 0.73352031E+03 0.32000000E+00 0.0000E+00 0.9000E+01
        2 -1    0    0  501    0 0.00000000E+00 0.00000000E+00 -.97181051E+03 0.97181056E+03 0.32000000E+00 0.0000E+00 0.9000E+01
       25  2    1    2    0    0 0.17230784E+02 -.16769229E+03 0.68283696E+03 0.76458634E+03 0.29984722E+03 0.0000E+00 0.0000E+00
       23  2    1    2    0    0 -.17230784E+02 0.16769229E+03 -.92112724E+03 0.94074453E+03 0.90040385E+02 0.0000E+00 0.0000E+00
       24  1    3    3    0    0 -.10273191E+03 -.11119339E+03 0.47700107E+03 0.50686788E+03 0.80419002E+02 0.0000E+00 0.9000E+01
      -13  1    4    4    0    0 -.29168478E+02 0.17465269E+03 -.86536073E+03 0.88329133E+03 0.10565837E+00 0.0000E+00 0.9000E+01
       13  1    4    4    0    0 0.11937694E+02 -.69603983E+01 -.55766508E+02 0.57453200E+02 0.10565837E+00 0.0000E+00 0.9000E+01
      -24  1    3    3    0    0 0.11996269E+03 -.56498904E+02 0.20583589E+03 0.25771846E+03 0.80419002E+02 0.0000E+00 0.9000E+01
#aMCatNLO 1  0  0  1  1 0.67121675D+03 0.00000000D+00  -5  7  0 0.00000000D+00 0.00000000D+00 0.00000000D+00 0.00000000D+00 0.00000000D+00
  <mgrwgt>
 0.1452678913D-02    5    2    0
 0.844300171688616D+03 0.000000000000000D+00 0.000000000000000D+00 0.844300171688616D+03
 0.844300171688616D+03 0.000000000000000D+00 0.000000000000000D+00 -.844300171688616D+03
 0.579202867895032D+03 -.102731908220865D+03 -.111193388854182D+03 0.553254852244318D+03
 0.769926760896729D+03 -.291685343564758D+02 0.174652941170323D+03 -.749288171459406D+03
 0.501518469647091D+02 0.119377504039271D+02 -.696064842126711D+01 -.482104474447255D+02
 0.289318867620761D+03 0.119962692173413D+03 -.564989038948739D+02 0.244243766659814D+03
 0.000000000000000D+00 -.000000000000000D+00 -.000000000000000D+00 0.000000000000000D+00
 0.161980600994696D+04 0.000000000000000D+00 0.000000000000000D+00 0.161980600994696D+04
 0.106691638180147D+04 0.000000000000000D+00 0.000000000000000D+00 -.106691638180147D+04
 0.565665498186076D+03 -.674007670304138D+01 0.858712974042320D+02 0.553254852244318D+03
 0.885859369349330D+03 0.109661350329907D+03 0.459661230275986D+03 -.749288171459406D+03
 0.535593178846985D+02 0.206334441253102D+02 0.108910179956345D+02 -.482104474447255D+02
 0.312029748467023D+03 0.170382947243056D+03 0.470104425699189D+02 0.244243766659814D+03
 0.869608457861304D+03 -.293937664995232D+03 -.603433988245772D+03 0.552889628145498D+03
0.552035745899D-03 0.000000000000D+00 0.000000000000D+00 0.143428175197D-04 0.000000000000D+00  7 -2 2 24 -13 13 -24 21 0 0.11284928D+00 0.14950932D+00 0.66923941D+05 0.66923941D+05 0.66923941D+05 0.11363225D+01  1  2  2  1  7  1       -2 0.121579988306D-02 0.100000000000D+01
0.215032963018D-04 0.000000000000D+00 -.211996261860D-05 0.143428175197D-04 0.000000000000D+00  7 -2 2 24 -13 13 -24 21 2 0.11284928D+00 0.14950932D+00 0.66923941D+05 0.66923941D+05 0.66923941D+05 0.11363225D+01  1  2  3  1  7  1       -2 0.611509376555D-04 0.100000000000D+01
0.304367344446D-04 0.000000000000D+00 0.000000000000D+00 0.143428175197D-04 0.000000000000D+00  7 -2 2 24 -13 13 -24 21 2 0.11284928D+00 0.14950932D+00 0.66923941D+05 0.66923941D+05 0.66923941D+05 0.11363225D+01  1  2 15  1  7  1       -2 0.865557923927D-04 0.100000000000D+01
0.131581572151D-03 0.000000000000D+00 -.152337752339D-03 0.143428175197D-04 0.000000000000D+00  7 -2 2 24 -13 13 -24 21 2 0.24526528D+00 0.14950932D+00 0.66923941D+05 0.66923941D+05 0.66923941D+05 0.11363225D+01  1  2  5  1  7  1       -2 0.397052644487D-04 0.100000000000D+01
0.206274638210D-04 0.000000000000D+00 -.128077438064D-04 0.143428175197D-04 0.000000000000D+00  7 21 2 24 -13 13 -24 2 2 0.24526528D+00 0.14950932D+00 0.66923941D+05 0.66923941D+05 0.66923941D+05 0.11363225D+01  1  2  5  3  7  1       -2 0.494670354992D-04 0.100000000000D+01
  </mgrwgt>
  </event>
  <event>
  8     66 0.27011060E-05 0.77790963E+02 0.75467711E-02 0.10138427E+00
       -2 -1    0    0    0  501 0.00000000E+00 0.00000000E+00 0.28826988E+03 0.28827006E+03 0.32000000E+00 0.0000E+00 0.9000E+01
        2 -1    0    0  501    0 0.00000000E+00 0.00000000E+00 -.30572811E+03 0.30572828E+03 0.32000000E+00 0.0000E+00 0.9000E+01
       25  2    1    2    0    0 -.86413366E+02 -.98062112E+02 -.17322478E+03 0.37139124E+03 0.30139870E+03 0.0000E+00 0.0000E+00
       23  2    1    2    0    0 0.86413366E+02 0.98062112E+02 0.15576656E+03 0.22260710E+03 0.90593887E+02 0.0000E+00 0.0000E+00
       24  1    3    3    0    0 -.67286410E+02 -.17658527E+03 -.68256754E+02 0.21641631E+03 0.80419002E+02 0.0000E+00 0.9000E+01
      -13  1    4    4    0    0 0.69876604E+02 0.63747597E+02 0.15832803E+03 0.18442958E+03 0.10565837E+00 0.0000E+00 0.9000E+01
       13  1    4    4    0    0 0.16536762E+02 0.34314515E+02 -.25614686E+01 0.38177516E+02 0.10565837E+00 0.0000E+00 0.9000E+01
      -24  1    3    3    0    0 -.19126956E+02 0.78523155E+02 -.10496803E+03 0.15497493E+03 0.80419002E+02 0.0000E+00 0.9000E+01
#aMCatNLO 1  0  0  2  1 0.10454398D+03 0.00000000D+00  -5  7  0 0.00000000D+00 0.00000000D+00 0.00000000D+00 0.00000000D+00 0.00000000D+00
  <mgrwgt>
 0.6993990508D-03    9    2    0
 0.296870862773301D+03 0.000000000000000D+00 0.000000000000000D+00 0.296870862773301D+03
 0.296870862773301D+03 0.000000000000000D+00 0.000000000000000D+00 -.296870862773301D+03
 0.214502836256136D+03 -.672864105917051D+02 -.176585263476152D+03 -.619228106621356D+02
 0.189164938351252D+03 0.698766779891447D+02 0.637476388294361D+02 0.163819602973228D+03
 0.381184946673640D+02 0.165366899124126D+02 0.343144756188313D+02 -.144023798422432D+01
 0.151955456271849D+03 -.191269573098522D+02 0.785231490278845D+02 -.100456554326868D+03
 0.000000000000000D+00 -.000000000000000D+00 0.000000000000000D+00 -.000000000000000D+00
 0.340464372553031D+03 0.000000000000000D+00 0.000000000000000D+00 0.340464372553031D+03
 0.371450278759067D+03 0.000000000000000D+00 0.000000000000000D+00 -.371450278759067D+03
 0.215601152531638D+03 -.313643050859500D+02 -.187612597937284D+03 -.619228106621356D+02
 0.200542846623157D+03 0.102424909424339D+03 0.537560130853182D+02 0.163819602973228D+03
 0.397153030980417D+02 0.230373361936125D+02 0.323189132834102D+02 -.144023798422432D+01
 0.147016042033454D+03 0.584301735977602D+01 0.708578894811169D+02 -.100456554326868D+03
 0.109039307025807D+03 -.999409578917778D+02 0.306797820874385D+02 -.309859062060364D+02
0.944749957283D-05 0.000000000000D+00 0.000000000000D+00 0.277033206479D-06 0.000000000000D+00  7 -2 2 24 -13 13 -24 21 0 0.44349240D-01 0.47035120D-01 0.51089709D+05 0.51089709D+05 0.51089709D+05 0.11464727D+01  1  2  2  2  7  2        2 0.593786987556D-03 0.100000000000D+01
-.477429573962D-06 0.000000000000D+00 -.362808859434D-07 0.277033206479D-06 0.000000000000D+00  7 -2 2 24 -13 13 -24 21 2 0.44349240D-01 0.47035120D-01 0.51089709D+05 0.51089709D+05 0.51089709D+05 0.11464727D+01  1  2  3  2  7  2        2 -.394412386136D-04 0.100000000000D+01
0.561190751457D-06 0.000000000000D+00 0.000000000000D+00 0.277033206479D-06 0.000000000000D+00  7 -2 2 24 -13 13 -24 21 2 0.44349240D-01 0.47035120D-01 0.51089709D+05 0.51089709D+05 0.51089709D+05 0.11464727D+01  1  2 15  2  7  2        2 0.463608865959D-04 0.100000000000D+01
0.478477462112D-05 0.000000000000D+00 0.000000000000D+00 0.277033206479D-06 0.000000000000D+00  7 -2 2 24 -13 13 -24 21 2 0.44349240D-01 0.61599334D-01 0.82301983D+05 0.82301983D+05 0.82301983D+05 0.11287304D+01  1  2 12  2  7  2        2 0.285326229271D-03 0.100000000000D+01
-.643180421513D-05 0.000000000000D+00 0.000000000000D+00 0.277033206479D-06 0.000000000000D+00  7 -2 2 24 -13 13 -24 21 2 0.44349240D-01 0.47035120D-01 0.51089709D+05 0.51089709D+05 0.51089709D+05 0.11464727D+01  1  2  4  2  7  2        2 -.531341874489D-03 0.100000000000D+01
-.102118969114D-04 0.000000000000D+00 -.472352924839D-05 0.277033206479D-06 0.000000000000D+00  7 -2 2 24 -13 13 -24 21 2 0.44349240D-01 0.66237884D-01 0.51089709D+05 0.51089709D+05 0.51089709D+05 0.11464727D+01  1  2  5  2  7  2        2 -.582798524182D-03 0.100000000000D+01
0.114172857481D-04 0.000000000000D+00 0.445961310763D-05 0.277033206479D-06 0.000000000000D+00  7 -2 2 24 -13 13 -24 21 2 0.44349240D-01 0.47035120D-01 0.51089709D+05 0.51089709D+05 0.51089709D+05 0.11464727D+01  1  2  6  2  7  2        2 0.943200664709D-03 0.100000000000D+01
0.171225987390D-06 0.000000000000D+00 0.000000000000D+00 0.277033206479D-06 0.000000000000D+00  7 -2 21 24 -13 13 -24 -2 2 0.44349240D-01 0.61599334D-01 0.82301983D+05 0.82301983D+05 0.82301983D+05 0.11287304D+01  1  2 12  4  7  2        2 0.263369086760D-04 0.100000000000D+01
-.304840055771D-06 0.000000000000D+00 -.200827521068D-06 0.277033206479D-06 0.000000000000D+00  7 -2 21 24 -13 13 -24 -2 2 0.44349240D-01 0.66237884D-01 0.51089709D+05 0.51089709D+05 0.51089709D+05 0.11464727D+01  1  2  5  4  7  2        2 -.420309887014D-04 0.100000000000D+01
  </mgrwgt>
  </event>
  <event>
  8     66 0.27011060E-05 0.26160708E+03 0.75467711E-02 0.96127417E-01
       -2 -1    0    0    0  501 0.00000000E+00 0.00000000E+00 0.70215129E+02 0.70215859E+02 0.32000000E+00 0.0000E+00 0.9000E+01
        2 -1    0    0  501    0 0.00000000E+00 0.00000000E+00 -.12761702E+04 0.12761703E+04 0.32000000E+00 0.0000E+00 0.9000E+01
       25  2    1    2    0    0 -.19617651E+03 -.19618779E+02 -.56622064E+03 0.67062566E+03 0.30043773E+03 0.0000E+00 0.0000E+00
       23  2    1    2    0    0 0.19617651E+03 0.19618779E+02 -.63973448E+03 0.67576049E+03 0.92314262E+02 0.0000E+00 0.0000E+00
       24  1    3    3    0    0 -.55452006E+02 -.10406492E+03 -.11333552E+03 0.18225419E+03 0.80419002E+02 0.0000E+00 0.9000E+01
      -11  1    4    4    0    0 0.13401448E+03 0.63737791E+01 -.54783076E+03 0.56402044E+03 0.51099893E-03 0.0000E+00 0.9000E+01
       11  1    4    4    0    0 0.62162028E+02 0.13245000E+02 -.91903711E+02 0.11174006E+03 0.51099893E-03 0.0000E+00 0.9000E+01
      -24  1    3    3    0    0 -.14072451E+03 0.84446143E+02 -.45288513E+03 0.48837147E+03 0.80419002E+02 0.0000E+00 0.9000E+01
#aMCatNLO 1  0  0  1  1 0.29494783D+03 0.00000000D+00  -5  7  0 0.00000000D+00 0.00000000D+00 0.00000000D+00 0.00000000D+00 0.00000000D+00
  <mgrwgt>
 0.8029746539D-03    5    2    0
 0.299344245025769D+03 0.000000000000000D+00 0.000000000000000D+00 0.299344245025769D+03
 0.299344245025769D+03 0.000000000000000D+00 0.000000000000000D+00 -.299344245025769D+03
 0.181575169838272D+03 -.554520059305468D+02 -.104064922440811D+03 0.112240337237079D+03
 0.164910450639171D+03 0.134014484852313D+03 0.637377907460044D+01 -.958902994055800D+02
 0.661671501933129D+02 0.621620282127583D+02 0.132449999812871D+02 0.183995649045398D+02
 0.186035719380782D+03 -.140724507134525D+03 0.844461433849239D+02 -.347496027360384D+02
 0.000000000000000D+00 0.000000000000000D+00 -.000000000000000D+00 0.000000000000000D+00
 0.754263414603571D+03 0.000000000000000D+00 0.000000000000000D+00 0.754263414603571D+03
 0.385412639507667D+03 0.000000000000000D+00 0.000000000000000D+00 -.385412639507667D+03
 0.212713752634109D+03 -.142889171196601D+03 -.759257272403080D+02 0.112240337237079D+03
 0.121950372852656D+03 0.704004804954741D+02 0.268461592190848D+02 -.958902994055800D+02
 0.466080144435950D+02 0.371531067182556D+02 0.212934187691854D+02 0.183995649045398D+02
 0.286127388496259D+03 -.245430983383222D+03 0.118142981164989D+03 -.347496027360384D+02
 0.472276525684618D+03 0.280766567366093D+03 -.903568319129510D+02 0.368850775095905D+03
0.736036278407D-05 0.000000000000D+00 0.000000000000D+00 0.571859601354D-06 0.000000000000D+00  7 -2 2 24 -11 11 -24 21 0 0.10802387D-01 0.19633394D+00 0.68438264D+05 0.68438264D+05 0.68438264D+05 0.11354936D+01  1  2  2  1  7  1       -2 0.871040007939D-03 0.100000000000D+01
-.399881505766D-06 0.000000000000D+00 -.282657311189D-07 0.571859601354D-06 0.000000000000D+00  7 -2 2 24 -11 11 -24 21 2 0.10802387D-01 0.19633394D+00 0.68438264D+05 0.68438264D+05 0.68438264D+05 0.11354936D+01  1  2  3  1  7  1       -2 -.610154147166D-04 0.100000000000D+01
0.444647184865D-06 0.000000000000D+00 0.000000000000D+00 0.571859601354D-06 0.000000000000D+00  7 -2 2 24 -11 11 -24 21 2 0.10802387D-01 0.19633394D+00 0.68438264D+05 0.68438264D+05 0.68438264D+05 0.11354936D+01  1  2 15  1  7  1       -2 0.678459293464D-04 0.100000000000D+01
-.177362351425D-05 0.000000000000D+00 -.238193532926D-05 0.571859601354D-06 0.000000000000D+00  7 -2 2 24 -11 11 -24 21 2 0.34951784D-01 0.19633394D+00 0.68438264D+05 0.68438264D+05 0.68438264D+05 0.11354936D+01  1  2  5  1  7  1       -2 -.389811283154D-04 0.100000000000D+01
-.140367374528D-06 0.000000000000D+00 -.322749263933D-06 0.571859601354D-06 0.000000000000D+00  7 21 2 24 -11 11 -24 2 2 0.34951784D-01 0.19633394D+00 0.68438264D+05 0.68438264D+05 0.68438264D+05 0.11354936D+01  1  2  5  3  7  1       -2 -.359147403553D-04 0.100000000000D+01
  </mgrwgt>
  </event>
  <event>
  8     66 0.27011060E-05 0.17876438E+03 0.75467711E-02 0.98980543E-01
       -2 -1    0    0    0  501 0.00000000E+00 0.00000000E+00 0.10035896E+03 0.10035947E+03 0.32000000E+00 0.0000E+00 0.9000E+01
        2 -1    0    0  501    0 0.00000000E+00 0.00000000E+00 -.95269083E+03 0.95269089E+03 0.32000000E+00 0.0000E+00 0.9000E+01
       25  2    1    2    0    0 0.14860039E+03 -.13181488E+03 -.33598900E+03 0.49226374E+03 0.29996290E+03 0.0000E+00 0.0000E+00
       23  2    1    2    0    0 -.14860039E+03 0.13181488E+03 -.51634287E+03 0.56078662E+03 0.91730249E+02 0.0000E+00 0.0000E+00
       24  1    3    3    0    0 0.15498834E+02 0.67925809E+02 -.91494156E+02 0.14033006E+03 0.80419002E+02 0.0000E+00 0.9000E+01
      -13  1    4    4    0    0 -.11473689E+03 0.48438310E+02 -.24376168E+03 0.27373452E+03 0.10565837E+00 0.0000E+00 0.9000E+01
       13  1    4    4    0    0 -.33863502E+02 0.83376568E+02 -.27258119E+03 0.28705210E+03 0.10565837E+00 0.0000E+00 0.9000E+01
      -24  1    3    3    0    0 0.13310156E+03 -.19974069E+03 -.24449484E+03 0.35193367E+03 0.80419002E+02 0.0000E+00 0.9000E+01
#aMCatNLO 1  0  0  1  2 0.10646953D+03 0.00000000D+00  -5  7  0 0.00000000D+00 0.00000000D+00 0.00000000D+00 0.00000000D+00 0.00000000D+00
  <mgrwgt>
 0.6213080687D-03    9    2    0
 0.309210868082999D+03 0.000000000000000D+00 0.000000000000000D+00 0.309210868082999D+03
 0.309210868082999D+03 0.000000000000000D+00 0.000000000000000D+00 -.309210868082999D+03
 0.112853788490964D+03 0.154988341836613D+02 0.679258090329980D+02 0.376115969955103D+02
 0.130154559196113D+03 -.114736997789999D+03 0.484382648966088D+02 -.378069452809679D+02
 0.113111585212624D+03 -.338633957879778D+02 0.833766141106440D+02 -.685262092521119D+02
 0.262301803266297D+03 0.133101559394315D+03 -.199740688040251D+03 0.687215575375695D+02
 0.000000000000000D+00 -.000000000000000D+00 -.000000000000000D+00 0.000000000000000D+00
 0.370497379971468D+03 0.000000000000000D+00 0.000000000000000D+00 0.370497379971468D+03
 0.363708268712329D+03 0.000000000000000D+00 0.000000000000000D+00 -.363708268712329D+03
 0.126299278671083D+03 0.162563173208700D+02 0.883481282035783D+02 0.376115969955103D+02
 0.139670766320154D+03 -.113882364661117D+03 0.714798214335570D+02 -.378069452809679D+02
 0.128904106026154D+03 -.330968456984109D+02 0.104043385184995D+03 -.685262092521119D+02
 0.232645732507042D+03 0.134669234927815D+03 -.157474968147115D+03 0.687215575375695D+02
 0.106685765159366D+03 -.394634188915702D+01 -.106396366675015D+03 0.678911125913931D+01
0.427640000142D-05 0.000000000000D+00 0.000000000000D+00 0.807233487542D-06 0.000000000000D+00  7 -2 2 24 -13 13 -24 21 0 0.15439884D-01 0.14656786D+00 0.82390485D+05 0.82390485D+05 0.82390485D+05 0.11286914D+01  1  2  2  1  7  1       -2 0.444778485668D-03 0.100000000000D+01
-.235978367896D-06 0.000000000000D+00 -.164225020074D-07 0.807233487542D-06 0.000000000000D+00  7 -2 2 24 -13 13 -24 21 2 0.15439884D-01 0.14656786D+00 0.82390485D+05 0.82390485D+05 0.82390485D+05 0.11286914D+01  1  2  3  1  7  1       -2 -.312671325763D-04 0.100000000000D+01
0.273602599581D-06 0.000000000000D+00 0.000000000000D+00 0.807233487542D-06 0.000000000000D+00  7 -2 2 24 -13 13 -24 21 2 0.15439884D-01 0.14656786D+00 0.82390485D+05 0.82390485D+05 0.82390485D+05 0.11286914D+01  1  2 15  1  7  1       -2 0.362523430879D-04 0.100000000000D+01
0.199944175182D-05 0.000000000000D+00 0.000000000000D+00 0.807233487542D-06 0.000000000000D+00  7 -2 2 24 -13 13 -24 21 2 0.19620356D-01 0.14656786D+00 0.12004144D+06 0.12004144D+06 0.12004144D+06 0.11152696D+01  1  2 12  1  7  1       -2 0.174751930498D-03 0.100000000000D+01
-.199740485290D-05 0.000000000000D+00 0.000000000000D+00 0.807233487542D-06 0.000000000000D+00  7 -2 2 24 -13 13 -24 21 2 0.15439884D-01 0.14656786D+00 0.82390485D+05 0.82390485D+05 0.82390485D+05 0.11286914D+01  1  2  4  1  7  1       -2 -.264656133106D-03 0.100000000000D+01
-.444785876665D-05 0.000000000000D+00 -.195189420022D-05 0.807233487542D-06 0.000000000000D+00  7 -2 2 24 -13 13 -24 21 2 0.21796228D-01 0.14656786D+00 0.82390485D+05 0.82390485D+05 0.82390485D+05 0.11286914D+01  1  2  5  1  7  1       -2 -.335693958716D-03 0.100000000000D+01
0.493512368301D-05 0.000000000000D+00 0.184135963913D-05 0.807233487542D-06 0.000000000000D+00  7 -2 2 24 -13 13 -24 21 2 0.15439884D-01 0.14656786D+00 0.82390485D+05 0.82390485D+05 0.82390485D+05 0.11286914D+01  1  2  6  1  7  1       -2 0.653903863530D-03 0.100000000000D+01
0.655753801116D-07 0.000000000000D+00 0.000000000000D+00 0.807233487542D-06 0.000000000000D+00  7 21 2 24 -13 13 -24 2 2 0.19620356D-01 0.14656786D+00 0.12004144D+06 0.12004144D+06 0.12004144D+06 0.11152696D+01  1  2 12  3  7  1       -2 0.734981989135D-04 0.100000000000D+01
-.136070300150D-06 0.000000000000D+00 -.834108704608D-07 0.807233487542D-06 0.000000000000D+00  7 21 2 24 -13 13 -24 2 2 0.21796228D-01 0.14656786D+00 0.82390485D+05 0.82390485D+05 0.82390485D+05 0.11286914D+01  1  2  5  3  7  1       -2 -.130259528590D-03 0.100000000000D+01
  </mgrwgt>
  </event>
  <event>
  8     66 0.27011060E-05 0.19639570E+03 0.75467711E-02 0.95652423E-01
       -2 -1    0    0    0  501 0.00000000E+00 0.00000000E+00 0.51953765E+03 0.51953775E+03 0.32000000E+00 0.0000E+00 0.9000E+01
        2 -1    0    0  501    0 0.00000000E+00 0.00000000E+00 -.41378856E+03 0.41378868E+03 0.32000000E+00 0.0000E+00 0.9000E+01
       25  2    1    2    0    0 0.18598401E+03 -.34719155E+03 0.16908326E+03 0.52372551E+03 0.30094391E+03 0.0000E+00 0.0000E+00
       23  2    1    2    0    0 -.18598401E+03 0.34719155E+03 -.63334169E+02 0.40960091E+03 0.92895989E+02 0.0000E+00 0.0000E+00
       24  1    3    3    0    0 -.49198555E+02 -.62486910E+02 0.70020511E+02 0.13302331E+03 0.80419002E+02 0.0000E+00 0.9000E+01
      -13  1    4    4    0    0 -.34006495E+02 0.55665236E+02 -.47062507E+02 0.80436005E+02 0.10565837E+00 0.0000E+00 0.9000E+01
       13  1    4    4    0    0 -.15197751E+03 0.29152632E+03 -.16271661E+02 0.32916491E+03 0.10565837E+00 0.0000E+00 0.9000E+01
      -24  1    3    3    0    0 0.23518256E+03 -.28470464E+03 0.99062749E+02 0.39070221E+03 0.80419002E+02 0.0000E+00 0.9000E+01
#aMCatNLO 1  0  0  1  2 0.28287701D+02 0.00000000D+00  -5  7  0 0.00000000D+00 0.00000000D+00 0.00000000D+00 0.00000000D+00 0.00000000D+00
  <mgrwgt>
 0.7513764125D-03    9    2    0
 0.463658103354055D+03 0.000000000000000D+00 0.000000000000000D+00 0.463658103354055D+03
 0.463658103354055D+03 0.000000000000000D+00 0.000000000000000D+00 -.463658103354055D+03
 0.125900485256939D+03 -.491985554027953D+02 -.624869098445874D+02 0.553046515034186D+02
 0.863239206358688D+02 -.340063421944694D+02 0.556649314363822D+02 -.565402809745698D+02
 0.333154228619554D+03 -.151977665524618D+03 0.291526621632122D+03 -.539143590200166D+02
 0.381937572195749D+03 0.235182563121883D+03 -.284704643223917D+03 0.551499884911678D+02
 0.000000000000000D+00 0.000000000000000D+00 -.000000000000000D+00 0.000000000000000D+00
 0.686424056526920D+03 0.000000000000000D+00 0.000000000000000D+00 0.686424056526920D+03
 0.464772672958944D+03 0.000000000000000D+00 0.000000000000000D+00 -.464772672958944D+03
 0.126659669570436D+03 -.527835771081491D+02 -.610798285121616D+02 0.553046515034186D+02
 0.879501146898857D+02 -.364801140360707D+02 0.566358594990491D+02 -.565402809745698D+02
 0.340873870166386D+03 -.161545308392978D+03 0.295281815542184D+03 -.539143590200166D+02
 0.372263908893268D+03 0.224476881215083D+03 -.280502781589592D+03 0.551499884911678D+02
 0.223449166165888D+03 0.263321183221149D+02 -.103350649394801D+02 0.221651383567975D+03
0.493837698199D-04 0.000000000000D+00 0.000000000000D+00 0.449955219595D-06 0.000000000000D+00  7 -2 2 24 -13 13 -24 21 0 0.79928886D-01 0.63659795D-01 0.19582013D+06 0.19582013D+06 0.19582013D+06 0.10985306D+01  1  2  2  1  7  1       -2 0.654039409424D-03 0.100000000000D+01
-.273627673384D-05 0.000000000000D+00 -.189646679154D-06 0.449955219595D-06 0.000000000000D+00  7 -2 2 24 -13 13 -24 21 2 0.79928886D-01 0.63659795D-01 0.19582013D+06 0.19582013D+06 0.19582013D+06 0.10985306D+01  1  2  3  1  7  1       -2 -.437324677351D-04 0.100000000000D+01
0.310034814098D-05 0.000000000000D+00 0.000000000000D+00 0.449955219595D-06 0.000000000000D+00  7 -2 2 24 -13 13 -24 21 2 0.79928886D-01 0.63659795D-01 0.19582013D+06 0.19582013D+06 0.19582013D+06 0.10985306D+01  1  2 15  1  7  1       -2 0.495512289989D-04 0.100000000000D+01
0.162358728697D-02 0.000000000000D+00 0.000000000000D+00 0.449955219595D-06 0.000000000000D+00  7 -2 2 24 -13 13 -24 21 2 0.11839054D+00 0.63659795D-01 0.20900551D+06 0.20900551D+06 0.20900551D+06 0.10963593D+01  1  2 12  1  7  1       -2 0.101048297400D-01 0.100000000000D+01
-.151114771244D-02 0.000000000000D+00 0.000000000000D+00 0.449955219595D-06 0.000000000000D+00  7 -2 2 24 -13 13 -24 21 2 0.79928886D-01 0.63659795D-01 0.19582013D+06 0.19582013D+06 0.19582013D+06 0.10985306D+01  1  2  4  1  7  1       -2 -.241518768039D-01 0.100000000000D+01
-.163969480593D-02 0.000000000000D+00 -.192197306227D-04 0.449955219595D-06 0.000000000000D+00  7 -2 2 24 -13 13 -24 21 2 0.11843477D+00 0.63659795D-01 0.19582013D+06 0.19582013D+06 0.19582013D+06 0.10985306D+01  1  2  5  1  7  1       -2 -.102565939863D-01 0.100000000000D+01
0.152891261001D-02 0.000000000000D+00 0.178238667707D-04 0.449955219595D-06 0.000000000000D+00  7 -2 2 24 -13 13 -24 21 2 0.79928886D-01 0.63659795D-01 0.19582013D+06 0.19582013D+06 0.19582013D+06 0.10985306D+01  1  2  6  1  7  1       -2 0.244358037914D-01 0.100000000000D+01
0.762680485520D-04 0.000000000000D+00 0.000000000000D+00 0.449955219595D-06 0.000000000000D+00  7 21 2 24 -13 13 -24 2 2 0.11839054D+00 0.63659795D-01 0.20900551D+06 0.20900551D+06 0.20900551D+06 0.10963593D+01  1  2 12  3  7  1       -2 0.429124847465D-02 0.100000000000D+01
-.764373484782D-04 0.000000000000D+00 -.903475071084D-06 0.449955219595D-06 0.000000000000D+00  7 21 2 24 -13 13 -24 2 2 0.11843477D+00 0.63659795D-01 0.19582013D+06 0.19582013D+06 0.19582013D+06 0.10985306D+01  1  2  5  3  7  1       -2 -.433189297406D-02 0.100000000000D+01
  </mgrwgt>
  </event>
  <event>
  8     66 0.27011060E-05 0.12670547E+03 0.75467711E-02 0.10153415E+00
       -2 -1    0    0    0  501 0.00000000E+00 0.00000000E+00 0.44673321E+02 0.44674467E+02 0.32000000E+00 0.0000E+00 0.9000E+01
        2 -1    0    0  501    0 0.00000000E+00 0.00000000E+00 -.20079363E+04 0.20079364E+04 0.32000000E+00 0.0000E+00 0.9000E+01
       25  2    1    2    0    0 0.14245909E+03 -.94403018E+02 -.77489513E+03 0.84874978E+03 0.30117637E+03 0.0000E+00 0.0000E+00
       23  2    1    2    0    0 -.14245909E+03 0.94403018E+02 -.11883679E+04 0.12038610E+04 0.88637815E+02 0.0000E+00 0.0000E+00
       24  1    3    3    0    0 0.19091539E+03 -.30906937E+02 -.63527940E+03 0.66891783E+03 0.80419002E+02 0.0000E+00 0.9000E+01
      -11  1    4    4    0    0 -.78296219E+02 0.53688830E+02 -.37046810E+03 0.38243876E+03 0.51099893E-03 0.0000E+00 0.9000E+01
       11  1    4    4    0    0 -.64162873E+02 0.40714188E+02 -.81789978E+03 0.82142229E+03 0.51099893E-03 0.0000E+00 0.9000E+01
      -24  1    3    3    0    0 -.48456296E+02 -.63496081E+02 -.13961573E+03 0.17983195E+03 0.80419002E+02 0.0000E+00 0.9000E+01
#aMCatNLO 1  0  0  1  2 0.73008789D+02 0.00000000D+00  -5  7  0 0.00000000D+00 0.00000000D+00 0.00000000D+00 0.00000000D+00 0.00000000D+00
  <mgrwgt>
 0.8568233403D-03    9    2    0
 0.299503565714627D+03 0.000000000000000D+00 0.000000000000000D+00 0.299503565714627D+03
 0.299503565714627D+03 0.000000000000000D+00 0.000000000000000D+00 -.299503565714627D+03
 0.210026580850990D+03 0.190915388496387D+03 -.309069369732867D+02 0.154927206064588D+02
 0.962786719366984D+02 -.782962193756114D+02 0.536888300679174D+02 -.160248003831199D+02
 0.134068333134304D+03 -.641628734676331D+02 0.407141877122909D+02 -.110452698186670D+03
 0.158633545507261D+03 -.484562956531426D+02 -.634960808069215D+02 0.110984777963331D+03
 0.000000000000000D+00 -.000000000000000D+00 -.000000000000000D+00 0.000000000000000D+00
 0.482046420640454D+03 0.000000000000000D+00 0.000000000000000D+00 0.482046420640454D+03
 0.309109767286894D+03 0.000000000000000D+00 0.000000000000000D+00 -.309109767286894D+03
 0.223733736481512D+03 0.207925225711341D+03 -.108002317894558D+02 0.154927206064588D+02
 0.958235459780363D+02 -.707629635087395D+02 0.625936157443137D+02 -.160248003831199D+02
 0.133798124307898D+03 -.536585358083963D+02 0.531309802892359D+02 -.110452698186670D+03
 0.150084587569924D+03 -.363499664683038D+02 -.491856327584261D+02 0.110984777963331D+03
 0.187716193589979D+03 -.471537599259015D+02 -.557387314856678D+02 0.172936653353560D+03
0.870389535872D-05 0.000000000000D+00 0.000000000000D+00 0.635509660990D-07 0.000000000000D+00  7 -2 2 24 -11 11 -24 21 0 0.68729087D-02 0.30891337D+00 0.60941063D+05 0.60941063D+05 0.60941063D+05 0.11398120D+01  1  2  2  1  7  1       -2 0.833154261889D-03 0.100000000000D+01
-.461583071936D-06 0.000000000000D+00 -.334252499658D-07 0.635509660990D-07 0.000000000000D+00  7 -2 2 24 -11 11 -24 21 2 0.68729087D-02 0.30891337D+00 0.60941063D+05 0.60941063D+05 0.60941063D+05 0.11398120D+01  1  2  3  1  7  1       -2 -.574021397913D-04 0.100000000000D+01
0.557841819800D-06 0.000000000000D+00 0.000000000000D+00 0.635509660990D-07 0.000000000000D+00  7 -2 2 24 -11 11 -24 21 2 0.68729087D-02 0.30891337D+00 0.60941063D+05 0.60941063D+05 0.60941063D+05 0.11398120D+01  1  2 15  1  7  1       -2 0.693728086416D-04 0.100000000000D+01
0.243535320825D-04 0.000000000000D+00 0.000000000000D+00 0.635509660990D-07 0.000000000000D+00  7 -2 2 24 -11 11 -24 21 2 0.11115393D-01 0.30891337D+00 0.80436212D+05 0.80436212D+05 0.80436212D+05 0.11295644D+01  1  2 12  1  7  1       -2 0.142270034338D-02 0.100000000000D+01
-.241444090482D-04 0.000000000000D+00 0.000000000000D+00 0.635509660990D-07 0.000000000000D+00  7 -2 2 24 -11 11 -24 21 2 0.68729087D-02 0.30891337D+00 0.60941063D+05 0.60941063D+05 0.60941063D+05 0.11398120D+01  1  2  4  1  7  1       -2 -.300258139353D-02 0.100000000000D+01
-.265309484939D-04 0.000000000000D+00 -.313477018740D-05 0.635509660990D-07 0.000000000000D+00  7 -2 2 24 -11 11 -24 21 2 0.11415616D-01 0.30891337D+00 0.60941063D+05 0.60941063D+05 0.60941063D+05 0.11398120D+01  1  2  5  1  7  1       -2 -.152451518866D-02 0.100000000000D+01
0.251750743758D-04 0.000000000000D+00 0.277043021817D-05 0.635509660990D-07 0.000000000000D+00  7 -2 2 24 -11 11 -24 21 2 0.68729087D-02 0.30891337D+00 0.60941063D+05 0.60941063D+05 0.60941063D+05 0.11398120D+01  1  2  6  1  7  1       -2 0.313075419451D-02 0.100000000000D+01
0.133141510804D-05 0.000000000000D+00 0.000000000000D+00 0.635509660990D-07 0.000000000000D+00  7 21 2 24 -11 11 -24 2 2 0.11115393D-01 0.30891337D+00 0.80436212D+05 0.80436212D+05 0.80436212D+05 0.11295644D+01  1  2 12  3  7  1       -2 0.111803625856D-02 0.100000000000D+01
-.136971869246D-05 0.000000000000D+00 -.178822196205D-06 0.635509660990D-07 0.000000000000D+00  7 21 2 24 -11 11 -24 2 2 0.11415616D-01 0.30891337D+00 0.60941063D+05 0.60941063D+05 0.60941063D+05 0.11398120D+01  1  2  5  3  7  1       -2 -.113269580472D-02 0.100000000000D+01
  </mgrwgt>
  </event>
  <event>
  8     66 0.27011060E-05 0.23644628E+03 0.75467711E-02 0.92665090E-01
       -2 -1    0    0    0  501 0.00000000E+00 0.00000000E+00 0.44726526E+02 0.44727671E+02 0.32000000E+00 0.0000E+00 0.9000E+01
        2 -1    0    0  501    0 0.00000000E+00 0.00000000E+00 -.14857317E+04 0.14857317E+04 0.32000000E+00 0.0000E+00 0.9000E+01
       25  2    1    2    0    0 0.14508311E+03 -.55008242E+01 -.78411647E+03 0.85219044E+03 0.30051712E+03 0.0000E+00 0.0000E+00
       23  2    1    2    0    0 -.14508311E+03 0.55008242E+01 -.65688867E+03 0.67826893E+03 0.86409757E+02 0.0000E+00 0.0000E+00
       24  1    3    3    0    0 0.93299028E+02 0.11854571E+03 -.48995440E+03 0.51892227E+03 0.80419002E+02 0.0000E+00 0.9000E+01
      -11  1    4    4    0    0 -.47339456E+02 -.86974996E+00 -.78721850E+02 0.91863541E+02 0.51099893E-03 0.0000E+00 0.9000E+01
       11  1    4    4    0    0 -.97743659E+02 0.63705741E+01 -.57816682E+03 0.58640539E+03 0.51099893E-03 0.0000E+00 0.9000E+01
      -24  1    3    3    0    0 0.51784086E+02 -.12404653E+03 -.29416207E+03 0.33326817E+03 0.80419002E+02 0.0000E+00 0.9000E+01
#aMCatNLO 1  0  0  2  2 0.50238423D+03 0.00000000D+00  -5  7  0 0.00000000D+00 0.00000000D+00 0.00000000D+00 0.00000000D+00 0.00000000D+00
  <mgrwgt>
 0.1281661981D-02    5    2    0
 0.257783859751650D+03 0.000000000000000D+00 0.000000000000000D+00 0.257783859751650D+03
 0.257783859751650D+03 0.000000000000000D+00 0.000000000000000D+00 -.257783859751650D+03
 0.171001094991595D+03 0.932990279870376D+02 0.118545709317648D+03 -.404533224886968D+01
 0.526697581483851D+02 -.473394558763712D+02 -.869749954998295D+00 0.230721233473269D+02
 0.124771701600397D+03 -.977436585435029D+02 0.637057413293647D+01 -.772888770781824D+02
 0.167125164762924D+03 0.517840864328365D+02 -.124046533495586D+03 0.582620859797252D+02
 0.000000000000000D+00 0.000000000000000D+00 -.000000000000000D+00 -.000000000000000D+00
 0.606472985753861D+03 0.000000000000000D+00 0.000000000000000D+00 0.606472985753861D+03
 0.615860026781338D+03 0.000000000000000D+00 0.000000000000000D+00 -.615860026781338D+03
 0.229925649507301D+03 -.406454587892476D+02 0.211495083426995D+03 -.404533224886968D+01
 0.110954831113392D+03 -.102004334020237D+03 0.370643698548191D+02 0.230721233473269D+02
 0.256000791219823D+03 -.224954868145090D+03 0.946474610488523D+02 -.772888770781824D+02
 0.122979818525512D+03 -.451362702931271D+02 -.567896667670632D+02 0.582620859797252D+02
 0.502471922169172D+03 0.412740931247702D+03 -.286417247563603D+03 -.938704102747624D+01
0.698400148920D-05 0.000000000000D+00 0.000000000000D+00 0.418355632099D-07 0.000000000000D+00  7 -2 2 24 -11 11 -24 21 0 0.68810947D-02 0.22857419D+00 0.55906843D+05 0.55906843D+05 0.55906843D+05 0.11430541D+01  1  2  2  2  7  2        2 0.126284838498D-02 0.100000000000D+01
-.384478439959D-06 0.000000000000D+00 -.268204046483D-07 0.418355632099D-07 0.000000000000D+00  7 -2 2 24 -11 11 -24 21 2 0.68810947D-02 0.22857419D+00 0.55906843D+05 0.55906843D+05 0.55906843D+05 0.11430541D+01  1  2  3  2  7  2        2 -.908348344169D-04 0.100000000000D+01
0.452605964860D-06 0.000000000000D+00 0.000000000000D+00 0.418355632099D-07 0.000000000000D+00  7 -2 2 24 -11 11 -24 21 2 0.68810947D-02 0.22857419D+00 0.55906843D+05 0.55906843D+05 0.55906843D+05 0.11430541D+01  1  2 15  2  7  2        2 0.106930281652D-03 0.100000000000D+01
0.109876362841D-05 0.000000000000D+00 -.193990758660D-05 0.418355632099D-07 0.000000000000D+00  7 -2 2 24 -11 11 -24 21 2 0.68810947D-02 0.69238343D+00 0.55906843D+05 0.55906843D+05 0.55906843D+05 0.11430541D+01  1  2  5  2  7  2        2 0.271121451547D-05 0.100000000000D+01
0.233993956884D-06 0.000000000000D+00 -.245070715322D-06 0.418355632099D-07 0.000000000000D+00  7 -2 21 24 -11 11 -24 -2 2 0.68810947D-02 0.69238343D+00 0.55906843D+05 0.55906843D+05 0.55906843D+05 0.11430541D+01  1  2  5  4  7  2        2 0.693379858237D-08 0.100000000000D+01
  </mgrwgt>
  </event>
  <event>
  8     66 0.27011060E-05 0.55867214E+03 0.75467711E-02 0.89406733E-01
       -2 -1    0    0    0  501 0.00000000E+00 0.00000000E+00 0.66136885E+03 0.66136892E+03 0.32000000E+00 0.0000E+00 0.9000E+01
        2 -1    0    0  501    0 0.00000000E+00 0.00000000E+00 -.50887262E+03 0.50887272E+03 0.32000000E+00 0.0000E+00 0.9000E+01
       25  2    1    2    0    0 0.18540367E+02 0.53199069E+03 0.76029492E+01 0.61110913E+03 0.30006453E+03 0.0000E+00 0.0000E+00
       23  2    1    2    0    0 -.18540367E+02 -.53199069E+03 0.14489328E+03 0.55913251E+03 0.90979410E+02 0.0000E+00 0.0000E+00
       24  1    3    3    0    0 -.45433619E+01 0.47967086E+02 -.65686510E+02 0.11447016E+03 0.80419002E+02 0.0000E+00 0.9000E+01
      -11  1    4    4    0    0 -.87803309E+01 -.13565305E+03 -.30485851E+01 0.13597109E+03 0.51099893E-03 0.0000E+00 0.9000E+01
       11  1    4    4    0    0 -.97600360E+01 -.39633765E+03 0.14794187E+03 0.42316142E+03 0.51099893E-03 0.0000E+00 0.9000E+01
      -24  1    3    3    0    0 0.23083729E+02 0.48402361E+03 0.73289459E+02 0.49663898E+03 0.80419002E+02 0.0000E+00 0.9000E+01
#aMCatNLO 1  0  0  1  2 0.43116438D+03 0.00000000D+00  -5  7  0 0.00000000D+00 0.00000000D+00 0.00000000D+00 0.00000000D+00 0.00000000D+00
  <mgrwgt>
 0.1660907473D-02    3    2    0
 0.580131536188716D+03 0.000000000000000D+00 0.000000000000000D+00 0.580131536188716D+03
 0.580131536188716D+03 0.000000000000000D+00 0.000000000000000D+00 -.580131536188716D+03
 0.124087971008078D+03 -.454336191877776D+01 0.479670859576647D+02 -.812965258897094D+02
 0.137541161400170D+03 -.878033089822751D+01 -.135653048410531D+03 -.209458188084278D+02
 0.407356351671799D+03 -.976003600096178D+01 -.396337645764510D+03 0.935970592191028D+02
 0.491277588297384D+03 0.230837288179670D+02 0.484023608217376D+03 0.864528547903441D+01
 0.000000000000000D+00 0.000000000000000D+00 0.000000000000000D+00 -.000000000000000D+00
 0.656028175280327D+03 0.000000000000000D+00 0.000000000000000D+00 0.656028175280327D+03
 0.187041269193167D+04 0.000000000000000D+00 0.000000000000000D+00 -.187041269193167D+04
 0.122031628343182D+03 -.380851322749205D+02 0.191023542942666D+02 -.812965258897094D+02
 0.182085636115805D+03 -.523398388374934D+02 -.173138652023767D+03 -.209458188084278D+02
 0.533392895334750D+03 -.137967603740310D+03 -.506668048743238D+03 0.935970592191028D+02
 0.400275410319567D+03 -.984192559860225D+02 0.379462906279745D+03 0.864528547903441D+01
 0.128865529709869D+04 0.326811830838746D+03 0.281241440192994D+03 -.121438451665134D+04
0.280768280820D-03 0.000000000000D+00 0.000000000000D+00 0.835322639660D-05 0.000000000000D+00  7 -2 2 24 -11 11 -24 21 0 0.10174907D+00 0.78288108D-01 0.31211457D+06 0.31211457D+06 0.31211457D+06 0.10832822D+01  1  2  2  1  7  1       -2 0.165841719637D-02 0.100000000000D+01
-.155712941423D-04 0.000000000000D+00 -.107822412633D-05 0.835322639660D-05 0.000000000000D+00  7 -2 2 24 -11 11 -24 21 2 0.10174907D+00 0.78288108D-01 0.31211457D+06 0.31211457D+06 0.31211457D+06 0.10832822D+01  1  2  3  1  7  1       -2 -.107932848149D-03 0.100000000000D+01
0.159305621777D-04 0.000000000000D+00 0.000000000000D+00 0.835322639660D-05 0.000000000000D+00  7 -2 2 24 -11 11 -24 21 2 0.10174907D+00 0.78288108D-01 0.31211457D+06 0.31211457D+06 0.31211457D+06 0.10832822D+01  1  2 15  1  7  1       -2 0.110423124292D-03 0.100000000000D+01
  </mgrwgt>
  </event>
  <event>
  8     66 0.27011060E-05 0.14475299E+03 0.75467711E-02 0.98368249E-01
       -2 -1    0    0    0  501 0.00000000E+00 0.00000000E+00 0.84259349E+03 0.84259356E+03 0.32000000E+00 0.0000E+00 0.9000E+01
        2 -1    0    0  501    0 0.00000000E+00 0.00000000E+00 -.99758660E+02 0.99759173E+02 0.32000000E+00 0.0000E+00 0.9000E+01
       25  2    1    2    0    0 -.46615952E+02 -.20955235E+02 0.77610188E+03 0.83338722E+03 0.29931247E+03 0.0000E+00 0.0000E+00
       23  2    1    2    0    0 0.46615952E+02 0.20955235E+02 -.33267049E+02 0.10896551E+03 0.90302916E+02 0.0000E+00 0.0000E+00
       24  1    3    3    0    0 -.15739296E+02 -.94510709E+02 0.14196232E+03 0.18921024E+03 0.80419002E+02 0.0000E+00 0.9000E+01
      -11  1    4    4    0    0 0.17129845E+02 0.67221563E+01 0.31449783E+02 0.36437725E+02 0.51099893E-03 0.0000E+00 0.9000E+01
       11  1    4    4    0    0 0.29486108E+02 0.14233079E+02 -.64716832E+02 0.72527784E+02 0.51099893E-03 0.0000E+00 0.9000E+01
      -24  1    3    3    0    0 -.30876657E+02 0.73555474E+02 0.63413956E+03 0.64417698E+03 0.80419002E+02 0.0000E+00 0.9000E+01
#aMCatNLO 1  0  0  1  2 0.31899319D+03 0.00000000D+00  -5  7  0 0.00000000D+00 0.00000000D+00 0.00000000D+00 0.00000000D+00 0.00000000D+00
  <mgrwgt>
 0.1164689854D-02    3    2    0
 0.289924590201119D+03 0.000000000000000D+00 0.000000000000000D+00 0.289924590201119D+03
 0.289924590201119D+03 0.000000000000000D+00 0.000000000000000D+00 -.289924590201119D+03
 0.125633067963160D+03 -.157392955495195D+02 -.945107091474446D+02 -.116812774779757D+02
 0.189276724079092D+02 0.171298446109320D+02 0.672215633380755D+01 0.443145806820983D+01
 0.200777505186389D+03 0.294861076004480D+02 0.142330788147732D+02 -.198089867269625D+03
 0.234510934844780D+03 -.308766566618605D+02 0.735554739988639D+02 0.205339686679391D+03
 0.000000000000000D+00 0.000000000000000D+00 0.000000000000000D+00 -.000000000000000D+00
 0.396751048394665D+03 0.000000000000000D+00 0.000000000000000D+00 0.396751048394665D+03
 0.717220187103447D+03 0.000000000000000D+00 0.000000000000000D+00 -.717220187103447D+03
 0.196098696459668D+03 -.292576662489564D+02 -.176054024438402D+03 -.116812774779757D+02
 0.164132976948910D+02 0.156449047089474D+02 -.223505643301637D+01 0.443145806820983D+01
 0.218776693437952D+03 0.118574808601453D+02 -.921034539221924D+02 -.198089867269625D+03
 0.230513192779331D+03 -.504158170325577D+02 -.443054687177546D+02 0.205339686679391D+03
 0.452169355126270D+03 0.521710977124214D+02 0.314698003511366D+03 -.320469138708781D+03
0.512664780019D-04 0.000000000000D+00 0.000000000000D+00 0.751561685825D-06 0.000000000000D+00  7 -2 2 24 -11 11 -24 21 0 0.12962981D+00 0.15347530D-01 0.20953428D+05 0.20953428D+05 0.20953428D+05 0.11820797D+01  1  2  2  1  7  1       -2 0.110260256066D-02 0.100000000000D+01
-.117742357612D-05 0.000000000000D+00 -.196876774301D-06 0.751561685825D-06 0.000000000000D+00  7 -2 2 24 -11 11 -24 21 2 0.12962981D+00 0.15347530D-01 0.20953428D+05 0.20953428D+05 0.20953428D+05 0.11820797D+01  1  2  3  1  7  1       -2 -.353843946258D-04 0.100000000000D+01
0.324339202196D-05 0.000000000000D+00 0.000000000000D+00 0.751561685825D-06 0.000000000000D+00  7 -2 2 24 -11 11 -24 21 2 0.12962981D+00 0.15347530D-01 0.20953428D+05 0.20953428D+05 0.20953428D+05 0.11820797D+01  1  2 15  1  7  1       -2 0.974716878099D-04 0.100000000000D+01
  </mgrwgt>
  </event>
  <event>
  8     66 0.27011060E-05 0.15790292E+03 0.75467711E-02 0.10014305E+00
       -4 -1    0    0    0  501 0.00000000E+00 0.00000000E+00 0.28413584E+03 0.28414007E+03 0.15500000E+01 0.0000E+00 0.9000E+01
        4 -1    0    0  501    0 0.00000000E+00 0.00000000E+00 -.56298884E+03 0.56299097E+03 0.15500000E+01 0.0000E+00 0.9000E+01
       25  2    1    2    0    0 0.10605593E+03 -.13264289E+03 0.15055750E+03 0.37625017E+03 0.30009104E+03 0.0000E+00 0.0000E+00
       23  2    1    2    0    0 -.10605593E+03 0.13264289E+03 -.42941050E+03 0.47088087E+03 0.92159776E+02 0.0000E+00 0.0000E+00
       24  1    3    3    0    0 0.16952868E+03 -.19879540E+02 0.55519252E+02 0.19668445E+03 0.80419002E+02 0.0000E+00 0.9000E+01
      -11  1    4    4    0    0 0.11447467E+02 0.20968903E+02 -.22289413E+02 0.32673496E+02 0.51099893E-03 0.0000E+00 0.9000E+01
       11  1    4    4    0    0 -.11750339E+03 0.11167399E+03 -.40712108E+03 0.43820738E+03 0.51099893E-03 0.0000E+00 0.9000E+01
      -24  1    3    3    0    0 -.63472754E+02 -.11276335E+03 0.95038244E+02 0.17956572E+03 0.80419002E+02 0.0000E+00 0.9000E+01
#aMCatNLO 1  0  0  1  2 0.10183736D+03 0.00000000D+00  -5  7  0 0.00000000D+00 0.00000000D+00 0.00000000D+00 0.00000000D+00 0.00000000D+00
  <mgrwgt>
 0.4484834174D-04    9    2    0
 0.399959999393541D+03 0.000000000000000D+00 0.000000000000000D+00 0.399959999393541D+03
 0.399959999393541D+03 0.000000000000000D+00 0.000000000000000D+00 -.399959999393541D+03
 0.227646781222258D+03 0.169528680528742D+03 -.198795395559138D+02 0.127360399778395D+03
 0.268317616874280D+02 0.114474674423029D+02 0.209689027466570D+02 -.122149106427178D+02
 0.322147383184827D+03 -.117503394324601D+03 0.111673988314432D+03 -.278389671412172D+03
 0.223294072692568D+03 -.634727536464444D+02 -.112763351505175D+03 0.163244182276495D+03
 0.000000000000000D+00 -.000000000000000D+00 -.000000000000000D+00 0.000000000000000D+00
 0.462230898387386D+03 0.000000000000000D+00 0.000000000000000D+00 0.462230898387386D+03
 0.447100662160928D+03 0.000000000000000D+00 0.000000000000000D+00 -.447100662160928D+03
 0.244584195868095D+03 0.192698460781682D+03 -.919072755567459D+00 0.127360399778395D+03
 0.298668233427124D+02 0.142293555850403D+02 0.232453981297308D+02 -.122149106427178D+02
 0.322174294401263D+03 -.858900686299191D+02 0.137544039982553D+03 -.278389671412172D+03
 0.209751057255446D+03 -.422256076791831D+02 -.953762290846570D+02 0.163244182276495D+03
 0.102955189680799D+03 -.788121400576201D+02 -.644941362720590D+02 0.151302362264578D+02
0.276874698821D-04 0.000000000000D+00 0.000000000000D+00 0.396473233411D-05 0.000000000000D+00  7 -4 4 24 -11 11 -24 21 0 0.43713695D-01 0.86614157D-01 0.69441437D+05 0.69441437D+05 0.69441437D+05 0.11349555D+01  1  2  2  1  7  1       -4 0.348004340013D-04 0.100000000000D+01
-.121260012430D-05 0.000000000000D+00 -.106327174625D-06 0.396473233411D-05 0.000000000000D+00  7 -4 4 24 -11 11 -24 21 2 0.43713695D-01 0.86614157D-01 0.69441437D+05 0.69441437D+05 0.69441437D+05 0.11349555D+01  1  2  3  1  7  1       -4 -.196325484777D-05 0.100000000000D+01
0.170268551063D-05 0.000000000000D+00 0.000000000000D+00 0.396473233411D-05 0.000000000000D+00  7 -4 4 24 -11 11 -24 21 2 0.43713695D-01 0.86614157D-01 0.69441437D+05 0.69441437D+05 0.69441437D+05 0.11349555D+01  1  2 15  1  7  1       -4 0.275672541673D-05 0.100000000000D+01
0.178239311169D-04 0.000000000000D+00 0.000000000000D+00 0.396473233411D-05 0.000000000000D+00  7 -4 4 24 -11 11 -24 21 2 0.52749915D-01 0.86614157D-01 0.99782154D+05 0.99782154D+05 0.99782154D+05 0.11217998D+01  1  2 12  1  7  1       -4 0.187425543389D-04 0.100000000000D+01
-.188835313484D-04 0.000000000000D+00 0.000000000000D+00 0.396473233411D-05 0.000000000000D+00  7 -4 4 24 -11 11 -24 21 2 0.43713695D-01 0.86614157D-01 0.69441437D+05 0.69441437D+05 0.69441437D+05 0.11349555D+01  1  2  4  1  7  1       -4 -.305732975941D-04 0.100000000000D+01
-.384318709563D-04 0.000000000000D+00 -.160068141764D-04 0.396473233411D-05 0.000000000000D+00  7 -4 4 24 -11 11 -24 21 2 0.55852062D-01 0.86614157D-01 0.69441437D+05 0.69441437D+05 0.69441437D+05 0.11349555D+01  1  2  5  1  7  1       -4 -.360928623532D-04 0.100000000000D+01
0.415688047504D-04 0.000000000000D+00 0.155379704731D-04 0.396473233411D-05 0.000000000000D+00  7 -4 4 24 -11 11 -24 21 2 0.43713695D-01 0.86614157D-01 0.69441437D+05 0.69441437D+05 0.69441437D+05 0.11349555D+01  1  2  6  1  7  1       -4 0.673017887819D-04 0.100000000000D+01
0.486088752279D-06 0.000000000000D+00 0.000000000000D+00 0.396473233411D-05 0.000000000000D+00  7 21 4 24 -11 11 -24 4 2 0.52749915D-01 0.86614157D-01 0.99782154D+05 0.99782154D+05 0.99782154D+05 0.11217998D+01  1  2 12  3  7  1       -4 0.109409431180D-04 0.100000000000D+01
-.102198455884D-05 0.000000000000D+00 -.533768785758D-06 0.396473233411D-05 0.000000000000D+00  7 21 4 24 -11 11 -24 4 2 0.55852062D-01 0.86614157D-01 0.69441437D+05 0.69441437D+05 0.69441437D+05 0.11349555D+01  1  2  5  3  7  1       -4 -.210646891252D-04 0.100000000000D+01
  </mgrwgt>
  </event>
  <event>
  8     66 0.27011060E-05 0.34738247E+03 0.75467711E-02 0.92734207E-01
       -2 -1    0    0    0  501 0.00000000E+00 0.00000000E+00 0.13838654E+03 0.13838691E+03 0.32000000E+00 0.0000E+00 0.9000E+01
        2 -1    0    0  501    0 0.00000000E+00 0.00000000E+00 -.26751318E+04 0.26751318E+04 0.32000000E+00 0.0000E+00 0.9000E+01
       25  2    1    2    0    0 0.31181892E+03 0.35325925E+03 -.20692794E+04 0.21436121E+04 0.30188166E+03 0.0000E+00 0.0000E+00
       23  2    1    2    0    0 -.31181892E+03 -.35325925E+03 -.46746591E+03 0.66990665E+03 0.90705087E+02 0.0000E+00 0.0000E+00
       24  1    3    3    0    0 0.14012327E+03 0.90116619E+02 -.12302008E+04 0.12440325E+04 0.80419002E+02 0.0000E+00 0.9000E+01
      -11  1    4    4    0    0 -.31802724E+03 -.34935867E+03 -.45874744E+03 0.65851502E+03 0.51099893E-03 0.0000E+00 0.9000E+01
       11  1    4    4    0    0 0.62083246E+01 -.39005841E+01 -.87184626E+01 0.11391639E+02 0.51099893E-03 0.0000E+00 0.9000E+01
      -24  1    3    3    0    0 0.17169565E+03 0.26314263E+03 -.83907853E+03 0.89957959E+03 0.80419002E+02 0.0000E+00 0.9000E+01
#aMCatNLO 1  0  0  1  2 0.18659556D+03 0.00000000D+00  -5  7  0 0.00000000D+00 0.00000000D+00 0.00000000D+00 0.00000000D+00 0.00000000D+00
  <mgrwgt>
 0.1211588588D-02    9    2    0
 0.608442912600200D+03 0.000000000000000D+00 0.000000000000000D+00 0.608442912600200D+03
 0.608442912600200D+03 0.000000000000000D+00 0.000000000000000D+00 -.608442912600200D+03
 0.311781573866748D+03 0.140123265895183D+03 0.901166185847350D+02 -.250968123988242D+03
 0.566214930539626D+03 -.318027244736011D+03 -.349358669206233D+03 0.312100207340630D+03
 0.816351951208364D+01 0.620832460446211D+01 -.390058409272765D+01 0.358959610058847D+01
 0.330725801281942D+03 0.171695654236367D+03 0.263142634714226D+03 -.647216794529772D+02
 0.000000000000000D+00 0.000000000000000D+00 0.000000000000000D+00 0.000000000000000D+00
 0.102540243036063D+04 0.000000000000000D+00 0.000000000000000D+00 0.102540243036063D+04
 0.636792731481887D+03 0.000000000000000D+00 0.000000000000000D+00 -.636792731481887D+03
 0.291385790891813D+03 0.112147548127761D+03 0.536319994968562D+02 -.250968123988242D+03
 0.645017631458360D+03 -.374205848362436D+03 -.422624169353147D+03 0.312100207340630D+03
 0.815430637420520D+01 0.545148178065404D+01 -.488762300860448D+01 0.358959610058847D+01
 0.286551127658956D+03 0.143065515808198D+03 0.225804550892069D+03 -.647216794529772D+02
 0.431086305459188D+03 0.113541302645823D+03 0.148075241972826D+03 0.388609698878748D+03
0.200602027143D-03 0.000000000000D+00 0.000000000000D+00 0.927085536786D-06 0.000000000000D+00  7 -2 2 24 -11 11 -24 21 0 0.21290267D-01 0.41155877D+00 0.24457468D+06 0.24457468D+06 0.24457468D+06 0.10911767D+01  1  2  2  1  7  1       -2 0.130242629398D-02 0.100000000000D+01
-.105624583421D-04 0.000000000000D+00 -.770364603955D-06 0.927085536786D-06 0.000000000000D+00  7 -2 2 24 -11 11 -24 21 2 0.21290267D-01 0.41155877D+00 0.24457468D+06 0.24457468D+06 0.24457468D+06 0.10911767D+01  1  2  3  1  7  1       -2 -.816531571597D-04 0.100000000000D+01
0.123421476383D-04 0.000000000000D+00 0.000000000000D+00 0.927085536786D-06 0.000000000000D+00  7 -2 2 24 -11 11 -24 21 2 0.21290267D-01 0.41155877D+00 0.24457468D+06 0.24457468D+06 0.24457468D+06 0.10911767D+01  1  2 15  1  7  1       -2 0.954110575551D-04 0.100000000000D+01
0.366969105452D-03 0.000000000000D+00 0.000000000000D+00 0.927085536786D-06 0.000000000000D+00  7 -2 2 24 -11 11 -24 21 2 0.36081272D-01 0.41155877D+00 0.35141364D+06 0.35141364D+06 0.35141364D+06 0.10795056D+01  1  2 12  1  7  1       -2 0.107632184201D-02 0.100000000000D+01
-.398886446713D-03 0.000000000000D+00 0.000000000000D+00 0.927085536786D-06 0.000000000000D+00  7 -2 2 24 -11 11 -24 21 2 0.21290267D-01 0.41155877D+00 0.24457468D+06 0.24457468D+06 0.24457468D+06 0.10911767D+01  1  2  4  1  7  1       -2 -.308359443111D-02 0.100000000000D+01
-.429883839074D-03 0.000000000000D+00 -.675663047851D-04 0.927085536786D-06 0.000000000000D+00  7 -2 2 24 -11 11 -24 21 2 0.37426922D-01 0.41155877D+00 0.24457468D+06 0.24457468D+06 0.24457468D+06 0.10911767D+01  1  2  5  1  7  1       -2 -.123126688929D-02 0.100000000000D+01
0.410429061218D-03 0.000000000000D+00 0.580769696331D-04 0.927085536786D-06 0.000000000000D+00  7 -2 2 24 -11 11 -24 21 2 0.21290267D-01 0.41155877D+00 0.24457468D+06 0.24457468D+06 0.24457468D+06 0.10911767D+01  1  2  6  1  7  1       -2 0.317282469225D-02 0.100000000000D+01
0.216006865083D-04 0.000000000000D+00 0.000000000000D+00 0.927085536786D-06 0.000000000000D+00  7 21 2 24 -11 11 -24 2 2 0.36081272D-01 0.41155877D+00 0.35141364D+06 0.35141364D+06 0.35141364D+06 0.10795056D+01  1  2 12  3  7  1       -2 0.701403537509D-03 0.100000000000D+01
-.232959051143D-04 0.000000000000D+00 -.420499122800D-05 0.927085536786D-06 0.000000000000D+00  7 21 2 24 -11 11 -24 2 2 0.37426922D-01 0.41155877D+00 0.24457468D+06 0.24457468D+06 0.24457468D+06 0.10911767D+01  1  2  5  3  7  1       -2 -.740284358058D-03 0.100000000000D+01
  </mgrwgt>
  </event>
  <event>
  7     66 0.27011060E-05 0.18371727E+03 0.75467711E-02 0.97405704E-01
       -2 -1    0    0    0  501 0.00000000E+00 0.00000000E+00 0.22810661E+03 0.22810684E+03 0.32000000E+00 0.0000E+00 0.9000E+01
        2 -1    0    0  501    0 0.00000000E+00 0.00000000E+00 -.74916868E+03 0.74916875E+03 0.32000000E+00 0.0000E+00 0.9000E+01
       25  2    1    2    0    0 0.24311898E+03 0.97438519E+02 -.17765886E+03 0.43623767E+03 0.30023247E+03 0.0000E+00 0.0000E+00
       24  1    3    3    0    0 0.15751896E+03 -.72610751E+02 -.97040468E+02 0.21440292E+03 0.80419002E+02 0.0000E+00 0.9000E+01
      -11  1    1    2    0    0 -.29082117E+03 -.30721105E+02 -.14513056E+03 0.32647147E+03 0.51099893E-03 0.0000E+00 0.9000E+01
       11  1    1    2    0    0 0.47702190E+02 -.66717414E+02 -.19827266E+03 0.21456644E+03 0.51099893E-03 0.0000E+00 0.9000E+01
      -24  1    3    3    0    0 0.85600025E+02 0.17004927E+03 -.80618387E+02 0.22183476E+03 0.80419002E+02 0.0000E+00 0.9000E+01
#aMCatNLO 1  0  0  2  1 0.15076655D+02 0.00000000D+00  -5  7  0 0.00000000D+00 0.00000000D+00 0.00000000D+00 0.00000000D+00 0.00000000D+00
  <mgrwgt>
 0.6617866744D-02    9    2    0
 0.413389008691282D+03 0.000000000000000D+00 0.000000000000000D+00 0.413389008691282D+03
 0.413389008691282D+03 0.000000000000000D+00 0.000000000000000D+00 -.413389008691282D+03
 0.192272463174738D+03 0.157518983893053D+03 -.726107403011458D+02 0.204189678272475D+02
 0.294432797595790D+03 -.290821171643547D+03 -.307211325044638D+02 0.342042459586679D+02
 0.128665918701503D+03 0.477021333069916D+02 -.667174091605842D+02 -.991373412401354D+02
 0.211406837910532D+03 0.856000544435026D+02 0.170049281966194D+03 0.445141274542199D+02
 0.000000000000000D+00 -.000000000000000D+00 0.000000000000000D+00 -.000000000000000D+00
 0.420589817608929D+03 0.000000000000000D+00 0.000000000000000D+00 0.420589817608929D+03
 0.421425447905157D+03 0.000000000000000D+00 0.000000000000000D+00 -.421425447905157D+03
 0.195429862322937D+03 0.160918107713904D+03 -.735801841247890D+02 0.204189678272475D+02
 0.289535507121789D+03 -.285701314359639D+03 -.321813364521320D+02 0.342042459586679D+02
 0.129857501694500D+03 0.499686998419949D+02 -.673638430782768D+02 -.991373412401354D+02
 0.212092599483266D+03 0.893130242429858D+02 0.168990328003587D+03 0.445141274542199D+02
 0.150997948915935D+02 -.144985174392461D+02 0.413503565161126D+01 -.835630296227802D+00
0.718599317941D-04 0.000000000000D+00 0.000000000000D+00 0.335345058169D-09 0.000000000000D+00  7 -2 2 24 -11 11 -24 21 0 0.35093347D-01 0.11525674D+00 0.14911498D+06 0.14911498D+06 0.14911498D+06 0.11077548D+01  1  2  2  2  7  2        2 0.251973353324D-02 0.100000000000D+01
-.396967291554D-05 0.000000000000D+00 -.275961059244D-06 0.335345058169D-09 0.000000000000D+00  7 -2 2 24 -11 11 -24 21 2 0.35093347D-01 0.11525674D+00 0.14911498D+06 0.14911498D+06 0.14911498D+06 0.11077548D+01  1  2  3  2  7  2        2 -.170808622568D-03 0.100000000000D+01
0.479556202292D-05 0.000000000000D+00 0.000000000000D+00 0.335345058169D-09 0.000000000000D+00  7 -2 2 24 -11 11 -24 21 2 0.35093347D-01 0.11525674D+00 0.14911498D+06 0.14911498D+06 0.14911498D+06 0.11077548D+01  1  2 15  2  7  2        2 0.206345298719D-03 0.100000000000D+01
0.925091701435D-04 0.000000000000D+00 0.000000000000D+00 0.335345058169D-09 0.000000000000D+00  7 -2 2 24 -11 11 -24 21 2 0.35093347D-01 0.11848282D+00 0.15530971D+06 0.15530971D+06 0.15530971D+06 0.11063617D+01  1  2 12  2  7  2        2 0.383386378341D-02 0.100000000000D+01
-.732421092728D-04 0.000000000000D+00 0.000000000000D+00 0.335345058169D-09 0.000000000000D+00  7 -2 2 24 -11 11 -24 21 2 0.35093347D-01 0.11525674D+00 0.14911498D+06 0.14911498D+06 0.14911498D+06 0.11077548D+01  1  2  4  2  7  2        2 -.315148982423D-02 0.100000000000D+01
-.200416834763D-02 0.000000000000D+00 -.283636867210D-03 0.335345058169D-09 0.000000000000D+00  7 -2 2 24 -11 11 -24 21 2 0.35093347D-01 0.11909221D+00 0.14911498D+06 0.14911498D+06 0.14911498D+06 0.11077548D+01  1  2  5  2  7  2        2 -.827918448495D-01 0.100000000000D+01
0.201252691101D-02 0.000000000000D+00 0.283484957161D-03 0.335345058169D-09 0.000000000000D+00  7 -2 2 24 -11 11 -24 21 2 0.35093347D-01 0.11525674D+00 0.14911498D+06 0.14911498D+06 0.14911498D+06 0.11077548D+01  1  2  6  2  7  2        2 0.865957868231D-01 0.100000000000D+01
0.192948979303D-05 0.000000000000D+00 0.000000000000D+00 0.335345058169D-09 0.000000000000D+00  7 -2 21 24 -11 11 -24 -2 2 0.35093347D-01 0.11848282D+00 0.15530971D+06 0.15530971D+06 0.15530971D+06 0.11063617D+01  1  2 12  4  7  2        2 0.853778370034D-04 0.100000000000D+01
-.116099126025D-04 0.000000000000D+00 -.165855428900D-05 0.335345058169D-09 0.000000000000D+00  7 -2 21 24 -11 11 -24 -2 2 0.35093347D-01 0.11909221D+00 0.14911498D+06 0.14911498D+06 0.14911498D+06 0.11077548D+01  1  2  5  4  7  2        2 -.509097235104D-03 0.100000000000D+01
  </mgrwgt>
  </event>
  <event>
  8     66 0.27011060E-05 0.45483586E+03 0.75467711E-02 0.88733424E-01
       -2 -1    0    0    0  501 0.00000000E+00 0.00000000E+00 0.13333226E+03 0.13333264E+03 0.32000000E+00 0.0000E+00 0.9000E+01
        2 -1    0    0  501    0 0.00000000E+00 0.00000000E+00 -.19802548E+04 0.19802549E+04 0.32000000E+00 0.0000E+00 0.9000E+01
       25  2    1    2    0    0 -.41557440E+03 0.20989593E+02 -.14217161E+04 0.15114969E+04 0.30033896E+03 0.0000E+00 0.0000E+00
       23  2    1    2    0    0 0.41557440E+03 -.20989593E+02 -.42520648E+03 0.60209063E+03 0.92573875E+02 0.0000E+00 0.0000E+00
       24  1    3    3    0    0 -.17990533E+03 -.93900647E+02 -.84740906E+03 0.87507290E+03 0.80419002E+02 0.0000E+00 0.9000E+01
      -13  1    4    4    0    0 0.34788570E+03 -.28436340E+02 -.39634127E+03 0.52812830E+03 0.10565837E+00 0.0000E+00 0.9000E+01
       13  1    4    4    0    0 0.67688699E+02 0.74467466E+01 -.28865213E+02 0.73962326E+02 0.10565837E+00 0.0000E+00 0.9000E+01
      -24  1    3    3    0    0 -.23566907E+03 0.11489024E+03 -.57430705E+03 0.63642398E+03 0.80419002E+02 0.0000E+00 0.9000E+01
#aMCatNLO 1  0  0  2  2 0.65032794D+03 0.00000000D+00  -5  7  0 0.00000000D+00 0.00000000D+00 0.00000000D+00 0.00000000D+00 0.00000000D+00
  <mgrwgt>
 0.1027563020D-02    5    2    0
 0.513840711794027D+03 0.000000000000000D+00 0.000000000000000D+00 0.513840711794027D+03
 0.513840711794027D+03 0.000000000000000D+00 0.000000000000000D+00 -.513840711794027D+03
 0.276782495545174D+03 -.179905334000130D+03 -.939006466147704D+02 -.170170717955450D+03
 0.373884447952334D+03 0.347886069525063D+03 -.284363864682090D+02 0.134000876771967D+03
 0.100238912855560D+03 0.676883341864732D+02 0.744679324879996D+01 0.735572860825800D+02
 0.276775567234986D+03 -.235669069711406D+03 0.114890239834179D+03 -.373874448990972D+02
 0.000000000000000D+00 0.000000000000000D+00 -.000000000000000D+00 -.000000000000000D+00
 0.732602371734551D+03 0.000000000000000D+00 0.000000000000000D+00 0.732602371734551D+03
 0.145719397028584D+04 0.000000000000000D+00 0.000000000000000D+00 -.145719397028584D+04
 0.400567386337118D+03 -.353586246120474D+03 -.238921483716420D+01 -.170170717955450D+03
 0.239303982033741D+03 0.190656949582394D+03 0.544066946017299D+02 0.134000876771967D+03
 0.829245246099599D+02 0.207229567102026D+02 0.321925691913586D+02 0.735572860825800D+02
 0.493368377872900D+03 -.433143530736767D+03 0.218938349942102D+03 -.373874448990972D+02
 0.973632071166670D+03 0.575349870564645D+03 -.303148398898026D+03 -.724591598551287D+03
0.592726043196D-04 0.000000000000D+00 0.000000000000D+00 0.222365574133D-05 0.000000000000D+00  7 -2 2 24 -13 13 -24 21 0 0.20512686D-01 0.30465462D+00 0.20687566D+06 0.20687566D+06 0.20687566D+06 0.10966997D+01  1  2  2  2  7  2        2 0.101927246205D-02 0.100000000000D+01
-.323335393299D-05 0.000000000000D+00 -.227622407422D-06 0.222365574133D-05 0.000000000000D+00  7 -2 2 24 -13 13 -24 21 2 0.20512686D-01 0.30465462D+00 0.20687566D+06 0.20687566D+06 0.20687566D+06 0.10966997D+01  1  2  3  2  7  2        2 -.668751873997D-04 0.100000000000D+01
0.363689411195D-05 0.000000000000D+00 0.000000000000D+00 0.222365574133D-05 0.000000000000D+00  7 -2 2 24 -13 13 -24 21 2 0.20512686D-01 0.30465462D+00 0.20687566D+06 0.20687566D+06 0.20687566D+06 0.10966997D+01  1  2 15  2  7  2        2 0.752215749745D-04 0.100000000000D+01
-.999429343411D-05 0.000000000000D+00 -.146441315364D-04 0.222365574133D-05 0.000000000000D+00  7 -2 2 24 -13 13 -24 21 2 0.20512686D-01 0.88069627D+00 0.20687566D+06 0.20687566D+06 0.20687566D+06 0.10966997D+01  1  2  5  2  7  2        2 -.558232207904D-07 0.100000000000D+01
-.418026005487D-06 0.000000000000D+00 -.175631293468D-05 0.222365574133D-05 0.000000000000D+00  7 -2 21 24 -13 13 -24 -2 2 0.20512686D-01 0.88069627D+00 0.20687566D+06 0.20687566D+06 0.20687566D+06 0.10966997D+01  1  2  5  4  7  2        2 -.681591263405D-11 0.100000000000D+01
  </mgrwgt>
  </event>
  <event>
  7     66 0.27011060E-05 0.45413230E+03 0.75467711E-02 0.87825878E-01
       -2 -1    0    0    0  501 0.00000000E+00 0.00000000E+00 0.15414630E+03 0.15414663E+03 0.32000000E+00 0.0000E+00 0.9000E+01
        2 -1    0    0  501    0 0.00000000E+00 0.00000000E+00 -.29975758E+04 0.29975758E+04 0.32000000E+00 0.0000E+00 0.9000E+01
       25  2    1    2    0    0 -.33151434E+03 -.27008451E+03 -.40276226E+03 0.65947396E+03 0.29973499E+03 0.0000E+00 0.0000E+00
       24  1    3    3    0    0 -.57328187E+02 -.12729777E+03 -.22224830E+02 0.16264194E+03 0.80419002E+02 0.0000E+00 0.9000E+01
      -11  1    1    2    0    0 0.54788861E+02 0.49473146E+02 -.96398764E+02 0.12141719E+03 0.51099893E-03 0.0000E+00 0.9000E+01
       11  1    1    2    0    0 0.27672548E+03 0.22061137E+03 -.23442685E+04 0.23708313E+04 0.51099893E-03 0.0000E+00 0.9000E+01
      -24  1    3    3    0    0 -.27418615E+03 -.14278675E+03 -.38053743E+03 0.49683202E+03 0.80419002E+02 0.0000E+00 0.9000E+01
#aMCatNLO 1  0  0  1  2 0.77087104D+03 0.00000000D+00  -5  7  0 0.00000000D+00 0.00000000D+00 0.00000000D+00 0.00000000D+00 0.00000000D+00
  <mgrwgt>
 0.5034209314D-02    3    2    0
 0.679754196185849D+03 0.000000000000000D+00 0.000000000000000D+00 0.679754196185849D+03
 0.679754196185849D+03 0.000000000000000D+00 0.000000000000000D+00 -.679754196185849D+03
 0.330566202891034D+03 -.573281879082658D+02 -.127297767227391D+03 0.288644341481868D+03
 0.798598825534151D+02 0.547888604711315D+02 0.494731457864014D+02 0.304662018590701D+02
 0.593185076841255D+03 0.276725481692038D+03 0.220611369971206D+03 -.476048491867060D+03
 0.355897230085995D+03 -.274186154254904D+03 -.142786748530217D+03 0.156937948526123D+03
 0.000000000000000D+00 0.000000000000000D+00 0.000000000000000D+00 -.000000000000000D+00
 0.102992555648028D+04 0.000000000000000D+00 0.000000000000000D+00 0.102992555648028D+04
 0.137925558774713D+04 0.000000000000000D+00 0.000000000000000D+00 -.137925558774713D+04
 0.455809021831110D+03 -.843460594982850D+02 -.332963713947741D+03 0.288644341481868D+03
 0.599448597530744D+02 0.499855217384711D+02 0.129090809754604D+02 0.304662018590701D+02
 0.537445342434173D+03 0.237879868906428D+03 -.750899291805695D+02 -.476048491867060D+03
 0.509652411677131D+03 -.303924259348698D+03 -.369159707532800D+03 0.156937948526123D+03
 0.846329508531918D+03 0.100404928202084D+03 0.764304269685651D+03 -.349330031266846D+03
0.141993188209D-02 0.000000000000D+00 0.000000000000D+00 0.209391583696D-08 0.000000000000D+00  7 -2 2 24 -11 11 -24 21 0 0.23714842D-01 0.46116554D+00 0.20623615D+06 0.20623615D+06 0.20623615D+06 0.10968027D+01  1  2  2  1  7  1       -2 0.492678814000D-02 0.100000000000D+01
-.632815017699D-04 0.000000000000D+00 -.545291230387D-05 0.209391583696D-08 0.000000000000D+00  7 -2 2 24 -11 11 -24 21 2 0.23714842D-01 0.46116554D+00 0.20623615D+06 0.20623615D+06 0.20623615D+06 0.10968027D+01  1  2  3  1  7  1       -2 -.264137569952D-03 0.100000000000D+01
0.890172319494D-04 0.000000000000D+00 0.000000000000D+00 0.209391583696D-08 0.000000000000D+00  7 -2 2 24 -11 11 -24 21 2 0.23714842D-01 0.46116554D+00 0.20623615D+06 0.20623615D+06 0.20623615D+06 0.10968027D+01  1  2 15  1  7  1       -2 0.371558744236D-03 0.100000000000D+01
  </mgrwgt>
  </event>
  <event>
  8     66 0.27011060E-05 0.21412254E+03 0.75467711E-02 0.10315037E+00
       -2 -1    0    0    0  501 0.00000000E+00 0.00000000E+00 0.31653176E+02 0.31654794E+02 0.32000000E+00 0.0000E+00 0.9000E+01
        2 -1    0    0  501    0 0.00000000E+00 0.00000000E+00 -.27808960E+04 0.27808960E+04 0.32000000E+00 0.0000E+00 0.9000E+01
       25  2    1    2    0    0 -.18810636E+03 0.47264937E+02 -.20759568E+04 0.21061803E+04 0.29796117E+03 0.0000E+00 0.0000E+00
       23  2    1    2    0    0 0.18810636E+03 -.47264937E+02 -.67328600E+03 0.70637048E+03 0.89594903E+02 0.0000E+00 0.0000E+00
       24  1    3    3    0    0 -.18038064E+03 -.13803776E+02 -.18227751E+04 0.18334950E+04 0.80419002E+02 0.0000E+00 0.9000E+01
      -13  1    4    4    0    0 0.19217416E+03 -.47620975E+02 -.67377031E+03 0.70225715E+03 0.10565837E+00 0.0000E+00 0.9000E+01
       13  1    4    4    0    0 -.40678021E+01 0.35603731E+00 0.48431088E+00 0.41133316E+01 0.10565837E+00 0.0000E+00 0.9000E+01
      -24  1    3    3    0    0 -.77257241E+01 0.61068713E+02 -.25318175E+03 0.27268533E+03 0.80419002E+02 0.0000E+00 0.9000E+01
#aMCatNLO 1  0  0  2  2 0.93817303D+00 0.00000000D+00  -5  7  0 0.00000000D+00 0.00000000D+00 0.00000000D+00 0.00000000D+00 0.00000000D+00
  <mgrwgt>
 0.2419704358D-02   10    2    0
 0.296692587128891D+03 0.000000000000000D+00 0.000000000000000D+00 0.296692587128891D+03
 0.296692587128891D+03 0.000000000000000D+00 0.000000000000000D+00 -.296692587128891D+03
 0.245281746239051D+03 -.180380638118848D+03 -.138037759688968D+02 -.144804006313864D+03
 0.206907575108107D+03 0.192174436693129D+03 -.476210413539841D+02 0.600996417556497D+02
 0.217401609937968D+02 -.406807421961658D+01 0.356103854084637D+00 0.213531862312162D+02
 0.119455691916827D+03 -.772572435466509D+01 0.610687134687963D+02 0.633511783269984D+02
 0.000000000000000D+00 0.000000000000000D+00 -.000000000000000D+00 -.000000000000000D+00
 0.296986546451154D+03 0.000000000000000D+00 0.000000000000000D+00 0.296986546451154D+03
 0.297442449710533D+03 0.000000000000000D+00 0.000000000000000D+00 -.297442449710533D+03
 0.245520574439653D+03 -.180719587006172D+03 -.136149603958292D+02 -.144804006313864D+03
 0.206605761173289D+03 0.191888863705144D+03 -.474619594705628D+02 0.600996417556497D+02
 0.217460809991367D+02 -.409810588963195D+01 0.372833358727362D+00 0.213531862312162D+02
 0.119513499295581D+03 -.789075686990287D+01 0.611606468254314D+02 0.633511783269984D+02
 0.104308025402621D+01 0.819586060562070D+00 -.456560317766736D+00 -.455903259379084D+00
0.774713559556D-05 0.000000000000D+00 0.000000000000D+00 0.391194071938D-07 0.000000000000D+00  7 -2 2 24 -13 13 -24 21 0 0.48698453D-02 0.42783028D+00 0.62830660D+05 0.62830660D+05 0.62830660D+05 0.11386706D+01  1  2  2  2  7  2        2 0.458437799243D-03 0.100000000000D+01
-.415521610189D-06 0.000000000000D+00 -.297510405546D-07 0.391194071938D-07 0.000000000000D+00  7 -2 2 24 -13 13 -24 21 2 0.48698453D-02 0.42783028D+00 0.62830660D+05 0.62830660D+05 0.62830660D+05 0.11386706D+01  1  2  3  2  7  2        2 -.318807888364D-04 0.100000000000D+01
0.484533328151D-06 0.000000000000D+00 0.000000000000D+00 0.391194071938D-07 0.000000000000D+00  7 -2 2 24 -13 13 -24 21 2 0.48698453D-02 0.42783028D+00 0.62830660D+05 0.62830660D+05 0.62830660D+05 0.11386706D+01  1  2 15  2  7  2        2 0.371756951750D-04 0.100000000000D+01
-.442365602473D-03 0.000000000000D+00 0.000000000000D+00 0.391194071938D-07 0.000000000000D+00  7 -2 2 24 -13 13 -24 21 2 0.48698453D-02 0.42783028D+00 0.62830660D+05 0.62830660D+05 0.62830660D+05 0.11386706D+01  1  2  4  2  7  2        2 -.339403872509D-01 0.100000000000D+01
-.277907279274D-02 0.000000000000D+00 -.223049213104D-03 0.391194071938D-07 0.000000000000D+00  7 -2 2 24 -13 13 -24 21 2 0.48698453D-02 0.42905473D+00 0.62830660D+05 0.62830660D+05 0.62830660D+05 0.11386706D+01  1  2  5  2  7  2        2 -.210921538185D+00 0.100000000000D+01
0.277969980596D-02 0.000000000000D+00 0.223048302214D-03 0.391194071938D-07 0.000000000000D+00  7 -2 2 24 -13 13 -24 21 2 0.48698453D-02 0.42783028D+00 0.62830660D+05 0.62830660D+05 0.62830660D+05 0.11386706D+01  1  2  6  2  7  2        2 0.213271753789D+00 0.100000000000D+01
0.442367312724D-03 0.000000000000D+00 0.000000000000D+00 0.391194071938D-07 0.307261013541D-06  7 -2 2 24 -13 13 -24 21 2 0.48746702D-02 0.42891158D+00 0.63086125D+05 0.63086125D+05 0.63086125D+05 0.11385191D+01  1  2 11  2  7  2        2 0.335548495188D-01 0.100000000000D+01
0.141760112505D-11 0.000000000000D+00 0.000000000000D+00 0.391194071938D-07 0.000000000000D+00  7 -2 21 24 -13 13 -24 -2 2 0.48698453D-02 0.42912315D+00 0.63086125D+05 0.63086125D+05 0.63086125D+05 0.11385191D+01  1  2 12  4  7  2        2 0.100828332407D-10 0.100000000000D+01
-.148214326720D-05 0.000000000000D+00 -.119011897400D-06 0.391194071938D-07 0.000000000000D+00  7 -2 21 24 -13 13 -24 -2 2 0.48698453D-02 0.42905473D+00 0.62830660D+05 0.62830660D+05 0.62830660D+05 0.11386706D+01  1  2  5  4  7  2        2 -.105603818065D-04 0.100000000000D+01
0.260179615765D-06 0.000000000000D+00 0.000000000000D+00 0.391194071938D-07 0.145068761864D-09  7 -2 21 24 -13 13 -24 -2 2 0.48746702D-02 0.42891158D+00 0.63086125D+05 0.63086125D+05 0.63086125D+05 0.11385191D+01  1  2 11  4  7  2        2 0.185415173418D-05 0.100000000000D+01
  </mgrwgt>
  </event>
  <event>
  8     66 0.27011060E-05 0.20727616E+03 0.75467711E-02 0.93857992E-01
       -2 -1    0    0    0  501 0.00000000E+00 0.00000000E+00 0.47238024E+03 0.47238035E+03 0.32000000E+00 0.0000E+00 0.9000E+01
        2 -1    0    0  501    0 0.00000000E+00 0.00000000E+00 -.11012382E+04 0.11012383E+04 0.32000000E+00 0.0000E+00 0.9000E+01
       25  2    1    2    0    0 0.33792777E+03 -.10864483E+03 0.31468454E+03 0.56142579E+03 0.30028933E+03 0.0000E+00 0.0000E+00
       23  2    1    2    0    0 -.33792777E+03 0.10864483E+03 -.94354253E+03 0.10121928E+04 0.90900822E+02 0.0000E+00 0.0000E+00
       24  1    3    3    0    0 0.42378450E+02 0.37631683E+01 0.19270027E+03 0.21309788E+03 0.80419002E+02 0.0000E+00 0.9000E+01
      -11  1    4    4    0    0 -.16557075E+02 0.25817662E+02 -.46267799E+02 0.55510338E+02 0.51099893E-03 0.0000E+00 0.9000E+01
       11  1    4    4    0    0 -.32137069E+03 0.82827166E+02 -.89727473E+03 0.95668250E+03 0.51099893E-03 0.0000E+00 0.9000E+01
      -24  1    3    3    0    0 0.29554932E+03 -.11240800E+03 0.12198427E+03 0.34832791E+03 0.80419002E+02 0.0000E+00 0.9000E+01
#aMCatNLO 1  0  0  2  1 0.24602173D+03 0.00000000D+00  -5  7  0 0.00000000D+00 0.00000000D+00 0.00000000D+00 0.00000000D+00 0.00000000D+00
  <mgrwgt>
 0.4933623879D-03    9    2    0
 0.721251206833834D+03 0.000000000000000D+00 0.000000000000000D+00 0.721251206833834D+03
 0.721251206833834D+03 0.000000000000000D+00 0.000000000000000D+00 -.721251206833834D+03
 0.316474960703931D+03 0.423784503030308D+02 0.376316831092426D+01 0.303115638515009D+03
 0.403855314205169D+02 -.165570748473139D+02 0.258176621867076D+02 -.262736129953809D+02
 0.652473791053039D+03 -.321370694805691D+03 0.828271655830343D+02 -.561767376386981D+03
 0.433168130490182D+03 0.295549319349974D+03 -.112407996080666D+03 0.284925350867354D+03
 0.000000000000000D+00 0.000000000000000D+00 0.000000000000000D+00 -.000000000000000D+00
 0.771963893047090D+03 0.000000000000000D+00 0.000000000000000D+00 0.771963893047090D+03
 0.110716026575970D+04 0.000000000000000D+00 0.000000000000000D+00 -.110716026575970D+04
 0.315113312700715D+03 0.156315593066011D+01 -.307839262931702D+02 0.303115638515009D+03
 0.402793028621913D+02 -.217698995550929D+02 0.214053958756723D+02 -.262736129953809D+02
 0.694604770902790D+03 -.408423305444824D+03 0.914364028866929D+01 -.561767376386981D+03
 0.413334395948514D+03 0.240845564928912D+03 -.158710633566062D+03 0.284925350867354D+03
 0.415792376392584D+03 0.187784484140346D+03 0.158945523694891D+03 -.335196372712613D+03
0.190886108106D-03 0.000000000000D+00 0.000000000000D+00 0.189163804612D-04 0.000000000000D+00  7 -2 2 24 -11 11 -24 21 0 0.72673895D-01 0.16942128D+00 0.15201933D+06 0.15201933D+06 0.15201933D+06 0.11070939D+01  1  2  2  2  7  2        2 0.940168015661D-03 0.100000000000D+01
-.572631798124D-05 0.000000000000D+00 -.733052916593D-06 0.189163804612D-04 0.000000000000D+00  7 -2 2 24 -11 11 -24 21 2 0.72673895D-01 0.16942128D+00 0.15201933D+06 0.15201933D+06 0.15201933D+06 0.11070939D+01  1  2  3  2  7  2        2 -.345681007091D-04 0.100000000000D+01
0.111945446168D-04 0.000000000000D+00 0.000000000000D+00 0.189163804612D-04 0.000000000000D+00  7 -2 2 24 -11 11 -24 21 2 0.72673895D-01 0.16942128D+00 0.15201933D+06 0.15201933D+06 0.15201933D+06 0.11070939D+01  1  2 15  2  7  2        2 0.675781797264D-04 0.100000000000D+01
0.868755205462D-04 0.000000000000D+00 0.000000000000D+00 0.189163804612D-04 0.000000000000D+00  7 -2 2 24 -11 11 -24 21 2 0.72673895D-01 0.26343947D+00 0.28656718D+06 0.28656718D+06 0.28656718D+06 0.10860268D+01  1  2 12  2  7  2        2 0.223322121690D-03 0.100000000000D+01
-.254162093231D-03 0.000000000000D+00 0.000000000000D+00 0.189163804612D-04 0.000000000000D+00  7 -2 2 24 -11 11 -24 21 2 0.72673895D-01 0.16942128D+00 0.15201933D+06 0.15201933D+06 0.15201933D+06 0.11070939D+01  1  2  4  2  7  2        2 -.153430194831D-02 0.100000000000D+01
-.226468838013D-03 0.000000000000D+00 -.688632540909D-04 0.189163804612D-04 0.000000000000D+00  7 -2 2 24 -11 11 -24 21 2 0.72673895D-01 0.26697323D+00 0.15201933D+06 0.15201933D+06 0.15201933D+06 0.11070939D+01  1  2  5  2  7  2        2 -.609093785522D-03 0.100000000000D+01
0.239178751610D-03 0.000000000000D+00 0.623085387220D-04 0.189163804612D-04 0.000000000000D+00  7 -2 2 24 -11 11 -24 21 2 0.72673895D-01 0.16942128D+00 0.15201933D+06 0.15201933D+06 0.15201933D+06 0.11070939D+01  1  2  6  2  7  2        2 0.144385191326D-02 0.100000000000D+01
0.444940782002D-05 0.000000000000D+00 0.000000000000D+00 0.189163804612D-04 0.000000000000D+00  7 -2 21 24 -11 11 -24 -2 2 0.72673895D-01 0.26343947D+00 0.28656718D+06 0.28656718D+06 0.28656718D+06 0.10860268D+01  1  2 12  4  7  2        2 0.312386677690D-05 0.100000000000D+01
-.908657658750D-05 0.000000000000D+00 -.360721117038D-05 0.189163804612D-04 0.000000000000D+00  7 -2 21 24 -11 11 -24 -2 2 0.72673895D-01 0.26697323D+00 0.15201933D+06 0.15201933D+06 0.15201933D+06 0.11070939D+01  1  2  5  4  7  2        2 -.671787464784D-05 0.100000000000D+01
  </mgrwgt>
  </event>
  <event>
  8     66 0.27011060E-05 0.17093382E+03 0.75467711E-02 0.10103580E+00
       -2 -1    0    0    0  501 0.00000000E+00 0.00000000E+00 0.45378799E+02 0.45379927E+02 0.32000000E+00 0.0000E+00 0.9000E+01
        2 -1    0    0  501    0 0.00000000E+00 0.00000000E+00 -.96659524E+03 0.96659530E+03 0.32000000E+00 0.0000E+00 0.9000E+01
       25  2    1    2    0    0 0.32081190E+02 -.43999045E+02 -.76425975E+03 0.82272331E+03 0.29969244E+03 0.0000E+00 0.0000E+00
       23  2    1    2    0    0 -.32081190E+02 0.43999045E+02 -.15695669E+03 0.18925191E+03 0.90640854E+02 0.0000E+00 0.0000E+00
       24  1    3    3    0    0 0.37211750E+02 -.10340635E+03 -.15946966E+03 0.20970307E+03 0.80419002E+02 0.0000E+00 0.9000E+01
      -11  1    4    4    0    0 -.17586923E+02 0.71961180E+02 -.10519518E+03 0.12866133E+03 0.51099893E-03 0.0000E+00 0.9000E+01
       11  1    4    4    0    0 -.14494267E+02 -.27962135E+02 -.51761514E+02 0.60590586E+02 0.51099893E-03 0.0000E+00 0.9000E+01
      -24  1    3    3    0    0 -.51305598E+01 0.59407306E+02 -.60479009E+03 0.61302024E+03 0.80419002E+02 0.0000E+00 0.9000E+01
#aMCatNLO 1  0  0  1  1 0.19418871D+03 0.00000000D+00  -5  7  0 0.00000000D+00 0.00000000D+00 0.00000000D+00 0.00000000D+00 0.00000000D+00
  <mgrwgt>
 0.2652866724D-02    5    2    0
 0.209436217342614D+03 0.000000000000000D+00 0.000000000000000D+00 0.209436217342614D+03
 0.209436217342614D+03 0.000000000000000D+00 0.000000000000000D+00 -.209436217342614D+03
 0.155914375313390D+03 0.372117501197601D+02 -.103406350842813D+03 0.759242302127043D+02
 0.794861239967500D+02 -.175869231335401D+02 0.719611803263373D+02 0.288154918188469D+02
 0.325459803235099D+02 -.144942673745331D+02 -.279621349607662D+02 0.820219829861059D+01
 0.150925955051577D+03 -.513055961168690D+01 0.594073054772423D+02 -.112941920330162D+03
 0.000000000000000D+00 -.000000000000000D+00 -.000000000000000D+00 0.000000000000000D+00
 0.407983325168721D+03 0.000000000000000D+00 0.000000000000000D+00 0.407983325168721D+03
 0.284069094153109D+03 0.000000000000000D+00 0.000000000000000D+00 -.284069094153109D+03
 0.128403748725856D+03 0.499126162566964D+02 -.420065320813597D+02 0.759242302127043D+02
 0.118630351157361D+03 -.873679851008595D+01 0.114745352841633D+03 0.288154918188469D+02
 0.218177309232570D+02 -.120657685878819D+02 -.162220391472094D+02 0.820219829861059D+01
 0.192844359495378D+03 0.102261144015064D+02 0.133646100770635D+03 -.112941920330162D+03
 0.230356229019978D+03 -.393361635602350D+02 -.190162882383699D+03 0.123914231015613D+03
0.738093880755D-05 0.000000000000D+00 0.000000000000D+00 0.232870103381D-06 0.000000000000D+00  7 -2 2 24 -11 11 -24 21 0 0.69814446D-02 0.14870705D+00 0.29218370D+05 0.29218370D+05 0.29218370D+05 0.11684012D+01  1  2  2  1  7  1       -2 0.253653956406D-02 0.100000000000D+01
-.389477933939D-06 0.000000000000D+00 -.283447484668D-07 0.232870103381D-06 0.000000000000D+00  7 -2 2 24 -11 11 -24 21 2 0.69814446D-02 0.14870705D+00 0.29218370D+05 0.29218370D+05 0.29218370D+05 0.11684012D+01  1  2  3  1  7  1       -2 -.182724535684D-03 0.100000000000D+01
0.470168116208D-06 0.000000000000D+00 0.000000000000D+00 0.232870103381D-06 0.000000000000D+00  7 -2 2 24 -11 11 -24 21 2 0.69814446D-02 0.14870705D+00 0.29218370D+05 0.29218370D+05 0.29218370D+05 0.11684012D+01  1  2 15  1  7  1       -2 0.220580534201D-03 0.100000000000D+01
-.428736928753D-06 0.000000000000D+00 -.227305343431D-05 0.232870103381D-06 0.000000000000D+00  7 -2 2 24 -11 11 -24 21 2 0.18530298D-01 0.14870705D+00 0.29218370D+05 0.29218370D+05 0.29218370D+05 0.11684012D+01  1  2  5  1  7  1       -2 -.447724491267D-04 0.100000000000D+01
0.880082058537D-07 0.000000000000D+00 -.246738082044D-06 0.232870103381D-06 0.000000000000D+00  7 21 2 24 -11 11 -24 2 2 0.18530298D-01 0.14870705D+00 0.29218370D+05 0.29218370D+05 0.29218370D+05 0.11684012D+01  1  2  5  3  7  1       -2 0.123243610999D-03 0.100000000000D+01
  </mgrwgt>
  </event>
  <event>
  8     66 0.27011060E-05 0.82341980E+02 0.75467711E-02 0.10502754E+00
       -2 -1    0    0    0  501 0.00000000E+00 0.00000000E+00 0.91313908E+03 0.91313914E+03 0.32000000E+00 0.0000E+00 0.9000E+01
        2 -1    0    0  501    0 0.00000000E+00 0.00000000E+00 -.61270749E+02 0.61271584E+02 0.32000000E+00 0.0000E+00 0.9000E+01
       25  2    1    2    0    0 -.75169010E+02 0.54998540E+02 0.42825148E+03 0.53118995E+03 0.30014699E+03 0.0000E+00 0.0000E+00
       23  2    1    2    0    0 0.75169010E+02 -.54998540E+02 0.42361686E+03 0.44322077E+03 0.91204122E+02 0.0000E+00 0.0000E+00
       24  1    3    3    0    0 0.32471435E+02 0.12432663E+03 0.14324159E+03 0.20855904E+03 0.80419002E+02 0.0000E+00 0.9000E+01
      -11  1    4    4    0    0 0.65685693E+02 -.63494131E+02 0.20740015E+03 0.22662952E+03 0.51099893E-03 0.0000E+00 0.9000E+01
       11  1    4    4    0    0 0.94833171E+01 0.84955909E+01 0.21621670E+03 0.21659125E+03 0.51099893E-03 0.0000E+00 0.9000E+01
      -24  1    3    3    0    0 -.10764045E+03 -.69328094E+02 0.28500989E+03 0.32263091E+03 0.80419002E+02 0.0000E+00 0.9000E+01
#aMCatNLO 1  0  0  2  1 0.31632334D+02 0.00000000D+00  -5  7  0 0.00000000D+00 0.00000000D+00 0.00000000D+00 0.00000000D+00 0.00000000D+00
  <mgrwgt>
 0.8352355830D-03    9    2    0
 0.236535726261272D+03 0.000000000000000D+00 0.000000000000000D+00 0.236535726261272D+03
 0.236535726261272D+03 0.000000000000000D+00 0.000000000000000D+00 -.236535726261272D+03
 0.171642559803242D+03 0.324714352546070D+02 0.124326634000136D+03 -.805136407830428D+02
 0.933317988973037D+02 0.656856927241876D+02 -.634941309472363D+02 0.190973765739053D+02
 0.567793241196664D+02 0.948331715038900D+01 0.849559083766251D+01 0.553333830488458D+02
 0.151317769702333D+03 -.107640445129184D+03 -.693280938905626D+02 0.608288116029174D+01
 0.000000000000000D+00 0.000000000000000D+00 -.000000000000000D+00 -.000000000000000D+00
 0.238613890518606D+03 0.000000000000000D+00 0.000000000000000D+00 0.238613890518606D+03
 0.398454545442118D+03 0.000000000000000D+00 0.000000000000000D+00 -.398454545442118D+03
 0.172274903456604D+03 0.214476558903822D+02 0.127549904395411D+03 -.805136407830428D+02
 0.881330983896277D+02 0.598690965819574D+02 -.617934018663038D+02 0.190973765739053D+02
 0.564569099518391D+02 0.585369262185249D+01 0.955686582351380D+01 0.553333830488458D+02
 0.157262923001847D+03 -.117531555165257D+03 -.664360075105368D+02 0.608288116029174D+01
 0.162940601160807D+03 0.303611100710654D+02 -.887736084208450D+01 -.159840654923512D+03
0.243903908236D-04 0.000000000000D+00 0.000000000000D+00 0.612206218483D-06 0.000000000000D+00  7 -2 2 24 -11 11 -24 21 0 0.14048300D+00 0.94263376D-02 0.41386216D+05 0.41386216D+05 0.41386216D+05 0.11545889D+01  1  2  2  2  7  2        2 0.772719867735D-03 0.100000000000D+01
-.131758230032D-05 0.000000000000D+00 -.936655229000D-07 0.612206218483D-06 0.000000000000D+00  7 -2 2 24 -11 11 -24 21 2 0.14048300D+00 0.94263376D-02 0.41386216D+05 0.41386216D+05 0.41386216D+05 0.11545889D+01  1  2  3  2  7  2        2 -.556462434355D-04 0.100000000000D+01
0.151206877123D-05 0.000000000000D+00 0.000000000000D+00 0.612206218483D-06 0.000000000000D+00  7 -2 2 24 -11 11 -24 21 2 0.14048300D+00 0.94263376D-02 0.41386216D+05 0.41386216D+05 0.41386216D+05 0.11545889D+01  1  2 15  2  7  2        2 0.638601071939D-04 0.100000000000D+01
0.306003556947D-03 0.000000000000D+00 0.000000000000D+00 0.612206218483D-06 0.000000000000D+00  7 -2 2 24 -11 11 -24 21 2 0.14048300D+00 0.15895546D-01 0.48032595D+05 0.48032595D+05 0.48032595D+05 0.11488320D+01  1  2 12  2  7  2        2 0.669381319962D-02 0.100000000000D+01
-.272178032086D-03 0.000000000000D+00 0.000000000000D+00 0.612206218483D-06 0.000000000000D+00  7 -2 2 24 -11 11 -24 21 2 0.14048300D+00 0.94263376D-02 0.41386216D+05 0.41386216D+05 0.41386216D+05 0.11545889D+01  1  2  4  2  7  2        2 -.114950580526D-01 0.100000000000D+01
-.307882841851D-03 0.000000000000D+00 -.967643955173D-05 0.612206218483D-06 0.000000000000D+00  7 -2 2 24 -11 11 -24 21 2 0.14048300D+00 0.15961746D-01 0.41386216D+05 0.41386216D+05 0.41386216D+05 0.11545889D+01  1  2  5  2  7  2        2 -.678152791590D-02 0.100000000000D+01
0.275131061427D-03 0.000000000000D+00 0.847371548402D-05 0.612206218483D-06 0.000000000000D+00  7 -2 2 24 -11 11 -24 21 2 0.14048300D+00 0.94263376D-02 0.41386216D+05 0.41386216D+05 0.41386216D+05 0.11545889D+01  1  2  6  2  7  2        2 0.116197751117D-01 0.100000000000D+01
0.178734790065D-04 0.000000000000D+00 0.000000000000D+00 0.612206218483D-06 0.000000000000D+00  7 -2 21 24 -11 11 -24 -2 2 0.14048300D+00 0.15895546D-01 0.48032595D+05 0.48032595D+05 0.48032595D+05 0.11488320D+01  1  2 12  4  7  2        2 0.320170337912D-02 0.100000000000D+01
-.176373178083D-04 0.000000000000D+00 -.568843010644D-06 0.612206218483D-06 0.000000000000D+00  7 -2 21 24 -11 11 -24 -2 2 0.14048300D+00 0.15961746D-01 0.41386216D+05 0.41386216D+05 0.41386216D+05 0.11545889D+01  1  2  5  4  7  2        2 -.318440387043D-02 0.100000000000D+01
  </mgrwgt>
  </event>
  <event>
  8     66 0.27011060E-05 0.17673515E+03 0.75467711E-02 0.94663721E-01
       -2 -1    0    0    0  501 0.00000000E+00 0.00000000E+00 0.68583918E+02 0.68584664E+02 0.32000000E+00 0.0000E+00 0.9000E+01
        2 -1    0    0  501    0 0.00000000E+00 0.00000000E+00 -.29369111E+04 0.29369111E+04 0.32000000E+00 0.0000E+00 0.9000E+01
       25  2    1    2    0    0 -.36146255E+03 0.13860098E+03 -.18044814E+04 0.18697225E+04 0.29973919E+03 0.0000E+00 0.0000E+00
       23  2    1    2    0    0 0.36146255E+03 -.13860098E+03 -.10638457E+04 0.11357733E+04 0.91366067E+02 0.0000E+00 0.0000E+00
       24  1    3    3    0    0 -.37135976E+03 0.14577167E+03 -.15513430E+04 0.16038360E+04 0.80419002E+02 0.0000E+00 0.9000E+01
      -11  1    4    4    0    0 0.28171373E+03 -.13104925E+03 -.92103913E+03 0.97203375E+03 0.51099893E-03 0.0000E+00 0.9000E+01
       11  1    4    4    0    0 0.79748822E+02 -.75517252E+01 -.14280662E+03 0.16373953E+03 0.51099893E-03 0.0000E+00 0.9000E+01
      -24  1    3    3    0    0 0.98972060E+01 -.71706869E+01 -.25313837E+03 0.26588649E+03 0.80419002E+02 0.0000E+00 0.9000E+01
#aMCatNLO 1  0  0  1  2 0.11139474D+03 0.00000000D+00  -5  7  0 0.00000000D+00 0.00000000D+00 0.00000000D+00 0.00000000D+00 0.00000000D+00
  <mgrwgt>
 0.1046146412D-02    9    2    0
 0.448805098794968D+03 0.000000000000000D+00 0.000000000000000D+00 0.448805098794968D+03
 0.448805098794968D+03 0.000000000000000D+00 0.000000000000000D+00 -.448805098794968D+03
 0.412832765000444D+03 -.371359756736646D+03 0.145771666447878D+03 -.693269661895663D+02
 0.311495750775396D+03 0.281713729124694D+03 -.131049254284016D+03 0.222051914062773D+02
 0.919133479782026D+02 0.797488216151533D+02 -.755172522624722D+01 0.450683972830617D+02
 0.813683338358929D+02 0.989720599679821D+01 -.717068693761470D+01 0.205337750022717D+01
 0.000000000000000D+00 0.000000000000000D+00 -.000000000000000D+00 0.000000000000000D+00
 0.686602020160397D+03 0.000000000000000D+00 0.000000000000000D+00 0.686602020160397D+03
 0.465485180556840D+03 0.000000000000000D+00 0.000000000000000D+00 -.465485180556840D+03
 0.464029887251508D+03 -.415500783077965D+03 0.177226948652921D+03 -.693269661895663D+02
 0.275975514276513D+03 0.252140586148622D+03 -.109975173432125D+03 0.222051914062773D+02
 0.840146893147212D+02 0.708926522842097D+02 -.124074134910731D+01 0.450683972830617D+02
 0.804758218017954D+02 0.175001542043511D+01 -.136492753419381D+01 0.205337750022717D+01
 0.247591288072699D+03 0.907175292246986D+02 -.646461063374947D+02 0.221116839603558D+03
0.632074661911D-04 0.000000000000D+00 0.000000000000D+00 0.306366705734D-05 0.000000000000D+00  7 -2 2 24 -11 11 -24 21 0 0.10551431D-01 0.45183253D+00 0.19321360D+06 0.19321360D+06 0.19321360D+06 0.10989787D+01  1  2  2  1  7  1       -2 0.895780089710D-03 0.100000000000D+01
-.350967644697D-05 0.000000000000D+00 -.242733313082D-06 0.306366705734D-05 0.000000000000D+00  7 -2 2 24 -11 11 -24 21 2 0.10551431D-01 0.45183253D+00 0.19321360D+06 0.19321360D+06 0.19321360D+06 0.10989787D+01  1  2  3  1  7  1       -2 -.600729069035D-04 0.100000000000D+01
0.381182162193D-05 0.000000000000D+00 0.000000000000D+00 0.306366705734D-05 0.000000000000D+00  7 -2 2 24 -11 11 -24 21 2 0.10551431D-01 0.45183253D+00 0.19321360D+06 0.19321360D+06 0.19321360D+06 0.10989787D+01  1  2 15  1  7  1       -2 0.652445343287D-04 0.100000000000D+01
0.149205804810D-03 0.000000000000D+00 0.000000000000D+00 0.306366705734D-05 0.000000000000D+00  7 -2 2 24 -11 11 -24 21 2 0.16253777D-01 0.45183253D+00 0.24832805D+06 0.24832805D+06 0.24832805D+06 0.10906784D+01  1  2 12  1  7  1       -2 0.124812752065D-02 0.100000000000D+01
-.146745387622D-03 0.000000000000D+00 0.000000000000D+00 0.306366705734D-05 0.000000000000D+00  7 -2 2 24 -11 11 -24 21 2 0.10551431D-01 0.45183253D+00 0.19321360D+06 0.19321360D+06 0.19321360D+06 0.10989787D+01  1  2  4  1  7  1       -2 -.251174777571D-02 0.100000000000D+01
-.169959635689D-03 0.000000000000D+00 -.237177987062D-04 0.306366705734D-05 0.000000000000D+00  7 -2 2 24 -11 11 -24 21 2 0.16850805D-01 0.45183253D+00 0.19321360D+06 0.19321360D+06 0.19321360D+06 0.10989787D+01  1  2  5  1  7  1       -2 -.137897860161D-02 0.100000000000D+01
0.165028030224D-03 0.000000000000D+00 0.213367856141D-04 0.306366705734D-05 0.000000000000D+00  7 -2 2 24 -11 11 -24 21 2 0.10551431D-01 0.45183253D+00 0.19321360D+06 0.19321360D+06 0.19321360D+06 0.10989787D+01  1  2  6  1  7  1       -2 0.282468017948D-02 0.100000000000D+01
0.751958252451D-05 0.000000000000D+00 0.000000000000D+00 0.306366705734D-05 0.000000000000D+00  7 21 2 24 -11 11 -24 2 2 0.16253777D-01 0.45183253D+00 0.24832805D+06 0.24832805D+06 0.24832805D+06 0.10906784D+01  1  2 12  3  7  1       -2 0.822752597079D-03 0.100000000000D+01
-.811194606988D-05 0.000000000000D+00 -.127026559258D-05 0.306366705734D-05 0.000000000000D+00  7 21 2 24 -11 11 -24 2 2 0.16850805D-01 0.45183253D+00 0.19321360D+06 0.19321360D+06 0.19321360D+06 0.10989787D+01  1  2  5  3  7  1       -2 -.859639224636D-03 0.100000000000D+01
  </mgrwgt>
  </event>
  <event>
  8     66 0.27011060E-05 0.14202306E+03 0.75467711E-02 0.10034334E+00
       -2 -1    0    0    0  501 0.00000000E+00 0.00000000E+00 0.36019041E+03 0.36019055E+03 0.32000000E+00 0.0000E+00 0.9000E+01
        2 -1    0    0  501    0 0.00000000E+00 0.00000000E+00 -.10634882E+04 0.10634882E+04 0.32000000E+00 0.0000E+00 0.9000E+01
       25  2    1    2    0    0 0.19593337E+03 0.91389450E+02 0.24695279E+03 0.44495174E+03 0.30042378E+03 0.0000E+00 0.0000E+00
       23  2    1    2    0    0 -.19593337E+03 -.91389450E+02 -.95025058E+03 0.97872706E+03 0.90490705E+02 0.0000E+00 0.0000E+00
       24  1    3    3    0    0 0.53917294E+02 0.14140975E+03 0.20864698E+03 0.27000847E+03 0.80419002E+02 0.0000E+00 0.9000E+01
      -13  1    4    4    0    0 -.19902472E+03 -.67507535E+02 -.84227393E+03 0.86809762E+03 0.10565837E+00 0.0000E+00 0.9000E+01
       13  1    4    4    0    0 0.30913491E+01 -.23881915E+02 -.10797666E+03 0.11062944E+03 0.10565837E+00 0.0000E+00 0.9000E+01
      -24  1    3    3    0    0 0.14201608E+03 -.50020302E+02 0.38305809E+02 0.17494327E+03 0.80419002E+02 0.0000E+00 0.9000E+01
#aMCatNLO 1  0  0  1  2 0.50485112D+02 0.00000000D+00  -5  7  0 0.00000000D+00 0.00000000D+00 0.00000000D+00 0.00000000D+00 0.00000000D+00
  <mgrwgt>
 0.1312642488D-02    9    2    0
 0.618917105402797D+03 0.000000000000000D+00 0.000000000000000D+00 0.618917105402797D+03
 0.618917105402797D+03 0.000000000000000D+00 0.000000000000000D+00 -.618917105402797D+03
 0.429093240525595D+03 0.539172939097732D+02 0.141409752365815D+03 0.393382765844758D+03
 0.519878631081027D+03 -.199024995799918D+03 -.675075940001483D+02 -.475505590770326D+03
 0.658894947839313D+02 0.309162461508523D+01 -.238818560165917D+02 -.613312671752662D+02
 0.222972844415040D+03 0.142016077275060D+03 -.500203023490751D+02 0.143454092100834D+03
 0.000000000000000D+00 -.000000000000000D+00 -.000000000000000D+00 0.000000000000000D+00
 0.650486745720293D+03 0.000000000000000D+00 0.000000000000000D+00 0.650486745720293D+03
 0.639949592814134D+03 0.000000000000000D+00 0.000000000000000D+00 -.639949592814134D+03
 0.432692010560505D+03 0.711720149426807D+02 0.144705576512617D+03 0.393382765844758D+03
 0.511821174710337D+03 -.178368234366371D+03 -.635619461396255D+02 -.475505590770326D+03
 0.658853816490632D+02 0.573002986643018D+01 -.233778942475287D+02 -.613312671752662D+02
 0.228464734655578D+03 0.151054790203620D+03 -.482938178542435D+02 0.143454092100834D+03
 0.515730369589440D+02 -.495886006463600D+02 -.947191827121920D+01 0.105371529061588D+02
0.813327959250D-04 0.000000000000D+00 0.000000000000D+00 0.594827827512D-05 0.000000000000D+00  7 -2 2 24 -13 13 -24 21 0 0.55413924D-01 0.16361358D+00 0.83036546D+05 0.83036546D+05 0.83036546D+05 0.11284078D+01  1  2  2  1  7  1       -2 0.759989526085D-03 0.100000000000D+01
-.130795955029D-05 0.000000000000D+00 -.312339351769D-06 0.594827827512D-05 0.000000000000D+00  7 -2 2 24 -13 13 -24 21 2 0.55413924D-01 0.16361358D+00 0.83036546D+05 0.83036546D+05 0.83036546D+05 0.11284078D+01  1  2  3  1  7  1       -2 -.155621050502D-04 0.100000000000D+01
0.492845655531D-05 0.000000000000D+00 0.000000000000D+00 0.594827827512D-05 0.000000000000D+00  7 -2 2 24 -13 13 -24 21 2 0.55413924D-01 0.16361358D+00 0.83036546D+05 0.83036546D+05 0.83036546D+05 0.11284078D+01  1  2 15  1  7  1       -2 0.586387848405D-04 0.100000000000D+01
0.181862114361D-03 0.000000000000D+00 0.000000000000D+00 0.594827827512D-05 0.000000000000D+00  7 -2 2 24 -13 13 -24 21 2 0.59141961D-01 0.16361358D+00 0.96697014D+05 0.96697014D+05 0.96697014D+05 0.11229210D+01  1  2 12  1  7  1       -2 0.186804893725D-02 0.100000000000D+01
-.160926915960D-03 0.000000000000D+00 0.000000000000D+00 0.594827827512D-05 0.000000000000D+00  7 -2 2 24 -13 13 -24 21 2 0.55413924D-01 0.16361358D+00 0.83036546D+05 0.83036546D+05 0.83036546D+05 0.11284078D+01  1  2  4  1  7  1       -2 -.191470873166D-02 0.100000000000D+01
-.521423096579D-03 0.000000000000D+00 -.128020226831D-03 0.594827827512D-05 0.000000000000D+00  7 -2 2 24 -13 13 -24 21 2 0.60022552D-01 0.16361358D+00 0.83036546D+05 0.83036546D+05 0.83036546D+05 0.11284078D+01  1  2  5  1  7  1       -2 -.527622849291D-02 0.100000000000D+01
0.530364633241D-03 0.000000000000D+00 0.127612776993D-03 0.594827827512D-05 0.000000000000D+00  7 -2 2 24 -13 13 -24 21 2 0.55413924D-01 0.16361358D+00 0.83036546D+05 0.83036546D+05 0.83036546D+05 0.11284078D+01  1  2  6  1  7  1       -2 0.631027934741D-02 0.100000000000D+01
0.214810334628D-05 0.000000000000D+00 0.000000000000D+00 0.594827827512D-05 0.000000000000D+00  7 21 2 24 -13 13 -24 2 2 0.59141961D-01 0.16361358D+00 0.96697014D+05 0.96697014D+05 0.96697014D+05 0.11229210D+01  1  2 12  3  7  1       -2 0.230848608140D-03 0.100000000000D+01
-.667935625936D-05 0.000000000000D+00 -.170785377282D-05 0.594827827512D-05 0.000000000000D+00  7 21 2 24 -13 13 -24 2 2 0.60022552D-01 0.16361358D+00 0.83036546D+05 0.83036546D+05 0.83036546D+05 0.11284078D+01  1  2  5  3  7  1       -2 -.708663386399D-03 0.100000000000D+01
  </mgrwgt>
  </event>
  <event>
  8     66 0.27011060E-05 0.28225251E+03 0.75467711E-02 0.90872531E-01
       -2 -1    0    0    0  501 0.00000000E+00 0.00000000E+00 0.37665041E+03 0.37665055E+03 0.32000000E+00 0.0000E+00 0.9000E+01
        2 -1    0    0  501    0 0.00000000E+00 0.00000000E+00 -.48557130E+03 0.48557141E+03 0.32000000E+00 0.0000E+00 0.9000E+01
       25  2    1    2    0    0 0.10272795E+03 0.18018286E+03 -.36570028E+03 0.51962976E+03 0.30538416E+03 0.0000E+00 0.0000E+00
       23  2    1    2    0    0 -.10272795E+03 -.18018286E+03 0.25677940E+03 0.34259220E+03 0.91732559E+02 0.0000E+00 0.0000E+00
       24  1    3    3    0    0 0.79407825E+02 -.30874323E+02 -.22171382E+03 0.25076495E+03 0.80419002E+02 0.0000E+00 0.9000E+01
      -13  1    4    4    0    0 0.11993362E+02 -.16081081E+02 0.45838507E+01 0.20578260E+02 0.10565837E+00 0.0000E+00 0.9000E+01
       13  1    4    4    0    0 -.11472132E+03 -.16410178E+03 0.25219554E+03 0.32201394E+03 0.10565837E+00 0.0000E+00 0.9000E+01
      -24  1    3    3    0    0 0.23320130E+02 0.21105719E+03 -.14398646E+03 0.26886480E+03 0.80419002E+02 0.0000E+00 0.9000E+01
#aMCatNLO 1  0  0  1  1 0.63849982D+03 0.00000000D+00  -5  7  0 0.00000000D+00 0.00000000D+00 0.00000000D+00 0.00000000D+00 0.00000000D+00
  <mgrwgt>
 0.1265615406D-02    5    2    0
 0.427657265257179D+03 0.000000000000000D+00 0.000000000000000D+00 0.427657265257179D+03
 0.427657265257179D+03 0.000000000000000D+00 0.000000000000000D+00 -.427657265257179D+03
 0.224555733627197D+03 0.794078254033568D+02 -.308743225561253D+02 -.191570444019657D+03
 0.213277375319910D+02 0.119935302583125D+02 -.160808850704908D+02 0.724104657671139D+01
 0.356731034066374D+03 -.114721485279389D+03 -.164101979924421D+03 0.295239820597155D+03
 0.252700025288794D+03 0.233201296177196D+02 0.211057187551037D+03 -.110910423154210D+03
 0.000000000000000D+00 -.000000000000000D+00 -.000000000000000D+00 0.000000000000000D+00
 0.267299136318247D+04 0.000000000000000D+00 0.000000000000000D+00 0.267299136318247D+04
 0.581318763276864D+03 0.000000000000000D+00 0.000000000000000D+00 -.581318763276864D+03
 0.320663305450885D+03 0.237347030974036D+03 0.576618710608556D+02 -.191570444019657D+03
 0.285549428563624D+02 0.264435592330790D+02 -.798061282676101D+01 0.724104657671139D+01
 0.310561790476170D+03 0.785800890190290D+02 -.557426555456925D+02 0.295239820597155D+03
 0.407574148453674D+03 0.214588539165661D+03 0.318276778021691D+03 -.110910423154210D+03
 0.218695593922224D+04 -.556959218391805D+03 -.312215380710093D+03 0.209167259990561D+04
0.561850240406D-04 0.000000000000D+00 0.000000000000D+00 0.486668482893D-07 0.000000000000D+00  7 -2 2 24 -13 13 -24 21 0 0.57946236D-01 0.74703296D-01 0.79666480D+05 0.79666480D+05 0.79666480D+05 0.11299147D+01  1  2  2  1  7  1       -2 0.125976577631D-02 0.100000000000D+01
-.246613059735D-05 0.000000000000D+00 -.215765286172D-06 0.486668482893D-07 0.000000000000D+00  7 -2 2 24 -13 13 -24 21 2 0.57946236D-01 0.74703296D-01 0.79666480D+05 0.79666480D+05 0.79666480D+05 0.11299147D+01  1  2  3  1  7  1       -2 -.705954342052D-04 0.100000000000D+01
0.301668706565D-05 0.000000000000D+00 0.000000000000D+00 0.486668482893D-07 0.000000000000D+00  7 -2 2 24 -13 13 -24 21 2 0.57946236D-01 0.74703296D-01 0.79666480D+05 0.79666480D+05 0.79666480D+05 0.11299147D+01  1  2 15  1  7  1       -2 0.863556591403D-04 0.100000000000D+01
-.425058414256D-04 0.000000000000D+00 -.275766656529D-04 0.486668482893D-07 0.000000000000D+00  7 -2 2 24 -13 13 -24 21 2 0.39559558D+00 0.74703296D-01 0.79666480D+05 0.79666480D+05 0.79666480D+05 0.11299147D+01  1  2  5  1  7  1       -2 -.303070994470D-05 0.100000000000D+01
-.124498754855D-04 0.000000000000D+00 -.648041815895D-05 0.486668482893D-07 0.000000000000D+00  7 21 2 24 -13 13 -24 2 2 0.39559558D+00 0.74703296D-01 0.79666480D+05 0.79666480D+05 0.79666480D+05 0.11299147D+01  1  2  5  3  7  1       -2 -.687988495409D-05 0.100000000000D+01
  </mgrwgt>
  </event>
  <event>
  7     66 0.27011060E-05 0.18063824E+03 0.75467711E-02 0.97893232E-01
       -2 -1    0    0    0  501 0.00000000E+00 0.00000000E+00 0.19455180E+03 0.19455206E+03 0.32000000E+00 0.0000E+00 0.9000E+01
        2 -1    0    0  501    0 0.00000000E+00 0.00000000E+00 -.63972604E+03 0.63972612E+03 0.32000000E+00 0.0000E+00 0.9000E+01
       25  2    1    2    0    0 0.24965107E+03 0.62595113E+02 -.34554098E+03 0.52529082E+03 0.30047973E+03 0.0000E+00 0.0000E+00
       24  1    3    3    0    0 0.28090835E+03 0.60116937E+01 -.24782701E+03 0.38318544E+03 0.80419002E+02 0.0000E+00 0.9000E+01
      -11  1    1    2    0    0 -.23974724E+03 -.28774439E+02 -.47555108E+02 0.24610607E+03 0.51099893E-03 0.0000E+00 0.9000E+01
       11  1    1    2    0    0 -.99038322E+01 -.33820674E+02 -.52078154E+02 0.62881301E+02 0.51099893E-03 0.0000E+00 0.9000E+01
      -24  1    3    3    0    0 -.31257278E+02 0.56583419E+02 -.97713974E+02 0.14210537E+03 0.80419002E+02 0.0000E+00 0.9000E+01
#aMCatNLO 1  0  0  1  2 0.79571562D+02 0.00000000D+00  -5  7  0 0.00000000D+00 0.00000000D+00 0.00000000D+00 0.00000000D+00 0.00000000D+00
  <mgrwgt>
 0.8605118457D-03    9    2    0
 0.352788882518814D+03 0.000000000000000D+00 0.000000000000000D+00 0.352788882518814D+03
 0.352788882518814D+03 0.000000000000000D+00 0.000000000000000D+00 -.352788882518814D+03
 0.296717197760597D+03 0.280908353602111D+03 0.601169442834500D+01 -.512663232461843D+02
 0.260992654484309D+03 -.239747241723439D+03 -.287744427790099D+02 0.990477522386360D+02
 0.414931474946867D+02 -.990383538323175D+01 -.338206711966563D+02 -.219033680863318D+02
 0.106374765298035D+03 -.312572764954401D+02 0.565834195473212D+02 -.258780609061199D+02
 0.000000000000000D+00 0.000000000000000D+00 -.000000000000000D+00 0.000000000000000D+00
 0.421925810149230D+03 0.000000000000000D+00 0.000000000000000D+00 0.421925810149230D+03
 0.378685818584332D+03 0.000000000000000D+00 0.000000000000000D+00 -.378685818584332D+03
 0.278266451415773D+03 0.259645064854284D+03 0.303513826174173D+02 -.512663232461843D+02
 0.277991497637903D+03 -.259679244439506D+03 -.595865276428878D+01 0.990477522386360D+02
 0.396185884760594D+02 -.129034028757231D+02 -.303871224951753D+02 -.219033680863318D+02
 0.114173894479875D+03 -.394133168324506D+02 0.659194860897378D+02 -.258780609061199D+02
 0.905611967239513D+02 0.523508992933957D+02 -.599250934476911D+02 0.432399915648978D+02
0.110279062100D-04 0.000000000000D+00 0.000000000000D+00 0.167661214860D-08 0.000000000000D+00  7 -2 2 24 -11 11 -24 21 0 0.29931072D-01 0.98419418D-01 0.11294392D+06 0.11294392D+06 0.11294392D+06 0.11174097D+01  1  2  2  1  7  1       -2 0.623596890729D-03 0.100000000000D+01
-.610905888730D-06 0.000000000000D+00 -.423500635609D-07 0.167661214860D-08 0.000000000000D+00  7 -2 2 24 -11 11 -24 21 2 0.29931072D-01 0.98419418D-01 0.11294392D+06 0.11294392D+06 0.11294392D+06 0.11174097D+01  1  2  3  1  7  1       -2 -.431330378673D-04 0.100000000000D+01
0.728782052335D-06 0.000000000000D+00 0.000000000000D+00 0.167661214860D-08 0.000000000000D+00  7 -2 2 24 -11 11 -24 21 2 0.29931072D-01 0.98419418D-01 0.11294392D+06 0.11294392D+06 0.11294392D+06 0.11174097D+01  1  2 15  1  7  1       -2 0.514556897228D-04 0.100000000000D+01
0.124271352379D-04 0.000000000000D+00 0.000000000000D+00 0.167661214860D-08 0.000000000000D+00  7 -2 2 24 -11 11 -24 21 2 0.36733663D-01 0.98419418D-01 0.14327668D+06 0.14327668D+06 0.14327668D+06 0.11091270D+01  1  2 12  1  7  1       -2 0.597032646622D-03 0.100000000000D+01
-.125306297205D-04 0.000000000000D+00 0.000000000000D+00 0.167661214860D-08 0.000000000000D+00  7 -2 2 24 -11 11 -24 21 2 0.29931072D-01 0.98419418D-01 0.11294392D+06 0.11294392D+06 0.11294392D+06 0.11174097D+01  1  2  4  1  7  1       -2 -.884725677400D-03 0.100000000000D+01
-.246633982036D-04 0.000000000000D+00 -.652567508936D-05 0.167661214860D-08 0.000000000000D+00  7 -2 2 24 -11 11 -24 21 2 0.38141062D-01 0.98419418D-01 0.11294392D+06 0.11294392D+06 0.11294392D+06 0.11174097D+01  1  2  5  1  7  1       -2 -.112608070579D-02 0.100000000000D+01
0.256743602089D-04 0.000000000000D+00 0.633855082247D-05 0.167661214860D-08 0.000000000000D+00  7 -2 2 24 -11 11 -24 21 2 0.29931072D-01 0.98419418D-01 0.11294392D+06 0.11294392D+06 0.11294392D+06 0.11174097D+01  1  2  6  1  7  1       -2 0.181273936221D-02 0.100000000000D+01
0.362133585071D-06 0.000000000000D+00 0.000000000000D+00 0.167661214860D-08 0.000000000000D+00  7 21 2 24 -11 11 -24 2 2 0.36733663D-01 0.98419418D-01 0.14327668D+06 0.14327668D+06 0.14327668D+06 0.11091270D+01  1  2 12  3  7  1       -2 0.196528423243D-03 0.100000000000D+01
-.711891999444D-06 0.000000000000D+00 -.215861606232D-06 0.167661214860D-08 0.000000000000D+00  7 21 2 24 -11 11 -24 2 2 0.38141062D-01 0.98419418D-01 0.11294392D+06 0.11294392D+06 0.11294392D+06 0.11174097D+01  1  2  5  3  7  1       -2 -.366901745762D-03 0.100000000000D+01
  </mgrwgt>
  </event>
  <event>
  8     66 0.27011060E-05 0.10135037E+04 0.75467711E-02 0.81480609E-01
       -2 -1    0    0    0  501 0.00000000E+00 0.00000000E+00 0.17148602E+04 0.17148602E+04 0.32000000E+00 0.0000E+00 0.9000E+01
        2 -1    0    0  501    0 0.00000000E+00 0.00000000E+00 -.69032342E+03 0.69032349E+03 0.32000000E+00 0.0000E+00 0.9000E+01
       25  2    1    2    0    0 -.99417136E+03 0.40435852E+02 0.10023533E+03 0.10440405E+04 0.29993606E+03 0.0000E+00 0.0000E+00
       23  2    1    2    0    0 0.99417136E+03 -.40435852E+02 0.92430142E+03 0.13611432E+04 0.91465744E+02 0.0000E+00 0.0000E+00
       24  1    3    3    0    0 -.87587581E+03 0.11627828E+01 0.13960111E+03 0.89057031E+03 0.80419002E+02 0.0000E+00 0.9000E+01
      -13  1    4    4    0    0 0.83208583E+03 -.11506843E+00 0.77605076E+03 0.11378144E+04 0.10565837E+00 0.0000E+00 0.9000E+01
       13  1    4    4    0    0 0.16208553E+03 -.40320783E+02 0.14825066E+03 0.22332880E+03 0.10565837E+00 0.0000E+00 0.9000E+01
      -24  1    3    3    0    0 -.11829555E+03 0.39273069E+02 -.39365786E+02 0.15347017E+03 0.80419002E+02 0.0000E+00 0.9000E+01
#aMCatNLO 1  0  0  1  2 0.14045488D+04 0.00000000D+00  -5  7  0 0.00000000D+00 0.00000000D+00 0.00000000D+00 0.00000000D+00 0.00000000D+00
  <mgrwgt>
 0.8450583052D-03    3    2    0
 0.108802953264986D+04 0.000000000000000D+00 0.000000000000000D+00 0.108802953264986D+04
 0.108802953264986D+04 0.000000000000000D+00 0.000000000000000D+00 -.108802953264986D+04
 0.918614182169133D+03 -.875875812172037D+03 0.116278284426346D+01 -.265000017577217D+03
 0.892237836433760D+03 0.832086728130525D+03 -.115014783169634D+00 0.322055927448378D+03
 0.177043202689152D+03 0.162084634667884D+03 -.403208367838228D+02 0.587119829682409D+02
 0.188163844007669D+03 -.118295550626372D+03 0.392730687227290D+02 -.115767892839401D+03
 0.000000000000000D+00 -.000000000000000D+00 -.000000000000000D+00 -.000000000000000D+00
 0.160902496394513D+04 0.000000000000000D+00 0.000000000000000D+00 0.160902496394513D+04
 0.286547825379929D+04 0.000000000000000D+00 0.000000000000000D+00 -.286547825379929D+04
 0.668817041858514D+03 -.524168342016767D+03 0.309631328255830D+03 -.265000017577217D+03
 0.146568365830583D+04 0.135450218222213D+04 0.458074670960545D+03 0.322055927448378D+03
 0.272211945086200D+03 0.261620532089258D+03 0.469781150418268D+02 0.587119829682409D+02
 0.183266186341037D+03 -.360024003239669D+02 0.111449097170210D+03 -.115767892839401D+03
 0.188452438615284D+04 -.105595197197065D+04 -.926133211428413D+03 -.125645328985415D+04
0.367538185405D-02 0.000000000000D+00 0.000000000000D+00 0.216548000862D-04 0.000000000000D+00  7 -2 2 24 -13 13 -24 21 0 0.26382465D+00 0.10620361D+00 0.10271898D+07 0.10271898D+07 0.10271898D+07 0.10470893D+01  1  2  2  1  7  1       -2 0.843246225186D-03 0.100000000000D+01
-.202937977661D-03 0.000000000000D+00 -.141144340698D-04 0.216548000862D-04 0.000000000000D+00  7 -2 2 24 -13 13 -24 21 2 0.26382465D+00 0.10620361D+00 0.10271898D+07 0.10271898D+07 0.10271898D+07 0.10470893D+01  1  2  3  1  7  1       -2 -.510484665042D-04 0.100000000000D+01
0.210141717247D-03 0.000000000000D+00 0.000000000000D+00 0.216548000862D-04 0.000000000000D+00  7 -2 2 24 -13 13 -24 21 2 0.26382465D+00 0.10620361D+00 0.10271898D+07 0.10271898D+07 0.10271898D+07 0.10470893D+01  1  2 15  1  7  1       -2 0.528605465457D-04 0.100000000000D+01
  </mgrwgt>
  </event>
  <event>
  8     66 0.27011060E-05 0.19337599E+03 0.75467711E-02 0.96440015E-01
       -2 -1    0    0    0  501 0.00000000E+00 0.00000000E+00 0.93966457E+03 0.93966463E+03 0.32000000E+00 0.0000E+00 0.9000E+01
        2 -1    0    0  501    0 0.00000000E+00 0.00000000E+00 -.40396588E+02 0.40397855E+02 0.32000000E+00 0.0000E+00 0.9000E+01
       25  2    1    2    0    0 0.42599030E+00 -.14942311E+02 0.70828441E+03 0.76850691E+03 0.29784663E+03 0.0000E+00 0.0000E+00
       23  2    1    2    0    0 -.42599030E+00 0.14942311E+02 0.19098358E+03 0.21155557E+03 0.89764016E+02 0.0000E+00 0.0000E+00
       24  1    3    3    0    0 0.52143586E+00 -.13150112E+03 0.31960018E+03 0.35482997E+03 0.80419002E+02 0.0000E+00 0.9000E+01
      -11  1    4    4    0    0 -.27759589E+01 -.37952050E+02 0.80086306E+02 0.88667245E+02 0.51099893E-03 0.0000E+00 0.9000E+01
       11  1    4    4    0    0 0.23499686E+01 0.52894360E+02 0.11089727E+03 0.12288833E+03 0.51099893E-03 0.0000E+00 0.9000E+01
      -24  1    3    3    0    0 -.95445559E-01 0.11655881E+03 0.38868423E+03 0.41367694E+03 0.80419002E+02 0.0000E+00 0.9000E+01
#aMCatNLO 1  0  0  2  2 0.34074905D+03 0.00000000D+00  -5  7  0 0.00000000D+00 0.00000000D+00 0.00000000D+00 0.00000000D+00 0.00000000D+00
  <mgrwgt>
 0.2265618263D-02    3    2    0
 0.194832980370231D+03 0.000000000000000D+00 0.000000000000000D+00 0.194832980370231D+03
 0.194832980370231D+03 0.000000000000000D+00 0.000000000000000D+00 -.194832980370231D+03
 0.154875490443105D+03 0.521470136678543D+00 -.131502326807229D+03 -.150355478384735D+02
 0.381863195559769D+02 -.277596785122508D+01 -.379507642308834D+02 -.319820230943115D+01
 0.531539742561834D+02 0.234991152192603D+01 0.528953910469795D+02 -.467979711667627D+01
 0.143450176485197D+03 -.954138073794886D-01 0.116557699991133D+03 0.229135472645809D+02
 0.000000000000000D+00 0.000000000000000D+00 0.000000000000000D+00 0.000000000000000D+00
 0.434265220260258D+03 0.000000000000000D+00 0.000000000000000D+00 0.434265220260258D+03
 0.424268788272683D+03 0.000000000000000D+00 0.000000000000000D+00 -.424268788272683D+03
 0.312622801064228D+03 -.636024510972555D+02 -.294948233265587D+03 -.150355478384735D+02
 0.825079436948344D+02 -.193308720523270D+02 -.801476740800036D+02 -.319820230943115D+01
 0.268002340003148D+02 -.861692503277148D+01 0.249419454814169D+02 -.467979711667627D+01
 0.957073834260403D+02 -.328992139770054D+02 0.329438667939512D+02 0.229135472645809D+02
 0.340895646347524D+03 0.124449462159359D+03 0.317210095070223D+03 0.999643198757572D+01
0.445075535428D-04 0.000000000000D+00 0.000000000000D+00 0.580539828521D-08 0.000000000000D+00  7 -2 2 24 -11 11 -24 21 0 0.14456388D+00 0.62149613D-02 0.37394275D+05 0.37394275D+05 0.37394275D+05 0.11585610D+01  1  2  2  2  7  2        2 0.223551668959D-02 0.100000000000D+01
-.247247247371D-05 0.000000000000D+00 -.170920724712D-06 0.580539828521D-08 0.000000000000D+00  7 -2 2 24 -11 11 -24 21 2 0.14456388D+00 0.62149613D-02 0.37394275D+05 0.37394275D+05 0.37394275D+05 0.11585610D+01  1  2  3  2  7  2        2 -.166691492887D-03 0.100000000000D+01
0.291895783181D-05 0.000000000000D+00 0.000000000000D+00 0.580539828521D-08 0.000000000000D+00  7 -2 2 24 -11 11 -24 21 2 0.14456388D+00 0.62149613D-02 0.37394275D+05 0.37394275D+05 0.37394275D+05 0.11585610D+01  1  2 15  2  7  2        2 0.196793065982D-03 0.100000000000D+01
  </mgrwgt>
  </event>
  <event>
  8     66 0.27011060E-05 0.51513943E+03 0.75467711E-02 0.90391539E-01
       -2 -1    0    0    0  501 0.00000000E+00 0.00000000E+00 0.54656054E+03 0.54656063E+03 0.32000000E+00 0.0000E+00 0.9000E+01
        2 -1    0    0  501    0 0.00000000E+00 0.00000000E+00 -.10242260E+04 0.10242261E+04 0.32000000E+00 0.0000E+00 0.9000E+01
       25  2    1    2    0    0 0.66754875E+03 0.14520151E+03 -.30335487E+02 0.74670416E+03 0.29990340E+03 0.0000E+00 0.0000E+00
       23  2    1    2    0    0 -.66754875E+03 -.14520151E+03 -.44733002E+03 0.82408257E+03 0.11091942E+03 0.0000E+00 0.0000E+00
       24  1    3    3    0    0 0.59456795E+03 0.16486913E+03 -.76827819E+02 0.62694705E+03 0.80419002E+02 0.0000E+00 0.9000E+01
      -13  1    4    4    0    0 -.49191246E+02 -.43036229E+02 -.41471375E+02 0.77406601E+02 0.10565837E+00 0.0000E+00 0.9000E+01
       13  1    4    4    0    0 -.61835751E+03 -.10216528E+03 -.40585865E+03 0.74667597E+03 0.10565837E+00 0.0000E+00 0.9000E+01
      -24  1    3    3    0    0 0.72980804E+02 -.19667619E+02 0.46492332E+02 0.11975711E+03 0.80419002E+02 0.0000E+00 0.9000E+01
#aMCatNLO 1  0  0  1  2 0.52786674D+02 0.00000000D+00  -5  7  0 0.00000000D+00 0.00000000D+00 0.00000000D+00 0.00000000D+00 0.00000000D+00
  <mgrwgt>
 0.9831548639D-03    9    2    0
 0.748198940927332D+03 0.000000000000000D+00 0.000000000000000D+00 0.748198940927332D+03
 0.748198940927332D+03 0.000000000000000D+00 0.000000000000000D+00 -.748198940927332D+03
 0.633589583700812D+03 0.594567949322320D+03 0.164869127109332D+03 0.119480831871289D+03
 0.680160134516473D+02 -.491907315881545D+02 -.430361718465443D+02 -.188238658216505D+02
 0.654240985125309D+03 -.618358022240306D+03 -.102165335864090D+03 -.187688217788358D+03
 0.140551299576896D+03 0.729808045061406D+02 -.196676193986968D+02 0.870312517387192D+02
 0.000000000000000D+00 0.000000000000000D+00 0.000000000000000D+00 0.000000000000000D+00
 0.788212683467051D+03 0.000000000000000D+00 0.000000000000000D+00 0.788212683467051D+03
 0.766278404544810D+03 0.000000000000000D+00 0.000000000000000D+00 -.766278404544810D+03
 0.622881197918992D+03 0.588769616508554D+03 0.143486725024800D+03 0.119480831871289D+03
 0.699776888262710D+02 -.498275417899640D+02 -.453845247652136D+02 -.188238658216505D+02
 0.663835211511534D+03 -.624440650323508D+03 -.124596128228562D+03 -.187688217788358D+03
 0.140634540947362D+03 0.716831944783322D+02 -.244527913187438D+02 0.870312517387192D+02
 0.571624488077016D+02 0.138153811265849D+02 0.509467192877187D+02 0.219342789222417D+02
0.140919437199D-03 0.000000000000D+00 0.000000000000D+00 0.586754716852D-07 0.000000000000D+00  7 -2 2 24 -13 13 -24 21 0 0.84086248D-01 0.15757325D+00 0.50743282D+06 0.50743282D+06 0.50743282D+06 0.10680578D+01  1  2  2  1  7  1       -2 0.530519779653D-03 0.100000000000D+01
-.780590121900D-05 0.000000000000D+00 -.541167743784D-06 0.586754716852D-07 0.000000000000D+00  7 -2 2 24 -13 13 -24 21 2 0.84086248D-01 0.15757325D+00 0.50743282D+06 0.50743282D+06 0.50743282D+06 0.10680578D+01  1  2  3  1  7  1       -2 -.335230263461D-04 0.100000000000D+01
0.899713145754D-05 0.000000000000D+00 0.000000000000D+00 0.586754716852D-07 0.000000000000D+00  7 -2 2 24 -13 13 -24 21 2 0.84086248D-01 0.15757325D+00 0.50743282D+06 0.50743282D+06 0.50743282D+06 0.10680578D+01  1  2 15  1  7  1       -2 0.386388536607D-04 0.100000000000D+01
0.397885126177D-03 0.000000000000D+00 0.000000000000D+00 0.586754716852D-07 0.000000000000D+00  7 -2 2 24 -13 13 -24 21 2 0.89558835D-01 0.15757325D+00 0.54665271D+06 0.54665271D+06 0.54665271D+06 0.10657831D+01  1  2 12  1  7  1       -2 0.146536782781D-02 0.100000000000D+01
-.377738293363D-03 0.000000000000D+00 0.000000000000D+00 0.586754716852D-07 0.000000000000D+00  7 -2 2 24 -13 13 -24 21 2 0.84086248D-01 0.15757325D+00 0.50743282D+06 0.50743282D+06 0.50743282D+06 0.10680578D+01  1  2  4  1  7  1       -2 -.162222534017D-02 0.100000000000D+01
-.148027765415D-02 0.000000000000D+00 -.242564358444D-03 0.586754716852D-07 0.000000000000D+00  7 -2 2 24 -13 13 -24 21 2 0.90224492D-01 0.15757325D+00 0.50743282D+06 0.50743282D+06 0.50743282D+06 0.10680578D+01  1  2  5  1  7  1       -2 -.539800027575D-02 0.100000000000D+01
0.149425854780D-02 0.000000000000D+00 0.241963518477D-03 0.586754716852D-07 0.000000000000D+00  7 -2 2 24 -13 13 -24 21 2 0.84086248D-01 0.15757325D+00 0.50743282D+06 0.50743282D+06 0.50743282D+06 0.10680578D+01  1  2  6  1  7  1       -2 0.641720504274D-02 0.100000000000D+01
0.486704727444D-05 0.000000000000D+00 0.000000000000D+00 0.586754716852D-07 0.000000000000D+00  7 21 2 24 -13 13 -24 2 2 0.89558835D-01 0.15757325D+00 0.54665271D+06 0.54665271D+06 0.54665271D+06 0.10657831D+01  1  2 12  3  7  1       -2 0.165307252091D-03 0.100000000000D+01
-.172352026142D-04 0.000000000000D+00 -.289187545322D-05 0.586754716852D-07 0.000000000000D+00  7 21 2 24 -13 13 -24 2 2 0.90224492D-01 0.15757325D+00 0.50743282D+06 0.50743282D+06 0.50743282D+06 0.10680578D+01  1  2  5  3  7  1       -2 -.580135249771D-03 0.100000000000D+01
  </mgrwgt>
  </event>
  <event>
  8     66 0.27011060E-05 0.32679507E+03 0.75467711E-02 0.95407250E-01
       -2 -1    0    0    0  501 0.00000000E+00 0.00000000E+00 0.30892478E+03 0.30892494E+03 0.32000000E+00 0.0000E+00 0.9000E+01
        2 -1    0    0  501    0 0.00000000E+00 0.00000000E+00 -.24239134E+04 0.24239134E+04 0.32000000E+00 0.0000E+00 0.9000E+01
       25  2    1    2    0    0 -.26682168E+02 -.25781878E+03 0.16998141E+03 0.43143499E+03 0.30010000E+03 0.0000E+00 0.0000E+00
       23  2    1    2    0    0 0.26682168E+02 0.25781878E+03 -.22849700E+04 0.23014033E+04 0.90482036E+02 0.0000E+00 0.0000E+00
       24  1    3    3    0    0 0.38010759E+02 -.26906798E+03 0.81103381E+02 0.29476664E+03 0.80419002E+02 0.0000E+00 0.9000E+01
      -11  1    4    4    0    0 0.48576626E+01 0.23408776E+03 -.21463732E+04 0.21591059E+04 0.51099893E-03 0.0000E+00 0.9000E+01
       11  1    4    4    0    0 0.21824505E+02 0.23731018E+02 -.13859681E+03 0.14229739E+03 0.51099893E-03 0.0000E+00 0.9000E+01
      -24  1    3    3    0    0 -.64692927E+02 0.11249197E+02 0.88878027E+02 0.13666835E+03 0.80419002E+02 0.0000E+00 0.9000E+01
#aMCatNLO 1  0  0  1  1 0.23126695D+03 0.00000000D+00  -5  7  0 0.00000000D+00 0.00000000D+00 0.00000000D+00 0.00000000D+00 0.00000000D+00
  <mgrwgt>
 0.1207858219D-02    4    2    0
 0.865336438725565D+03 0.000000000000000D+00 0.000000000000000D+00 0.865336438725565D+03
 0.865336438725565D+03 0.000000000000000D+00 0.000000000000000D+00 -.865336438725565D+03
 0.564567860262828D+03 0.380107593211724D+02 -.269067979586517D+03 0.488290136521756D+03
 0.786360460369522D+03 0.485766256285637D+01 0.234087764197207D+03 -.750694408797711D+03
 0.553224586578684D+02 0.218245052783987D+02 0.237310180418186D+02 -.449566923160901D+02
 0.324422098160912D+03 -.646929271624275D+02 0.112491973474912D+02 0.307360964592045D+03
 0.000000000000000D+00 0.000000000000000D+00 -.000000000000000D+00 -.000000000000000D+00
 0.921504673080593D+03 0.000000000000000D+00 0.000000000000000D+00 0.921504673080593D+03
 0.114885486555531D+04 0.000000000000000D+00 0.000000000000000D+00 -.114885486555531D+04
 0.563170567335160D+03 -.369526534156100D+02 -.266272634604734D+03 0.488290136521756D+03
 0.793867193573794D+03 -.100183768093134D+03 0.238004702145250D+03 -.750694408797711D+03
 0.530180276389091D+02 0.146228595850197D+02 0.239995635017252D+02 -.449566923160901D+02
 0.336000628955092D+03 -.108592771543005D+03 0.128861987220308D+02 0.307360964592045D+03
 0.324303121132951D+03 0.231106333466729D+03 -.861782976427162D+01 -.227350192474721D+03
0.555847647121D-03 0.000000000000D+00 0.000000000000D+00 0.218979021875D-04 0.000000000000D+00  7 -2 2 24 -11 11 -24 21 0 0.47526903D-01 0.37290976D+00 0.10679502D+06 0.10679502D+06 0.10679502D+06 0.11193866D+01  1  2  2  1  7  1       -2 0.125188787518D-02 0.100000000000D+01
0.472293860567D-05 0.000000000000D+00 -.213460132299D-05 0.218979021875D-04 0.000000000000D+00  7 -2 2 24 -11 11 -24 21 2 0.47526903D-01 0.37290976D+00 0.10679502D+06 0.10679502D+06 0.10679502D+06 0.11193866D+01  1  2  3  1  7  1       -2 0.133285276282D-04 0.100000000000D+01
0.339032750400D-04 0.000000000000D+00 0.000000000000D+00 0.218979021875D-04 0.000000000000D+00  7 -2 2 24 -11 11 -24 21 2 0.47526903D-01 0.37290976D+00 0.10679502D+06 0.10679502D+06 0.10679502D+06 0.11193866D+01  1  2 15  1  7  1       -2 0.956778768018D-04 0.100000000000D+01
-.542280391446D-04 0.000000000000D+00 0.000000000000D+00 0.218979021875D-04 0.000000000000D+00  7 -2 2 24 -11 11 -24 21 2 0.47526903D-01 0.37290976D+00 0.10679502D+06 0.10679502D+06 0.10679502D+06 0.11193866D+01  1  2  4  1  7  1       -2 -.153036060450D-03 0.100000000000D+01
  </mgrwgt>
  </event>
  <event>
  8     66 0.27011060E-05 0.20073081E+03 0.75467711E-02 0.10023078E+00
       -2 -1    0    0    0  501 0.00000000E+00 0.00000000E+00 0.11303596E+03 0.11303642E+03 0.32000000E+00 0.0000E+00 0.9000E+01
        2 -1    0    0  501    0 0.00000000E+00 0.00000000E+00 -.77969654E+03 0.77969661E+03 0.32000000E+00 0.0000E+00 0.9000E+01
       25  2    1    2    0    0 0.14123917E+03 0.14546141E+03 -.33133330E+03 0.49083254E+03 0.30004551E+03 0.0000E+00 0.0000E+00
       23  2    1    2    0    0 -.14123917E+03 -.14546141E+03 -.33532728E+03 0.40190048E+03 0.89286545E+02 0.0000E+00 0.0000E+00
       24  1    3    3    0    0 0.15942775E+03 0.12569443E+03 -.92054096E+02 0.23697567E+03 0.80419002E+02 0.0000E+00 0.9000E+01
      -11  1    4    4    0    0 -.98434003E+01 -.14568715E+02 0.12283892E+01 0.17625235E+02 0.51099893E-03 0.0000E+00 0.9000E+01
       11  1    4    4    0    0 -.13139577E+03 -.13089269E+03 -.33655567E+03 0.38427525E+03 0.51099893E-03 0.0000E+00 0.9000E+01
      -24  1    3    3    0    0 -.18188584E+02 0.19766977E+02 -.23927920E+03 0.25385687E+03 0.80419002E+02 0.0000E+00 0.9000E+01
#aMCatNLO 1  0  0  1  2 0.11231586D+03 0.00000000D+00  -5  7  0 0.00000000D+00 0.00000000D+00 0.00000000D+00 0.00000000D+00 0.00000000D+00
  <mgrwgt>
 0.8834993693D-03    9    2    0
 0.296873679256418D+03 0.000000000000000D+00 0.000000000000000D+00 0.296873679256418D+03
 0.296873679256418D+03 0.000000000000000D+00 0.000000000000000D+00 -.296873679256418D+03
 0.252947944819107D+03 0.159427753166449D+03 0.125694428894987D+03 0.127668120135374D+03
 0.278797843385382D+02 -.984340030168473D+01 -.145687148136023D+02 0.216365984836830D+02
 0.199894453737108D+03 -.131395768404937D+03 -.130892691002415D+03 -.745657302135456D+02
 0.113025175618083D+03 -.181885844598277D+02 0.197669769210304D+02 -.747389884055111D+02
 0.000000000000000D+00 0.000000000000000D+00 0.000000000000000D+00 0.000000000000000D+00
 0.472388685017437D+03 0.000000000000000D+00 0.000000000000000D+00 0.472388685017437D+03
 0.320662532449547D+03 0.000000000000000D+00 0.000000000000000D+00 -.320662532449547D+03
 0.219338844172841D+03 0.128406326657382D+03 0.941008978924472D+02 0.127668120135374D+03
 0.316452027470924D+02 -.137532069178541D+02 -.185506270092189D+02 0.216365984836830D+02
 0.238520923847534D+03 -.160192403697691D+03 -.160220400662206D+03 -.745657302135456D+02
 0.114772100362358D+03 -.331510958416854D+02 0.452852336118527D+01 -.747389884055111D+02
 0.188774146337160D+03 0.786903797998490D+02 0.801416064177921D+02 0.151726152567890D+03
0.817110211245D-05 0.000000000000D+00 0.000000000000D+00 0.576899403435D-06 0.000000000000D+00  7 -2 2 24 -11 11 -24 21 0 0.17390188D-01 0.11995335D+00 0.64059826D+05 0.64059826D+05 0.64059826D+05 0.11379482D+01  1  2  2  1  7  1       -2 0.910368856208D-03 0.100000000000D+01
-.439905111512D-06 0.000000000000D+00 -.313791836124D-07 0.576899403435D-06 0.000000000000D+00  7 -2 2 24 -11 11 -24 21 2 0.17390188D-01 0.11995335D+00 0.64059826D+05 0.64059826D+05 0.64059826D+05 0.11379482D+01  1  2  3  1  7  1       -2 -.634659405858D-04 0.100000000000D+01
0.505648915095D-06 0.000000000000D+00 0.000000000000D+00 0.576899403435D-06 0.000000000000D+00  7 -2 2 24 -11 11 -24 21 2 0.17390188D-01 0.11995335D+00 0.64059826D+05 0.64059826D+05 0.64059826D+05 0.11379482D+01  1  2 15  1  7  1       -2 0.729509231944D-04 0.100000000000D+01
0.754317731268D-05 0.000000000000D+00 0.000000000000D+00 0.576899403435D-06 0.000000000000D+00  7 -2 2 24 -11 11 -24 21 2 0.28026785D-01 0.11995335D+00 0.98417455D+05 0.98417455D+05 0.98417455D+05 0.11222910D+01  1  2 12  1  7  1       -2 0.475275602971D-03 0.100000000000D+01
-.981171063299D-05 0.000000000000D+00 0.000000000000D+00 0.576899403435D-06 0.000000000000D+00  7 -2 2 24 -11 11 -24 21 2 0.17390188D-01 0.11995335D+00 0.64059826D+05 0.64059826D+05 0.64059826D+05 0.11379482D+01  1  2  4  1  7  1       -2 -.141555400877D-02 0.100000000000D+01
-.105957174151D-04 0.000000000000D+00 -.284485284410D-05 0.576899403435D-06 0.000000000000D+00  7 -2 2 24 -11 11 -24 21 2 0.29568205D-01 0.11995335D+00 0.64059826D+05 0.64059826D+05 0.64059826D+05 0.11379482D+01  1  2  5  1  7  1       -2 -.628505720933D-03 0.100000000000D+01
0.108933681447D-04 0.000000000000D+00 0.248630412485D-05 0.576899403435D-06 0.000000000000D+00  7 -2 2 24 -11 11 -24 21 2 0.17390188D-01 0.11995335D+00 0.64059826D+05 0.64059826D+05 0.64059826D+05 0.11379482D+01  1  2  6  1  7  1       -2 0.157160677919D-02 0.100000000000D+01
0.410060278461D-06 0.000000000000D+00 0.000000000000D+00 0.576899403435D-06 0.000000000000D+00  7 21 2 24 -11 11 -24 2 2 0.28026785D-01 0.11995335D+00 0.98417455D+05 0.98417455D+05 0.98417455D+05 0.11222910D+01  1  2 12  3  7  1       -2 0.310784952239D-03 0.100000000000D+01
-.489896364780D-06 0.000000000000D+00 -.168301261139D-06 0.576899403435D-06 0.000000000000D+00  7 21 2 24 -11 11 -24 2 2 0.29568205D-01 0.11995335D+00 0.64059826D+05 0.64059826D+05 0.64059826D+05 0.11379482D+01  1  2  5  3  7  1       -2 -.349962074262D-03 0.100000000000D+01
  </mgrwgt>
  </event>
  <event>
  8     66 0.27011060E-05 0.33714419E+03 0.75467711E-02 0.92555289E-01
       -2 -1    0    0    0  501 0.00000000E+00 0.00000000E+00 0.17194248E+03 0.17194278E+03 0.32000000E+00 0.0000E+00 0.9000E+01
        2 -1    0    0  501    0 0.00000000E+00 0.00000000E+00 -.11988118E+04 0.11988119E+04 0.32000000E+00 0.0000E+00 0.9000E+01
       25  2    1    2    0    0 0.93205867E+02 -.27923604E+03 -.97059470E+03 0.10574706E+04 0.29921534E+03 0.0000E+00 0.0000E+00
       23  2    1    2    0    0 -.93205867E+02 0.27923604E+03 -.56274626E+02 0.31328407E+03 0.91213909E+02 0.0000E+00 0.0000E+00
       24  1    3    3    0    0 -.39225079E+02 -.73454979E+02 -.11202667E+03 0.16109448E+03 0.80419002E+02 0.0000E+00 0.9000E+01
      -13  1    4    4    0    0 -.22228047E+01 0.99125581E+02 -.50839018E+02 0.11142459E+03 0.10565837E+00 0.0000E+00 0.9000E+01
       13  1    4    4    0    0 -.90983062E+02 0.18011046E+03 -.54356076E+01 0.20185949E+03 0.10565837E+00 0.0000E+00 0.9000E+01
      -24  1    3    3    0    0 0.13243095E+03 -.20578106E+03 -.85856804E+03 0.89637609E+03 0.80419002E+02 0.0000E+00 0.9000E+01
#aMCatNLO 1  0  0  1  1 0.41764118D+03 0.00000000D+00  -5  7  0 0.00000000D+00 0.00000000D+00 0.00000000D+00 0.00000000D+00 0.00000000D+00
  <mgrwgt>
 0.9985825902D-03    3    2    0
 0.454012021317673D+03 0.000000000000000D+00 0.000000000000000D+00 0.454012021317673D+03
 0.454012021317673D+03 0.000000000000000D+00 0.000000000000000D+00 -.454012021317673D+03
 0.116499398499024D+03 -.392250787210856D+02 -.734549793082154D+02 0.130634264424795D+02
 0.110713491195124D+03 -.222268565546117D+01 0.991254720544230D+02 0.492613194207956D+02
 0.298580638802052D+03 -.909831812496037D+02 0.180110569153797D+03 0.220074172669667D+03
 0.382230514139146D+03 0.132430945626150D+03 -.205781061900005D+03 -.282398918532942D+03
 0.000000000000000D+00 0.000000000000000D+00 0.000000000000000D+00 -.000000000000000D+00
 0.633932354073275D+03 0.000000000000000D+00 0.000000000000000D+00 0.633932354073275D+03
 0.824667398139914D+03 0.000000000000000D+00 0.000000000000000D+00 -.824667398139914D+03
 0.164166500052372D+03 -.851384932821212D+02 -.114298764806568D+03 0.130634264424795D+02
 0.923235546119210D+02 -.354369952794704D+02 0.695785923302958D+02 0.492613194207956D+02
 0.304854653893830D+03 -.189697613239040D+03 0.922959048706941D+02 0.220074172669667D+03
 0.438121059107439D+03 -.176826440495651D+01 -.325162375639423D+03 -.282398918532942D+03
 0.459133984547626D+03 0.312041366205588D+03 0.277586643245001D+03 -.190735044066639D+03
0.324398610881D-04 0.000000000000D+00 0.000000000000D+00 0.130852559511D-05 0.000000000000D+00  7 -2 2 24 -13 13 -24 21 0 0.26452716D-01 0.18443261D+00 0.11366620D+06 0.11366620D+06 0.11366620D+06 0.11171852D+01  1  2  2  1  7  1       -2 0.984576794397D-03 0.100000000000D+01
-.160812961323D-05 0.000000000000D+00 -.124577608190D-06 0.130852559511D-05 0.000000000000D+00  7 -2 2 24 -13 13 -24 21 2 0.26452716D-01 0.18443261D+00 0.11366620D+06 0.11366620D+06 0.11366620D+06 0.11171852D+01  1  2  3  1  7  1       -2 -.609174949379D-04 0.100000000000D+01
0.197786141166D-05 0.000000000000D+00 0.000000000000D+00 0.130852559511D-05 0.000000000000D+00  7 -2 2 24 -13 13 -24 21 2 0.26452716D-01 0.18443261D+00 0.11366620D+06 0.11366620D+06 0.11366620D+06 0.11171852D+01  1  2 15  1  7  1       -2 0.749232907230D-04 0.100000000000D+01
  </mgrwgt>
  </event>
  <event>
  7     66 0.27011060E-05 0.62039520E+02 0.75467711E-02 0.10223893E+00
       -2 -1    0    0    0  501 0.00000000E+00 0.00000000E+00 0.13142662E+03 0.13142701E+03 0.32000000E+00 0.0000E+00 0.9000E+01
        2 -1    0    0  501    0 0.00000000E+00 0.00000000E+00 -.72081584E+03 0.72081591E+03 0.32000000E+00 0.0000E+00 0.9000E+01
       23  2    1    2    0    0 -.49596453E+02 -.14931989E+03 -.39620150E+03 0.43577949E+03 0.90398580E+02 0.0000E+00 0.0000E+00
       24  1    1    2    0    0 -.42010343E+02 0.11842336E+03 0.37411746E+02 0.15380447E+03 0.80419002E+02 0.0000E+00 0.9000E+01
      -11  1    3    3    0    0 0.12371899E+02 -.17891180E+02 -.11615782E+02 0.24659371E+02 0.51099893E-03 0.0000E+00 0.9000E+01
       11  1    3    3    0    0 -.61968352E+02 -.13142871E+03 -.38458572E+03 0.41112012E+03 0.51099893E-03 0.0000E+00 0.9000E+01
      -24  1    1    2    0    0 0.91606795E+02 0.30896532E+02 -.23059947E+03 0.26265896E+03 0.80419002E+02 0.0000E+00 0.9000E+01
#aMCatNLO 1  0  0  2  1 0.91159562D+02 0.00000000D+00  -5  7  0 0.00000000D+00 0.00000000D+00 0.00000000D+00 0.00000000D+00 0.00000000D+00
  <mgrwgt>
 0.8066958685D-03    9    2    0
 0.307789844712229D+03 0.000000000000000D+00 0.000000000000000D+00 0.307789844712229D+03
 0.307789844712229D+03 0.000000000000000D+00 0.000000000000000D+00 -.307789844712229D+03
 0.248755524990964D+03 -.420103347458716D+02 0.118423360235062D+03 0.199055607266754D+03
 0.230182360253134D+02 0.123718987542987D+02 -.178911811293930D+02 0.752867509762975D+01
 0.200954564414807D+03 -.619683544494885D+02 -.131428716435040D+03 -.138813372922803D+03
 0.142851363993373D+03 0.916067904410614D+02 0.308965373293704D+02 -.677709094415807D+02
 0.000000000000000D+00 -.000000000000000D+00 -.000000000000000D+00 -.000000000000000D+00
 0.332049415928242D+03 0.000000000000000D+00 0.000000000000000D+00 0.332049415928242D+03
 0.410534968655102D+03 0.000000000000000D+00 0.000000000000000D+00 -.410534968655102D+03
 0.250037204753701D+03 -.654996142650791D+01 0.128005277342962D+03 0.199055607266754D+03
 0.243468133876555D+02 0.157391938937724D+02 -.169812882014848D+02 0.752867509762975D+01
 0.189209983055862D+03 -.342306195463095D+02 -.123933570396686D+03 -.138813372922803D+03
 0.158698871814553D+03 0.113044721065602D+03 0.366893831169550D+02 -.677709094415807D+02
 0.120291511571574D+03 -.880033339865567D+02 -.237798018617462D+02 -.784855527268600D+02
0.800825426573D-05 0.000000000000D+00 0.000000000000D+00 0.580417353247D-09 0.000000000000D+00  7 -2 2 24 -11 11 -24 21 0 0.20219516D-01 0.11089478D+00 0.48839803D+05 0.48839803D+05 0.48839803D+05 0.11481933D+01  1  2  2  2  7  2        2 0.768197565159D-03 0.100000000000D+01
-.385541822664D-06 0.000000000000D+00 -.307538050022D-07 0.580417353247D-09 0.000000000000D+00  7 -2 2 24 -11 11 -24 21 2 0.20219516D-01 0.11089478D+00 0.48839803D+05 0.48839803D+05 0.48839803D+05 0.11481933D+01  1  2  3  2  7  2        2 -.487569572600D-04 0.100000000000D+01
0.466032195133D-06 0.000000000000D+00 0.000000000000D+00 0.580417353247D-09 0.000000000000D+00  7 -2 2 24 -11 11 -24 21 2 0.20219516D-01 0.11089478D+00 0.48839803D+05 0.48839803D+05 0.48839803D+05 0.11481933D+01  1  2 15  2  7  2        2 0.589360491759D-04 0.100000000000D+01
0.768213974574D-05 0.000000000000D+00 0.000000000000D+00 0.580417353247D-09 0.000000000000D+00  7 -2 2 24 -11 11 -24 21 2 0.20219516D-01 0.15117868D+00 0.72280377D+05 0.72280377D+05 0.72280377D+05 0.11334780D+01  1  2 12  2  7  2        2 0.635672523511D-03 0.100000000000D+01
-.974251653203D-05 0.000000000000D+00 0.000000000000D+00 0.580417353247D-09 0.000000000000D+00  7 -2 2 24 -11 11 -24 21 2 0.20219516D-01 0.11089478D+00 0.48839803D+05 0.48839803D+05 0.48839803D+05 0.11481933D+01  1  2  4  2  7  2        2 -.123207246071D-02 0.100000000000D+01
-.122389605359D-04 0.000000000000D+00 -.381606716692D-05 0.580417353247D-09 0.000000000000D+00  7 -2 2 24 -11 11 -24 21 2 0.20219516D-01 0.15464108D+00 0.48839803D+05 0.48839803D+05 0.48839803D+05 0.11481933D+01  1  2  5  2  7  2        2 -.101120011105D-02 0.100000000000D+01
0.129850373313D-04 0.000000000000D+00 0.361439224563D-05 0.580417353247D-09 0.000000000000D+00  7 -2 2 24 -11 11 -24 21 2 0.20219516D-01 0.11089478D+00 0.48839803D+05 0.48839803D+05 0.48839803D+05 0.11481933D+01  1  2  6  2  7  2        2 0.164213289705D-02 0.100000000000D+01
0.303983150055D-06 0.000000000000D+00 0.000000000000D+00 0.580417353247D-09 0.000000000000D+00  7 -2 21 24 -11 11 -24 -2 2 0.20219516D-01 0.15117868D+00 0.72280377D+05 0.72280377D+05 0.72280377D+05 0.11334780D+01  1  2 12  4  7  2        2 0.192179865053D-04 0.100000000000D+01
-.409473382637D-06 0.000000000000D+00 -.158874278064D-06 0.580417353247D-09 0.000000000000D+00  7 -2 21 24 -11 11 -24 -2 2 0.20219516D-01 0.15464108D+00 0.48839803D+05 0.48839803D+05 0.48839803D+05 0.11481933D+01  1  2  5  4  7  2        2 -.254316238951D-04 0.100000000000D+01
  </mgrwgt>
  </event>
  <event>
  9     66 0.27011060E-05 0.36469540E+03 0.75467711E-02 0.95344552E-01
       -2 -1    0    0    0  502 0.00000000E+00 0.00000000E+00 0.48107320E+03 0.48107330E+03 0.32000000E+00 0.0000E+00 0.9000E+01
        2 -1    0    0  501    0 0.00000000E+00 0.00000000E+00 -.86834378E+03 0.86834384E+03 0.32000000E+00 0.0000E+00 0.9000E+01
       25  2    1    2    0    0 0.31553646E+03 -.26472582E+01 -.47079154E+03 0.64165149E+03 0.30083499E+03 0.0000E+00 0.0000E+00
       23  2    1    2    0    0 -.26817006E+03 0.17677387E+03 0.28372034E+03 0.43824013E+03 0.91613278E+02 0.0000E+00 0.0000E+00
       24  1    3    3    0    0 0.11298790E+03 -.11697754E+03 -.13901849E+03 0.22856808E+03 0.80419002E+02 0.0000E+00 0.9000E+01
      -11  1    4    4    0    0 -.26622833E+03 0.15273007E+03 0.27638168E+03 0.41302642E+03 0.51099893E-03 0.0000E+00 0.9000E+01
       11  1    4    4    0    0 -.19417397E+01 0.24043805E+02 0.73386605E+01 0.25213703E+02 0.51099893E-03 0.0000E+00 0.9000E+01
      -24  1    3    3    0    0 0.20254856E+03 0.11433028E+03 -.33177306E+03 0.41308342E+03 0.80419002E+02 0.0000E+00 0.9000E+01
       21  1    1    2  501  502 -.47366399E+02 -.17412662E+03 -.20019938E+03 0.26952552E+03 0.75000000E+00 0.0000E+00 0.9000E+01
#aMCatNLO 2  0  0  1  1 0.18045402D+03 0.00000000D+00  -5  7  0 0.00000000D+00 0.00000000D+00 0.00000000D+00 0.00000000D+00 0.00000000D+00
  <mgrwgt>
 0.1254866500D-03    1    2    0
 0.524072184841990D+03 0.000000000000000D+00 0.000000000000000D+00 0.524072184841990D+03
 0.524072184841990D+03 0.000000000000000D+00 0.000000000000000D+00 -.524072184841990D+03
 0.225006662027812D+03 0.103283822510887D+03 -.152651311762859D+03 -.100949546938782D+03
 0.461522999976648D+03 -.287077406547598D+03 0.760854432071852D+02 0.353271917210123D+03
 0.233805824473374D+02 -.306936191695915D+01 0.198984811659128D+02 0.118861726509959D+02
 0.338234125232183D+03 0.186862945953670D+03 0.566673873897609D+02 -.264208542922336D+03
 0.000000000000000D+00 -.000000000000000D+00 -.000000000000000D+00 -.000000000000000D+00
 0.573073978806091D+03 0.000000000000000D+00 0.000000000000000D+00 0.573073978806091D+03
 0.728939411112509D+03 0.000000000000000D+00 0.000000000000000D+00 -.728939411112509D+03
 0.207624749293268D+03 0.112987900907543D+03 -.116977535390706D+03 -.100949546938782D+03
 0.467979746255115D+03 -.266228325127929D+03 0.152730070108224D+03 0.353271917210123D+03
 0.268915599598523D+02 -.194173965393966D+01 0.240438046885549D+02 0.118861726509959D+02
 0.361068833948329D+03 0.202548563228150D+03 0.114330277160093D+03 -.264208542922336D+03
 0.238448500462035D+03 -.473663993538241D+02 -.174126616566166D+03 -.155865432306418D+03
0.160789489612D-04 0.000000000000D+00 0.000000000000D+00 0.308344999458D-05 0.634380999387D-09  7 -2 2 24 -11 11 -24 21 2 0.74011201D-01 0.13359123D+00 0.22044551D+06 0.22044551D+06 0.22044551D+06 0.10945935D+01  1  2  1  1  7  1       -2 0.125486649997D-03 0.100000000000D+01
  </mgrwgt>
  </event>
  <event>
  8     66 0.27011060E-05 0.20374992E+03 0.75467711E-02 0.10064879E+00
       -2 -1    0    0    0  501 0.00000000E+00 0.00000000E+00 0.80802779E+02 0.80803413E+02 0.32000000E+00 0.0000E+00 0.9000E+01
        2 -1    0    0  501    0 0.00000000E+00 0.00000000E+00 -.72863530E+03 0.72863537E+03 0.32000000E+00 0.0000E+00 0.9000E+01
       25  2    1    2    0    0 -.12728950E+03 0.17598084E+02 -.47923052E+03 0.57943990E+03 0.29929317E+03 0.0000E+00 0.0000E+00
       23  2    1    2    0    0 0.12728950E+03 -.17598084E+02 -.16860200E+03 0.22999888E+03 0.89221854E+02 0.0000E+00 0.0000E+00
       24  1    3    3    0    0 -.16591030E+03 0.14715943E+02 -.14944728E+03 0.23779086E+03 0.80419002E+02 0.0000E+00 0.9000E+01
      -13  1    4    4    0    0 0.70500302E+02 0.80709209E+01 -.14838656E+03 0.16448105E+03 0.10565837E+00 0.0000E+00 0.9000E+01
       13  1    4    4    0    0 0.56789201E+02 -.25669004E+02 -.20215442E+02 0.65517833E+02 0.10565837E+00 0.0000E+00 0.9000E+01
      -24  1    3    3    0    0 0.38620794E+02 0.28821408E+01 -.32978324E+03 0.34164905E+03 0.80419002E+02 0.0000E+00 0.9000E+01
#aMCatNLO 1  0  0  2  2 0.17256684D+03 0.00000000D+00  -5  7  0 0.00000000D+00 0.00000000D+00 0.00000000D+00 0.00000000D+00 0.00000000D+00
  <mgrwgt>
 0.9470901569D-03    6    2    0
 0.242643858561289D+03 0.000000000000000D+00 0.000000000000000D+00 0.242643858561289D+03
 0.242643858561289D+03 0.000000000000000D+00 0.000000000000000D+00 -.242643858561289D+03
 0.197120859687759D+03 -.165910297150182D+03 0.147159429306631D+02 0.681662063846171D+02
 0.762592868164843D+02 0.705003227310698D+02 0.807096757829308D+01 -.279292463722880D+02
 0.822943937690232D+02 0.567891838750492D+02 -.256690516096499D+02 0.537443544019092D+02
 0.129613176849312D+03 0.386207905440631D+02 0.288214110069369D+01 -.939813144142383D+02
 0.000000000000000D+00 0.000000000000000D+00 0.000000000000000D+00 -.000000000000000D+00
 0.329102928237696D+03 0.000000000000000D+00 0.000000000000000D+00 0.329102928237696D+03
 0.361543429151710D+03 0.000000000000000D+00 0.000000000000000D+00 -.361543429151710D+03
 0.252943914254856D+03 -.227636805750366D+03 -.323768556085628D+02 0.681662063846171D+02
 0.592650301743844D+02 0.519131250595242D+02 -.610970090928540D+01 -.279292463722880D+02
 0.768240578758446D+02 0.349660440903810D+02 -.423185065793045D+02 0.537443544019092D+02
 0.126023774331626D+03 0.356011177250736D+01 -.238665851674964D+02 -.939813144142383D+02
 0.175589580752695D+03 0.137197524827953D+03 0.104671648264649D+03 -.324405009140140D+02
0.314445994638D-05 0.000000000000D+00 0.000000000000D+00 0.729797496015D-07 0.000000000000D+00  7 -2 2 24 -13 13 -24 21 0 0.12431251D-01 0.11209779D+00 0.41514032D+05 0.41514032D+05 0.41514032D+05 0.11544688D+01  1  2  2  2  7  2        2 0.646182679679D-03 0.100000000000D+01
-.168209641204D-06 0.000000000000D+00 -.120755541494D-07 0.729797496015D-07 0.000000000000D+00  7 -2 2 24 -13 13 -24 21 2 0.12431251D-01 0.11209779D+00 0.41514032D+05 0.41514032D+05 0.41514032D+05 0.11544688D+01  1  2  3  2  7  2        2 -.460706730175D-04 0.100000000000D+01
0.196634133880D-06 0.000000000000D+00 0.000000000000D+00 0.729797496015D-07 0.000000000000D+00  7 -2 2 24 -13 13 -24 21 2 0.12431251D-01 0.11209779D+00 0.41514032D+05 0.41514032D+05 0.41514032D+05 0.11544688D+01  1  2 15  2  7  2        2 0.538558124328D-04 0.100000000000D+01
-.963101796563D-06 0.000000000000D+00 -.104719851380D-05 0.729797496015D-07 0.000000000000D+00  7 -2 2 24 -13 13 -24 21 2 0.12431251D-01 0.20608600D+00 0.41514032D+05 0.41514032D+05 0.41514032D+05 0.11544688D+01  1  2  5  2  7  2        2 -.113214661786D-03 0.100000000000D+01
0.148493594050D-05 0.000000000000D+00 0.879117666603D-06 0.729797496015D-07 0.000000000000D+00  7 -2 2 24 -13 13 -24 21 2 0.12431251D-01 0.11209779D+00 0.41514032D+05 0.41514032D+05 0.41514032D+05 0.11544688D+01  1  2  6  2  7  2        2 0.406706759952D-03 0.100000000000D+01
-.665194324950D-08 0.000000000000D+00 -.696362338543D-07 0.729797496015D-07 0.000000000000D+00  7 -2 21 24 -13 13 -24 -2 2 0.12431251D-01 0.20608600D+00 0.41514032D+05 0.41514032D+05 0.41514032D+05 0.11544688D+01  1  2  5  4  7  2        2 -.369760331701D-06 0.100000000000D+01
  </mgrwgt>
  </event>
  <event>
  8     66 0.27011060E-05 0.24157231E+03 0.75467711E-02 0.87544797E-01
       -2 -1    0    0    0  501 0.00000000E+00 0.00000000E+00 0.94177161E+02 0.94177705E+02 0.32000000E+00 0.0000E+00 0.9000E+01
        2 -1    0    0  501    0 0.00000000E+00 0.00000000E+00 -.95992926E+03 0.95992932E+03 0.32000000E+00 0.0000E+00 0.9000E+01
       25  2    1    2    0    0 -.79749310E+02 -.17304961E+03 -.34600361E+03 0.49343145E+03 0.29571942E+03 0.0000E+00 0.0000E+00
       23  2    1    2    0    0 0.79749310E+02 0.17304961E+03 -.51974849E+03 0.56067557E+03 0.88952133E+02 0.0000E+00 0.0000E+00
       24  1    3    3    0    0 -.83602001E+02 -.17335255E+03 -.93830684E+02 0.22871776E+03 0.80419002E+02 0.0000E+00 0.9000E+01
      -13  1    4    4    0    0 0.30050557E+02 0.10848817E+03 -.40216130E+03 0.41761997E+03 0.10565837E+00 0.0000E+00 0.9000E+01
       13  1    4    4    0    0 0.49698753E+02 0.64561442E+02 -.11758719E+03 0.14305560E+03 0.10565837E+00 0.0000E+00 0.9000E+01
      -24  1    3    3    0    0 0.38526913E+01 0.30294512E+00 -.25217292E+03 0.26471368E+03 0.80419002E+02 0.0000E+00 0.9000E+01
#aMCatNLO 1  0  0  1  1 0.93076622D+03 0.00000000D+00  -5  7  0 0.00000000D+00 0.00000000D+00 0.00000000D+00 0.00000000D+00 0.00000000D+00
  <mgrwgt>
 0.1643281042D-02    5    2    0
 0.300672126694435D+03 0.000000000000000D+00 0.000000000000000D+00 0.300672126694435D+03
 0.300672126694435D+03 0.000000000000000D+00 0.000000000000000D+00 -.300672126694435D+03
 0.265835898262540D+03 -.836020013033187D+02 -.173352554417244D+03 0.164806268405595D+03
 0.153064095414416D+03 0.300505303359965D+02 0.108488228950114D+03 -.103710593050211D+03
 0.814749502034688D+02 0.496987797557233D+02 0.645613805264063D+02 -.164152290287056D+00
 0.100969309508445D+03 0.385269121159897D+01 0.302944940723563D+00 -.609315230650976D+02
 0.000000000000000D+00 0.000000000000000D+00 -.000000000000000D+00 0.000000000000000D+00
 0.209008808913430D+04 0.000000000000000D+00 0.000000000000000D+00 0.209008808913430D+04
 0.695063605329234D+03 0.000000000000000D+00 0.000000000000000D+00 -.695063605329234D+03
 0.298079642985567D+03 -.209347098122736D+03 0.106756470576002D+03 0.164806268405595D+03
 0.416200673245646D+03 -.968873676559805D+02 0.391254330695518D+03 -.103710593050211D+03
 0.209798128169907D+03 -.152509489924607D+02 0.209243007511486D+03 -.164152290287056D+00
 0.184046397436312D+03 -.597017332426382D+02 0.141876400432583D+03 -.609315230650976D+02
 0.167702685262610D+04 0.381187148013816D+03 -.849130209215589D+03 0.139502448380507D+04
0.138419496991D-04 0.000000000000D+00 0.000000000000D+00 0.505162784516D-08 0.000000000000D+00  7 -2 2 24 -13 13 -24 21 0 0.14488840D-01 0.14768147D+00 0.58357179D+05 0.58357179D+05 0.58357179D+05 0.11414376D+01  1  2  2  1  7  1       -2 0.157850276595D-02 0.100000000000D+01
-.724214992853D-06 0.000000000000D+00 -.531567315134D-07 0.505162784516D-08 0.000000000000D+00  7 -2 2 24 -13 13 -24 21 2 0.14488840D-01 0.14768147D+00 0.58357179D+05 0.58357179D+05 0.58357179D+05 0.11414376D+01  1  2  3  1  7  1       -2 -.107601892526D-03 0.100000000000D+01
0.863680804191D-06 0.000000000000D+00 0.000000000000D+00 0.505162784516D-08 0.000000000000D+00  7 -2 2 24 -13 13 -24 21 2 0.14488840D-01 0.14768147D+00 0.58357179D+05 0.58357179D+05 0.58357179D+05 0.11414376D+01  1  2 15  1  7  1       -2 0.128323343188D-03 0.100000000000D+01
0.293996793845D-04 0.000000000000D+00 -.134099355941D-04 0.505162784516D-08 0.000000000000D+00  7 -2 2 24 -13 13 -24 21 2 0.20667729D+00 0.14768147D+00 0.58357179D+05 0.58357179D+05 0.58357179D+05 0.11414376D+01  1  2  5  1  7  1       -2 0.162989723206D-04 0.100000000000D+01
0.599641020767D-05 0.000000000000D+00 -.404663207638D-05 0.505162784516D-08 0.000000000000D+00  7 21 2 24 -13 13 -24 2 2 0.20667729D+00 0.14768147D+00 0.58357179D+05 0.58357179D+05 0.58357179D+05 0.11414376D+01  1  2  5  3  7  1       -2 0.277578527390D-04 0.100000000000D+01
  </mgrwgt>
  </event>
  <event>
  8     66 0.27011060E-05 0.58069773E+03 0.75467711E-02 0.88371643E-01
       -2 -1    0    0    0  501 0.00000000E+00 0.00000000E+00 0.67595618E+03 0.67595625E+03 0.32000000E+00 0.0000E+00 0.9000E+01
        2 -1    0    0  501    0 0.00000000E+00 0.00000000E+00 -.87153514E+03 0.87153520E+03 0.32000000E+00 0.0000E+00 0.9000E+01
       25  2    1    2    0    0 0.43332262E+03 0.55039089E+03 -.32653114E+03 0.82868626E+03 0.29899785E+03 0.0000E+00 0.0000E+00
       23  2    1    2    0    0 -.43332262E+03 -.55039089E+03 0.13095218E+03 0.71880519E+03 0.93988325E+02 0.0000E+00 0.0000E+00
       24  1    3    3    0    0 0.37840104E+03 0.28955765E+03 -.20869305E+03 0.52635633E+03 0.80419002E+02 0.0000E+00 0.9000E+01
      -13  1    4    4    0    0 -.43796964E+03 -.53926328E+03 0.12831968E+03 0.70646177E+03 0.10565837E+00 0.0000E+00 0.9000E+01
       13  1    4    4    0    0 0.46470268E+01 -.11127611E+02 0.26324996E+01 0.12343411E+02 0.10565837E+00 0.0000E+00 0.9000E+01
      -24  1    3    3    0    0 0.54921578E+02 0.26083324E+03 -.11783809E+03 0.30232993E+03 0.80419002E+02 0.0000E+00 0.9000E+01
#aMCatNLO 1  0  0  1  2 0.30896273D+03 0.00000000D+00  -5  7  0 0.00000000D+00 0.00000000D+00 0.00000000D+00 0.00000000D+00 0.00000000D+00
  <mgrwgt>
 0.1707899286D-02    9    2    0
 0.767541309517617D+03 0.000000000000000D+00 0.000000000000000D+00 0.767541309517617D+03
 0.767541309517617D+03 0.000000000000000D+00 0.000000000000000D+00 -.767541309517617D+03
 0.504022347145614D+03 0.378401038119925D+03 0.289557649567835D+03 -.143318988254584D+03
 0.728522072962060D+03 -.437970201806015D+03 -.539263943215944D+03 0.219364793597621D+03
 0.127776813399569D+02 0.464758616277448D+01 -.111269436585054D+02 0.422613394315878D+01
 0.289760517587603D+03 0.549215775233151D+02 0.260833237306614D+03 -.802719392861962D+02
 0.000000000000000D+00 -.000000000000000D+00 -.000000000000000D+00 0.000000000000000D+00
 0.124221930062698D+04 0.000000000000000D+00 0.000000000000000D+00 0.124221930062698D+04
 0.834893000383127D+03 0.000000000000000D+00 0.000000000000000D+00 -.834893000383127D+03
 0.600096533752212D+03 0.427088394100796D+03 0.388205879781766D+03 -.143318988254584D+03
 0.606790517073422D+03 -.379088100846081D+03 -.419959558454163D+03 0.219364793597621D+03
 0.114396826466901D+02 0.571547789231126D+01 -.896322728786722D+01 0.422613394315878D+01
 0.347539358659008D+03 0.830240277922138D+02 0.317773215414917D+03 -.802719392861962D+02
 0.511246208878780D+03 -.136739798939240D+03 -.277056309454653D+03 0.407326300243858D+03
0.534278491816D-03 0.000000000000D+00 0.000000000000D+00 0.671663753517D-06 0.000000000000D+00  7 -2 2 24 -13 13 -24 21 0 0.10399327D+00 0.13408234D+00 0.53905400D+06 0.53905400D+06 0.53905400D+06 0.10662096D+01  1  2  2  1  7  1       -2 0.151876152063D-02 0.100000000000D+01
-.296109719749D-04 0.000000000000D+00 -.205177008733D-05 0.671663753517D-06 0.000000000000D+00  7 -2 2 24 -13 13 -24 21 2 0.10399327D+00 0.13408234D+00 0.53905400D+06 0.53905400D+06 0.53905400D+06 0.10662096D+01  1  2  3  1  7  1       -2 -.956885029525D-04 0.100000000000D+01
0.335727148032D-04 0.000000000000D+00 0.000000000000D+00 0.671663753517D-06 0.000000000000D+00  7 -2 2 24 -13 13 -24 21 2 0.10399327D+00 0.13408234D+00 0.53905400D+06 0.53905400D+06 0.53905400D+06 0.10662096D+01  1  2 15  1  7  1       -2 0.108490961468D-03 0.100000000000D+01
0.464630559446D-03 0.000000000000D+00 0.000000000000D+00 0.671663753517D-06 0.000000000000D+00  7 -2 2 24 -13 13 -24 21 2 0.17051079D+00 0.13408234D+00 0.81560490D+06 0.81560490D+06 0.81560490D+06 0.10538078D+01  1  2 12  1  7  1       -2 0.382929163881D-03 0.100000000000D+01
-.568391913214D-03 0.000000000000D+00 0.000000000000D+00 0.671663753517D-06 0.000000000000D+00  7 -2 2 24 -13 13 -24 21 2 0.10399327D+00 0.13408234D+00 0.53905400D+06 0.53905400D+06 0.53905400D+06 0.10662096D+01  1  2  4  1  7  1       -2 -.183677088722D-02 0.100000000000D+01
-.655789344251D-03 0.000000000000D+00 -.170853346309D-03 0.671663753517D-06 0.000000000000D+00  7 -2 2 24 -13 13 -24 21 2 0.17548581D+00 0.13408234D+00 0.53905400D+06 0.53905400D+06 0.53905400D+06 0.10662096D+01  1  2  5  1  7  1       -2 -.519857794073D-03 0.100000000000D+01
0.672058789622D-03 0.000000000000D+00 0.149866430826D-03 0.671663753517D-06 0.000000000000D+00  7 -2 2 24 -13 13 -24 21 2 0.10399327D+00 0.13408234D+00 0.53905400D+06 0.53905400D+06 0.53905400D+06 0.10662096D+01  1  2  6  1  7  1       -2 0.217177266351D-02 0.100000000000D+01
0.259678999971D-04 0.000000000000D+00 0.000000000000D+00 0.671663753517D-06 0.000000000000D+00  7 21 2 24 -13 13 -24 2 2 0.17051079D+00 0.13408234D+00 0.81560490D+06 0.81560490D+06 0.81560490D+06 0.10538078D+01  1  2 12  3  7  1       -2 0.170769068647D-03 0.100000000000D+01
-.302453856947D-04 0.000000000000D+00 -.999028648125D-05 0.671663753517D-06 0.000000000000D+00  7 21 2 24 -13 13 -24 2 2 0.17548581D+00 0.13408234D+00 0.53905400D+06 0.53905400D+06 0.53905400D+06 0.10662096D+01  1  2  5  3  7  1       -2 -.192506908100D-03 0.100000000000D+01
  </mgrwgt>
  </event>
  <event>
  8     66 0.27011060E-05 0.24217800E+03 0.75467711E-02 0.10129753E+00
       -2 -1    0    0    0  501 0.00000000E+00 0.00000000E+00 0.90348021E+02 0.90348587E+02 0.32000000E+00 0.0000E+00 0.9000E+01
        2 -1    0    0  501    0 0.00000000E+00 0.00000000E+00 -.68275365E+03 0.68275372E+03 0.32000000E+00 0.0000E+00 0.9000E+01
       25  2    1    2    0    0 -.13144800E+03 0.43688620E+02 -.39467185E+03 0.51438164E+03 0.29939159E+03 0.0000E+00 0.0000E+00
       23  2    1    2    0    0 0.13144800E+03 -.43688620E+02 -.19773377E+03 0.25872067E+03 0.93007888E+02 0.0000E+00 0.0000E+00
       24  1    3    3    0    0 0.66916879E+02 -.20035752E+02 -.12412166E+03 0.16356253E+03 0.80419002E+02 0.0000E+00 0.9000E+01
      -11  1    4    4    0    0 0.81778011E+02 -.60872642E+02 -.17260592E+03 0.20046427E+03 0.51099893E-03 0.0000E+00 0.9000E+01
       11  1    4    4    0    0 0.49669992E+02 0.17184022E+02 -.25127853E+02 0.58256396E+02 0.51099893E-03 0.0000E+00 0.9000E+01
      -24  1    3    3    0    0 -.19836488E+03 0.63724371E+02 -.27055020E+03 0.35081911E+03 0.80419002E+02 0.0000E+00 0.9000E+01
#aMCatNLO 1  0  0  1  2 0.87095155D+02 0.00000000D+00  -5  7  0 0.00000000D+00 0.00000000D+00 0.00000000D+00 0.00000000D+00 0.00000000D+00
  <mgrwgt>
 0.4196718245D-03    4    2    0
 0.248366037367584D+03 0.000000000000000D+00 0.000000000000000D+00 0.248366037367584D+03
 0.248366037367584D+03 0.000000000000000D+00 0.000000000000000D+00 -.248366037367584D+03
 0.106536713641433D+03 0.669168788410471D+02 -.200357515557058D+02 0.188557283516499D+01
 0.106147111485773D+03 0.817780108076182D+02 -.608726417825969D+02 -.295649743367029D+02
 0.607012798435022D+02 0.496699915846809D+02 0.171840219353932D+02 0.303685149577786D+02
 0.223346969764460D+03 -.198364881233346D+03 0.637243714029095D+02 -.268911345624069D+01
 0.000000000000000D+00 0.000000000000000D+00 0.000000000000000D+00 -.000000000000000D+00
 0.290584312504773D+03 0.000000000000000D+00 0.000000000000000D+00 0.290584312504773D+03
 0.301502235779248D+03 0.000000000000000D+00 0.000000000000000D+00 -.301502235779248D+03
 0.102035006587470D+03 0.537134125490710D+02 -.324844661700204D+02 0.188557283516499D+01
 0.104655490776962D+03 0.684333203089148D+02 -.734545077836234D+02 -.295649743367029D+02
 0.532237544377537D+02 0.424580582109045D+02 0.103843453654494D+02 0.303685149577786D+02
 0.244395494308187D+03 -.227974944625119D+03 0.358069124020139D+02 -.268911345624069D+01
 0.877768021736482D+02 0.633701535562292D+02 0.597477161861805D+02 -.109179232744744D+02
0.418624962173D-05 0.000000000000D+00 0.000000000000D+00 0.781001794882D-07 0.000000000000D+00  7 -2 2 24 -11 11 -24 21 0 0.13899745D-01 0.10503907D+00 0.58650182D+05 0.58650182D+05 0.58650182D+05 0.11412493D+01  1  2  2  1  7  1       -2 0.782502373846D-03 0.100000000000D+01
-.232389415967D-06 0.000000000000D+00 -.160763008123D-07 0.781001794882D-07 0.000000000000D+00  7 -2 2 24 -11 11 -24 21 2 0.13899745D-01 0.10503907D+00 0.58650182D+05 0.58650182D+05 0.58650182D+05 0.11412493D+01  1  2  3  1  7  1       -2 -.565767402340D-04 0.100000000000D+01
0.256733281188D-06 0.000000000000D+00 0.000000000000D+00 0.781001794882D-07 0.000000000000D+00  7 -2 2 24 -11 11 -24 21 2 0.13899745D-01 0.10503907D+00 0.58650182D+05 0.58650182D+05 0.58650182D+05 0.11412493D+01  1  2 15  1  7  1       -2 0.625034152212D-04 0.100000000000D+01
-.151467326762D-05 0.000000000000D+00 0.000000000000D+00 0.781001794882D-07 0.000000000000D+00  7 -2 2 24 -11 11 -24 21 2 0.13899745D-01 0.10503907D+00 0.58650182D+05 0.58650182D+05 0.58650182D+05 0.11412493D+01  1  2  4  1  7  1       -2 -.368757224355D-03 0.100000000000D+01
  </mgrwgt>
  </event>
  <event>
  8     66 0.27011060E-05 0.24134138E+03 0.75467711E-02 0.97883055E-01
       -2 -1    0    0    0  501 0.00000000E+00 0.00000000E+00 0.10079698E+04 0.10079699E+04 0.32000000E+00 0.0000E+00 0.9000E+01
        2 -1    0    0  501    0 0.00000000E+00 0.00000000E+00 -.27754208E+03 0.27754226E+03 0.32000000E+00 0.0000E+00 0.9000E+01
       25  2    1    2    0    0 -.30547912E+03 -.14386463E+03 -.26314975E+02 0.45189370E+03 0.29916704E+03 0.0000E+00 0.0000E+00
       23  2    1    2    0    0 0.30547912E+03 0.14386463E+03 0.75674270E+03 0.83361842E+03 0.90805465E+02 0.0000E+00 0.0000E+00
       24  1    3    3    0    0 -.92876998E+02 -.55287602E+02 -.12963549E+03 0.18696372E+03 0.80419002E+02 0.0000E+00 0.9000E+01
      -11  1    4    4    0    0 0.20382303E+03 0.57420989E+02 0.52670816E+03 0.56768168E+03 0.51099893E-03 0.0000E+00 0.9000E+01
       11  1    4    4    0    0 0.10165609E+03 0.86443637E+02 0.23003454E+03 0.26593674E+03 0.51099893E-03 0.0000E+00 0.9000E+01
      -24  1    3    3    0    0 -.21260212E+03 -.88577024E+02 0.10332052E+03 0.26492998E+03 0.80419002E+02 0.0000E+00 0.9000E+01
#aMCatNLO 1  0  0  1  2 0.33823824D+02 0.00000000D+00  -5  7  0 0.00000000D+00 0.00000000D+00 0.00000000D+00 0.00000000D+00 0.00000000D+00
  <mgrwgt>
 0.4031276975D-03    6    2    0
 0.528917941970985D+03 0.000000000000000D+00 0.000000000000000D+00 0.528917941970985D+03
 0.528917941970985D+03 0.000000000000000D+00 0.000000000000000D+00 -.528917941970985D+03
 0.316715939257960D+03 -.928769976847691D+02 -.552876016695396D+02 -.286633763936447D+03
 0.326174823984369D+03 0.203823031155679D+03 0.574209892974955D+02 0.248090745010454D+03
 0.164336742001869D+03 0.101656087255521D+03 0.864436368094483D+02 0.959171640054212D+02
 0.250608378697772D+03 -.212602120726431D+03 -.885770244374042D+02 -.573741450794281D+02
 0.000000000000000D+00 0.000000000000000D+00 -.000000000000000D+00 -.000000000000000D+00
 0.543724917908856D+03 0.000000000000000D+00 0.000000000000000D+00 0.543724917908856D+03
 0.548863509038824D+03 0.000000000000000D+00 0.000000000000000D+00 -.548863509038824D+03
 0.315258234017827D+03 -.933739033870305D+02 -.451988683438297D+02 -.286633763936447D+03
 0.327854700605426D+03 0.203308783874763D+03 0.678618106787323D+02 0.248090745010454D+03
 0.167021476633931D+03 0.101395548462491D+03 0.917333857334760D+02 0.959171640054212D+02
 0.248242085278433D+03 -.212994354540102D+03 -.806134564416178D+02 -.573741450794281D+02
 0.342119304120629D+02 0.166392558987793D+01 -.337828716267608D+02 -.513859112996795D+01
0.617273055497D-04 0.000000000000D+00 0.000000000000D+00 0.170188850115D-05 0.000000000000D+00  7 -2 2 24 -11 11 -24 21 0 0.15507230D+00 0.42698800D-01 0.13099780D+06 0.13099780D+06 0.13099780D+06 0.11122243D+01  1  2  2  1  7  1       -2 0.245900940402D-03 0.100000000000D+01
-.282922504256D-05 0.000000000000D+00 -.237049106484D-06 0.170188850115D-05 0.000000000000D+00  7 -2 2 24 -11 11 -24 21 2 0.15507230D+00 0.42698800D-01 0.13099780D+06 0.13099780D+06 0.13099780D+06 0.11122243D+01  1  2  3  1  7  1       -2 -.139423233352D-04 0.100000000000D+01
0.395083112128D-05 0.000000000000D+00 0.000000000000D+00 0.170188850115D-05 0.000000000000D+00  7 -2 2 24 -11 11 -24 21 2 0.15507230D+00 0.42698800D-01 0.13099780D+06 0.13099780D+06 0.13099780D+06 0.11122243D+01  1  2 15  1  7  1       -2 0.194695593695D-04 0.100000000000D+01
0.108597597639D-03 0.000000000000D+00 0.000000000000D+00 0.170188850115D-05 0.000000000000D+00  7 -2 2 24 -11 11 -24 21 2 0.16224390D+00 0.42698800D-01 0.14351687D+06 0.14351687D+06 0.14351687D+06 0.11090693D+01  1  2 12  1  7  1       -2 0.467441458204D-03 0.100000000000D+01
-.728364209057D-04 0.000000000000D+00 0.000000000000D+00 0.170188850115D-05 0.000000000000D+00  7 -2 2 24 -11 11 -24 21 2 0.15507230D+00 0.42698800D-01 0.13099780D+06 0.13099780D+06 0.13099780D+06 0.11122243D+01  1  2  4  1  7  1       -2 -.358935367661D-03 0.100000000000D+01
0.116909436521D-05 0.000000000000D+00 0.000000000000D+00 0.170188850115D-05 0.000000000000D+00  7 21 2 24 -11 11 -24 2 2 0.16224390D+00 0.42698800D-01 0.14351687D+06 0.14351687D+06 0.14351687D+06 0.11090693D+01  1  2 12  3  7  1       -2 0.431934304757D-04 0.100000000000D+01
  </mgrwgt>
  </event>
  <event>
  8     66 0.27011060E-05 0.18622013E+03 0.75467711E-02 0.98664979E-01
       -2 -1    0    0    0  501 0.00000000E+00 0.00000000E+00 0.22273118E+03 0.22273141E+03 0.32000000E+00 0.0000E+00 0.9000E+01
        2 -1    0    0  501    0 0.00000000E+00 0.00000000E+00 -.12662662E+04 0.12662663E+04 0.32000000E+00 0.0000E+00 0.9000E+01
       25  2    1    2    0    0 -.17910384E+03 0.19127567E+03 0.12045712E+02 0.39766957E+03 0.29888362E+03 0.0000E+00 0.0000E+00
       23  2    1    2    0    0 0.17910384E+03 -.19127567E+03 -.10555808E+04 0.10913281E+04 0.89898546E+02 0.0000E+00 0.0000E+00
       24  1    3    3    0    0 -.71983544E+02 -.46494787E+02 0.38060332E+02 0.12352814E+03 0.80419002E+02 0.0000E+00 0.9000E+01
      -11  1    4    4    0    0 0.11619718E+02 0.41454136E+01 -.15154708E+02 0.19541430E+02 0.51099893E-03 0.0000E+00 0.9000E+01
       11  1    4    4    0    0 0.16748412E+03 -.19542108E+03 -.10404261E+04 0.10717867E+04 0.51099893E-03 0.0000E+00 0.9000E+01
      -24  1    3    3    0    0 -.10712030E+03 0.23777046E+03 -.26014620E+02 0.27414143E+03 0.80419002E+02 0.0000E+00 0.9000E+01
#aMCatNLO 1  0  0  2  1 0.43955902D+02 0.00000000D+00  -5  7  0 0.00000000D+00 0.00000000D+00 0.00000000D+00 0.00000000D+00 0.00000000D+00
  <mgrwgt>
 0.1581493798D-02    9    2    0
 0.531071727655946D+03 0.000000000000000D+00 0.000000000000000D+00 0.531071727655946D+03
 0.531071727655946D+03 0.000000000000000D+00 0.000000000000000D+00 -.531071727655946D+03
 0.210565156075657D+03 -.719835440065088D+02 -.464947871773143D+02 0.174719984994260D+03
 0.125055375153923D+02 0.116197181436457D+02 0.414541363777569D+01 -.204601187260894D+01
 0.480318215854688D+03 0.167484122511549D+03 -.195421084649933D+03 -.405543162761513D+03
 0.358754545866154D+03 -.107120296648686D+03 0.237770458189472D+03 0.232869189639861D+03
 0.000000000000000D+00 -.000000000000000D+00 0.000000000000000D+00 -.000000000000000D+00
 0.549935058545526D+03 0.000000000000000D+00 0.000000000000000D+00 0.549935058545526D+03
 0.557765464882374D+03 0.000000000000000D+00 0.000000000000000D+00 -.557765464882374D+03
 0.211398531902793D+03 -.686794429752047D+02 -.545727431279254D+02 0.174719984994260D+03
 0.125395060662044D+02 0.118158282751205D+02 0.366595826140784D+01 -.204601187260894D+01
 0.490838747697245D+03 0.175088570041627D+03 -.214012644531035D+03 -.405543162761513D+03
 0.348275819343301D+03 -.101584038848771D+03 0.224235264738897D+03 0.232869189639861D+03
 0.446479184183561D+02 -.166409164927721D+02 0.406841646586559D+02 -.783040633684791D+01
0.384664766118D-04 0.000000000000D+00 0.000000000000D+00 0.118078575818D-05 0.000000000000D+00  7 -2 2 24 -11 11 -24 21 0 0.34266357D-01 0.19481021D+00 0.10894352D+06 0.10894352D+06 0.10894352D+06 0.11186820D+01  1  2  2  2  7  2        2 0.678773397199D-03 0.100000000000D+01
-.154928873098D-05 0.000000000000D+00 -.147721398645D-06 0.118078575818D-05 0.000000000000D+00  7 -2 2 24 -11 11 -24 21 2 0.34266357D-01 0.19481021D+00 0.10894352D+06 0.10894352D+06 0.10894352D+06 0.11186820D+01  1  2  3  2  7  2        2 -.342127542670D-04 0.100000000000D+01
0.229827827935D-05 0.000000000000D+00 0.000000000000D+00 0.118078575818D-05 0.000000000000D+00  7 -2 2 24 -11 11 -24 21 2 0.34266357D-01 0.19481021D+00 0.10894352D+06 0.10894352D+06 0.10894352D+06 0.11186820D+01  1  2 15  2  7  2        2 0.507525992001D-04 0.100000000000D+01
0.913911768008D-04 0.000000000000D+00 0.000000000000D+00 0.118078575818D-05 0.000000000000D+00  7 -2 2 24 -11 11 -24 21 2 0.34266357D-01 0.20791379D+00 0.12631517D+06 0.12631517D+06 0.12631517D+06 0.11134903D+01  1  2 12  2  7  2        2 0.178489558023D-02 0.100000000000D+01
-.790700063360D-04 0.000000000000D+00 0.000000000000D+00 0.118078575818D-05 0.000000000000D+00  7 -2 2 24 -11 11 -24 21 2 0.34266357D-01 0.19481021D+00 0.10894352D+06 0.10894352D+06 0.10894352D+06 0.11186820D+01  1  2  4  2  7  2        2 -.174609331532D-02 0.100000000000D+01
-.316437049977D-03 0.000000000000D+00 -.652305207427D-04 0.118078575818D-05 0.000000000000D+00  7 -2 2 24 -11 11 -24 21 2 0.34266357D-01 0.20910376D+00 0.10894352D+06 0.10894352D+06 0.10894352D+06 0.11186820D+01  1  2  5  2  7  2        2 -.620590843163D-02 0.100000000000D+01
0.320415345026D-03 0.000000000000D+00 0.650673509639D-04 0.118078575818D-05 0.000000000000D+00  7 -2 2 24 -11 11 -24 21 2 0.34266357D-01 0.19481021D+00 0.10894352D+06 0.10894352D+06 0.10894352D+06 0.11186820D+01  1  2  6  2  7  2        2 0.707569302194D-02 0.100000000000D+01
0.107371983664D-05 0.000000000000D+00 0.000000000000D+00 0.118078575818D-05 0.000000000000D+00  7 -2 21 24 -11 11 -24 -2 2 0.34266357D-01 0.20791379D+00 0.12631517D+06 0.12631517D+06 0.12631517D+06 0.11134903D+01  1  2 12  4  7  2        2 0.922036735815D-05 0.100000000000D+01
-.367725678344D-05 0.000000000000D+00 -.781131618667D-06 0.118078575818D-05 0.000000000000D+00  7 -2 21 24 -11 11 -24 -2 2 0.34266357D-01 0.20910376D+00 0.10894352D+06 0.10894352D+06 0.10894352D+06 0.11186820D+01  1  2  5  4  7  2        2 -.316266669754D-04 0.100000000000D+01
  </mgrwgt>
  </event>
  <event>
  8     66 0.27011060E-05 0.80164092E+02 0.75467711E-02 0.10923497E+00
       -2 -1    0    0    0  501 0.00000000E+00 0.00000000E+00 0.13871830E+02 0.13875520E+02 0.32000000E+00 0.0000E+00 0.9000E+01
        2 -1    0    0  501    0 0.00000000E+00 0.00000000E+00 -.32653212E+04 0.32653212E+04 0.32000000E+00 0.0000E+00 0.9000E+01
       25  2    1    2    0    0 -.37218056E+02 -.20668185E+02 -.19279193E+04 0.19517070E+04 0.30079067E+03 0.0000E+00 0.0000E+00
       23  2    1    2    0    0 0.37218056E+02 0.20668185E+02 -.13235301E+04 0.13274897E+04 0.93192252E+02 0.0000E+00 0.0000E+00
       24  1    3    3    0    0 0.97571394E+01 -.13897476E+02 -.17392767E+04 0.17412177E+04 0.80419002E+02 0.0000E+00 0.9000E+01
      -13  1    4    4    0    0 -.12607638E+01 0.17507723E+02 -.11305080E+04 0.11306442E+04 0.10565837E+00 0.0000E+00 0.9000E+01
       13  1    4    4    0    0 0.38478819E+02 0.31604625E+01 -.19302209E+03 0.19684549E+03 0.10565837E+00 0.0000E+00 0.9000E+01
      -24  1    3    3    0    0 -.46975195E+02 -.67707098E+01 -.18864266E+03 0.21048939E+03 0.80419002E+02 0.0000E+00 0.9000E+01
#aMCatNLO 1  0  0  1  2 0.91985793D+02 0.00000000D+00  -5  7  0 0.00000000D+00 0.00000000D+00 0.00000000D+00 0.00000000D+00 0.00000000D+00
  <mgrwgt>
 0.9100943720D-03    9    2    0
 0.212842798973668D+03 0.000000000000000D+00 0.000000000000000D+00 0.212842798973668D+03
 0.212842798973668D+03 0.000000000000000D+00 0.000000000000000D+00 -.212842798973668D+03
 0.128322648461622D+03 0.975696589727641D+01 -.138975719394236D+02 -.985451432821649D+02
 0.747394873064097D+02 -.126032640346004D+01 0.175078520679139D+02 -.726490031325259D+02
 0.420343027537253D+02 0.384787996414888D+02 0.316056531226840D+01 0.166215346177446D+02
 0.180589159425579D+03 -.469754391353052D+02 -.677084544075875D+01 0.154572611796946D+03
 0.000000000000000D+00 -.000000000000000D+00 0.000000000000000D+00 0.000000000000000D+00
 0.295838943720101D+03 0.000000000000000D+00 0.000000000000000D+00 0.295838943720101D+03
 0.244846178211099D+03 0.000000000000000D+00 0.000000000000000D+00 -.244846178211099D+03
 0.134865695753588D+03 0.205120297659048D+02 -.398704314888757D+02 -.985451432821649D+02
 0.728649198707779D+02 0.477145601158334D+01 0.294144507931876D+01 -.726490031325259D+02
 0.455546120067345D+02 0.420580781055164D+02 -.548318594482425D+01 0.166215346177446D+02
 0.182225523581329D+03 -.321491933156016D+02 -.425753748256616D+02 0.154572611796946D+03
 0.105174370718771D+03 -.351923705674031D+02 0.849875471800428D+02 0.509927655090020D+02
0.113281823346D-04 0.000000000000D+00 0.000000000000D+00 0.478719831815D-07 0.000000000000D+00  7 -2 2 24 -13 13 -24 21 0 0.21344128D-02 0.50235740D+00 0.13425086D+05 0.13425086D+05 0.13425086D+05 0.12011926D+01  1  2  2  1  7  1       -2 0.116944460816D-02 0.100000000000D+01
-.346374504073D-06 0.000000000000D+00 -.435032029437D-07 0.478719831815D-07 0.000000000000D+00  7 -2 2 24 -13 13 -24 21 2 0.21344128D-02 0.50235740D+00 0.13425086D+05 0.13425086D+05 0.13425086D+05 0.12011926D+01  1  2  3  1  7  1       -2 -.515929797554D-04 0.100000000000D+01
0.706596943092D-06 0.000000000000D+00 0.000000000000D+00 0.478719831815D-07 0.000000000000D+00  7 -2 2 24 -13 13 -24 21 2 0.21344128D-02 0.50235740D+00 0.13425086D+05 0.13425086D+05 0.13425086D+05 0.12011926D+01  1  2 15  1  7  1       -2 0.105248629306D-03 0.100000000000D+01
0.534195520981D-06 0.000000000000D+00 0.000000000000D+00 0.478719831815D-07 0.000000000000D+00  7 -2 2 24 -13 13 -24 21 2 0.30776684D-02 0.50235740D+00 0.26992059D+05 0.26992059D+05 0.26992059D+05 0.11716173D+01  1  2 12  1  7  1       -2 0.438053058816D-04 0.100000000000D+01
-.632760464025D-05 0.000000000000D+00 0.000000000000D+00 0.478719831815D-07 0.000000000000D+00  7 -2 2 24 -13 13 -24 21 2 0.21344128D-02 0.50235740D+00 0.13425086D+05 0.13425086D+05 0.13425086D+05 0.12011926D+01  1  2  4  1  7  1       -2 -.942505797240D-03 0.100000000000D+01
-.298248627062D-05 0.000000000000D+00 -.389376027080D-05 0.478719831815D-07 0.000000000000D+00  7 -2 2 24 -13 13 -24 21 2 0.37479417D-02 0.50235740D+00 0.13425086D+05 0.13425086D+05 0.13425086D+05 0.12011926D+01  1  2  5  1  7  1       -2 -.197177464822D-03 0.100000000000D+01
0.491919538099D-05 0.000000000000D+00 0.334882519317D-05 0.478719831815D-07 0.000000000000D+00  7 -2 2 24 -13 13 -24 21 2 0.21344128D-02 0.50235740D+00 0.13425086D+05 0.13425086D+05 0.13425086D+05 0.12011926D+01  1  2  6  1  7  1       -2 0.732721215679D-03 0.100000000000D+01
0.238333154232D-07 0.000000000000D+00 0.000000000000D+00 0.478719831815D-07 0.000000000000D+00  7 21 2 24 -13 13 -24 2 2 0.30776684D-02 0.50235740D+00 0.26992059D+05 0.26992059D+05 0.26992059D+05 0.11716173D+01  1  2 12  3  7  1       -2 0.345372351839D-04 0.100000000000D+01
0.135923496129D-07 0.000000000000D+00 -.241919315918D-06 0.478719831815D-07 0.000000000000D+00  7 21 2 24 -13 13 -24 2 2 0.37479417D-02 0.50235740D+00 0.13425086D+05 0.13425086D+05 0.13425086D+05 0.12011926D+01  1  2  5  3  7  1       -2 0.156136195797D-04 0.100000000000D+01
  </mgrwgt>
  </event>
  <event>
  8     66 0.27011060E-05 0.82622253E+02 0.75467711E-02 0.10478823E+00
       -2 -1    0    0    0  501 0.00000000E+00 0.00000000E+00 0.29379657E+03 0.29379675E+03 0.32000000E+00 0.0000E+00 0.9000E+01
        2 -1    0    0  501    0 0.00000000E+00 0.00000000E+00 -.20617647E+03 0.20617672E+03 0.32000000E+00 0.0000E+00 0.9000E+01
       25  2    1    2    0    0 0.45801125E+02 0.10671287E+03 0.11668467E+03 0.34261666E+03 0.30047543E+03 0.0000E+00 0.0000E+00
       23  2    1    2    0    0 -.45801125E+02 -.10671287E+03 -.29064577E+02 0.15735681E+03 0.10213245E+03 0.0000E+00 0.0000E+00
       24  1    3    3    0    0 0.16798683E+02 0.12641271E+03 -.46136608E+02 0.15766474E+03 0.80419002E+02 0.0000E+00 0.9000E+01
      -11  1    4    4    0    0 0.22948192E+02 -.62108632E+02 -.35544210E+02 0.75149801E+02 0.51099893E-03 0.0000E+00 0.9000E+01
       11  1    4    4    0    0 -.68749317E+02 -.44604236E+02 0.64796337E+01 0.82207008E+02 0.51099893E-03 0.0000E+00 0.9000E+01
      -24  1    3    3    0    0 0.29002442E+02 -.19699839E+02 0.16282128E+03 0.18495192E+03 0.80419002E+02 0.0000E+00 0.9000E+01
#aMCatNLO 1  0  0  1  2 0.57148832D+02 0.00000000D+00  -5  7  0 0.00000000D+00 0.00000000D+00 0.00000000D+00 0.00000000D+00 0.00000000D+00
  <mgrwgt>
 0.4256201509D-03    9    2    0
 0.246117952388985D+03 0.000000000000000D+00 0.000000000000000D+00 0.246117952388985D+03
 0.246117952388985D+03 0.000000000000000D+00 0.000000000000000D+00 -.246117952388985D+03
 0.168355622908204D+03 0.167986838244473D+02 0.126412709509662D+03 -.749268370253992D+02
 0.826581172607831D+02 0.229481865035860D+02 -.621086333828343D+02 -.494799226415189D+02
 0.823458338383336D+02 -.687493134012358D+02 -.446042392488422D+02 -.805171400517665D+01
 0.158876330770651D+03 0.290024430732025D+02 -.196998368779857D+02 0.132458473672095D+03
 0.000000000000000D+00 -.000000000000000D+00 -.000000000000000D+00 0.000000000000000D+00
 0.279114596581068D+03 0.000000000000000D+00 0.000000000000000D+00 0.279114596581068D+03
 0.273821168133748D+03 0.000000000000000D+00 0.000000000000000D+00 -.273821168133748D+03
 0.184170086664609D+03 0.168731580764668D+02 0.146808278028096D+03 -.749268370253992D+02
 0.760122739625058D+02 0.229817070621811D+02 -.529286707640429D+02 -.494799226415189D+02
 0.776912741779254D+02 -.687155041113281D+02 -.353452044794548D+02 -.805171400517665D+01
 0.157668669056658D+03 0.290693160741001D+02 -.138595208084843D+01 0.132458473672095D+03
 0.573934608531189D+02 -.208677101419952D+00 -.571484507037500D+02 0.529342844732013D+01
0.293236603190D-05 0.000000000000D+00 0.000000000000D+00 0.365332985505D-08 0.000000000000D+00  7 -2 2 24 -11 11 -24 21 0 0.45199505D-01 0.31719490D-01 0.37375811D+05 0.37375811D+05 0.37375811D+05 0.11585804D+01  1  2  2  1  7  1       -2 0.273523775533D-03 0.100000000000D+01
-.151364629778D-06 0.000000000000D+00 -.112610576722D-07 0.365332985505D-08 0.000000000000D+00  7 -2 2 24 -11 11 -24 21 2 0.45199505D-01 0.31719490D-01 0.37375811D+05 0.37375811D+05 0.37375811D+05 0.11585804D+01  1  2  3  1  7  1       -2 -.189519394166D-04 0.100000000000D+01
0.189350699323D-06 0.000000000000D+00 0.000000000000D+00 0.365332985505D-08 0.000000000000D+00  7 -2 2 24 -11 11 -24 21 2 0.45199505D-01 0.31719490D-01 0.37375811D+05 0.37375811D+05 0.37375811D+05 0.11585804D+01  1  2 15  1  7  1       -2 0.237080683070D-04 0.100000000000D+01
0.224148736701D-05 0.000000000000D+00 0.000000000000D+00 0.365332985505D-08 0.000000000000D+00  7 -2 2 24 -11 11 -24 21 2 0.53499137D-01 0.31719490D-01 0.49703808D+05 0.49703808D+05 0.49703808D+05 0.11475224D+01  1  2 12  1  7  1       -2 0.198885188618D-03 0.100000000000D+01
-.203512002394D-05 0.000000000000D+00 0.000000000000D+00 0.365332985505D-08 0.000000000000D+00  7 -2 2 24 -11 11 -24 21 2 0.45199505D-01 0.31719490D-01 0.37375811D+05 0.37375811D+05 0.37375811D+05 0.11585804D+01  1  2  4  1  7  1       -2 -.254811652205D-03 0.100000000000D+01
-.534884847295D-05 0.000000000000D+00 -.184285288239D-05 0.365332985505D-08 0.000000000000D+00  7 -2 2 24 -11 11 -24 21 2 0.56396015D-01 0.31719490D-01 0.37375811D+05 0.37375811D+05 0.37375811D+05 0.11585804D+01  1  2  5  1  7  1       -2 -.435693336925D-03 0.100000000000D+01
0.566170268949D-05 0.000000000000D+00 0.179862522194D-05 0.365332985505D-08 0.000000000000D+00  7 -2 2 24 -11 11 -24 21 2 0.45199505D-01 0.31719490D-01 0.37375811D+05 0.37375811D+05 0.37375811D+05 0.11585804D+01  1  2  6  1  7  1       -2 0.708885864043D-03 0.100000000000D+01
0.561430650914D-07 0.000000000000D+00 0.000000000000D+00 0.365332985505D-08 0.000000000000D+00  7 21 2 24 -11 11 -24 2 2 0.53499137D-01 0.31719490D-01 0.49703808D+05 0.49703808D+05 0.49703808D+05 0.11475224D+01  1  2 12  3  7  1       -2 0.541627769370D-04 0.100000000000D+01
-.140089899980D-06 0.000000000000D+00 -.569540914155D-07 0.365332985505D-08 0.000000000000D+00  7 21 2 24 -11 11 -24 2 2 0.56396015D-01 0.31719490D-01 0.37375811D+05 0.37375811D+05 0.37375811D+05 0.11585804D+01  1  2  5  3  7  1       -2 -.124088593945D-03 0.100000000000D+01
  </mgrwgt>
  </event>
  <event>
  8     66 0.27011060E-05 0.12430240E+03 0.75467711E-02 0.10237785E+00
       -2 -1    0    0    0  501 0.00000000E+00 0.00000000E+00 0.15296254E+03 0.15296288E+03 0.32000000E+00 0.0000E+00 0.9000E+01
        2 -1    0    0  501    0 0.00000000E+00 0.00000000E+00 -.10140644E+04 0.10140645E+04 0.32000000E+00 0.0000E+00 0.9000E+01
       25  2    1    2    0    0 0.41187664E+02 -.15024766E+03 -.91783695E+03 0.97800814E+03 0.29967396E+03 0.0000E+00 0.0000E+00
       23  2    1    2    0    0 -.41187664E+02 0.15024766E+03 0.56735080E+02 0.18901920E+03 0.90766762E+02 0.0000E+00 0.0000E+00
       24  1    3    3    0    0 0.11771673E+03 -.11941136E+03 -.76103806E+03 0.78342993E+03 0.80419002E+02 0.0000E+00 0.9000E+01
      -11  1    4    4    0    0 0.92992027E+01 0.61285419E+02 0.60557660E+02 0.86657994E+02 0.51099893E-03 0.0000E+00 0.9000E+01
       11  1    4    4    0    0 -.50486867E+02 0.88962241E+02 -.38225799E+01 0.10236120E+03 0.51099893E-03 0.0000E+00 0.9000E+01
      -24  1    3    3    0    0 -.76529070E+02 -.30836296E+02 -.15679888E+03 0.19457821E+03 0.80419002E+02 0.0000E+00 0.9000E+01
#aMCatNLO 1  0  0  2  1 0.57158886D+02 0.00000000D+00  -5  7  0 0.00000000D+00 0.00000000D+00 0.00000000D+00 0.00000000D+00 0.00000000D+00
  <mgrwgt>
 0.6539035786D-03    9    2    0
 0.393845270397001D+03 0.000000000000000D+00 0.000000000000000D+00 0.393845270397001D+03
 0.393845270397001D+03 0.000000000000000D+00 0.000000000000000D+00 -.393845270397001D+03
 0.328749470902333D+03 0.117716734084445D+03 -.119411362922033D+03 -.271095362530952D+03
 0.194592360486106D+03 0.929920271401090D+01 0.612854186181780D+02 0.184455439207504D+03
 0.147477577831279D+03 -.504868668950694D+02 0.889622406720296D+02 0.106237620308027D+03
 0.116871131574282D+03 -.765290699033863D+02 -.308362963681746D+02 -.195976969845786D+02
 0.000000000000000D+00 -.000000000000000D+00 0.000000000000000D+00 -.000000000000000D+00
 0.407996197907313D+03 0.000000000000000D+00 0.000000000000000D+00 0.407996197907313D+03
 0.457157823023022D+03 0.000000000000000D+00 0.000000000000000D+00 -.457157823023022D+03
 0.338422641459112D+03 0.141879866906633D+03 -.120166867640627D+03 -.271095362530952D+03
 0.195639507432599D+03 0.234323241099213D+02 0.608435206249977D+02 0.184455439207504D+03
 0.144001810348540D+03 -.399302878039705D+02 0.886321698416357D+02 0.106237620308027D+03
 0.111697730322706D+03 -.682509364701932D+02 -.310951274111503D+02 -.195976969845786D+02
 0.753923313673777D+02 -.571309667423906D+02 0.178630458514384D+01 -.491616251157083D+02
0.100461985147D-04 0.000000000000D+00 0.000000000000D+00 0.240175613894D-05 0.000000000000D+00  7 -2 2 24 -11 11 -24 21 0 0.23532729D-01 0.15600994D+00 0.54163124D+05 0.54163124D+05 0.54163124D+05 0.11442527D+01  1  2  2  2  7  2        2 0.482938259332D-03 0.100000000000D+01
-.370313804180D-06 0.000000000000D+00 -.385800475212D-07 0.240175613894D-05 0.000000000000D+00  7 -2 2 24 -11 11 -24 21 2 0.23532729D-01 0.15600994D+00 0.54163124D+05 0.54163124D+05 0.54163124D+05 0.11442527D+01  1  2  3  2  7  2        2 -.233079272029D-04 0.100000000000D+01
0.583263051039D-06 0.000000000000D+00 0.000000000000D+00 0.240175613894D-05 0.000000000000D+00  7 -2 2 24 -11 11 -24 21 2 0.23532729D-01 0.15600994D+00 0.54163124D+05 0.54163124D+05 0.54163124D+05 0.11442527D+01  1  2 15  2  7  2        2 0.367111692308D-04 0.100000000000D+01
0.219194139954D-04 0.000000000000D+00 0.000000000000D+00 0.240175613894D-05 0.000000000000D+00  7 -2 2 24 -11 11 -24 21 2 0.23532729D-01 0.18358088D+00 0.70785700D+05 0.70785700D+05 0.70785700D+05 0.11342478D+01  1  2 12  2  7  2        2 0.106246580997D-02 0.100000000000D+01
-.229222050636D-04 0.000000000000D+00 0.000000000000D+00 0.240175613894D-05 0.000000000000D+00  7 -2 2 24 -11 11 -24 21 2 0.23532729D-01 0.15600994D+00 0.54163124D+05 0.54163124D+05 0.54163124D+05 0.11442527D+01  1  2  4  2  7  2        2 -.144274688365D-02 0.100000000000D+01
-.354631585744D-04 0.000000000000D+00 -.800438273136D-05 0.240175613894D-05 0.000000000000D+00  7 -2 2 24 -11 11 -24 21 2 0.23532729D-01 0.18446447D+00 0.54163124D+05 0.54163124D+05 0.54163124D+05 0.11442527D+01  1  2  5  2  7  2        2 -.174528659350D-02 0.100000000000D+01
0.364031368999D-04 0.000000000000D+00 0.789334542586D-05 0.240175613894D-05 0.000000000000D+00  7 -2 2 24 -11 11 -24 21 2 0.23532729D-01 0.15600994D+00 0.54163124D+05 0.54163124D+05 0.54163124D+05 0.11442527D+01  1  2  6  2  7  2        2 0.229125043474D-02 0.100000000000D+01
0.533838643258D-06 0.000000000000D+00 0.000000000000D+00 0.240175613894D-05 0.000000000000D+00  7 -2 21 24 -11 11 -24 -2 2 0.23532729D-01 0.18358088D+00 0.70785700D+05 0.70785700D+05 0.70785700D+05 0.11342478D+01  1  2 12  4  7  2        2 0.144694979916D-04 0.100000000000D+01
-.816233746788D-06 0.000000000000D+00 -.199504484321D-06 0.240175613894D-05 0.000000000000D+00  7 -2 21 24 -11 11 -24 -2 2 0.23532729D-01 0.18446447D+00 0.54163124D+05 0.54163124D+05 0.54163124D+05 0.11442527D+01  1  2  5  4  7  2        2 -.225901883055D-04 0.100000000000D+01
  </mgrwgt>
  </event>
  <event>
  8     66 0.27011060E-05 0.17003623E+03 0.75467711E-02 0.89006936E-01
       -2 -1    0    0    0  501 0.00000000E+00 0.00000000E+00 0.78896789E+03 0.78896796E+03 0.32000000E+00 0.0000E+00 0.9000E+01
        2 -1    0    0  501    0 0.00000000E+00 0.00000000E+00 -.11420103E+04 0.11420104E+04 0.32000000E+00 0.0000E+00 0.9000E+01
       25  2    1    2    0    0 0.38868586E+03 -.64751356E+03 -.72173671E+03 0.10868687E+04 0.30004867E+03 0.0000E+00 0.0000E+00
       23  2    1    2    0    0 -.38868586E+03 0.64751356E+03 0.36869429E+03 0.84410961E+03 0.78962256E+02 0.0000E+00 0.0000E+00
       24  1    3    3    0    0 0.22209208E+03 -.55971710E+03 -.52566462E+03 0.80336706E+03 0.80419002E+02 0.0000E+00 0.9000E+01
      -11  1    4    4    0    0 -.19926346E+03 0.27903055E+03 0.13555063E+03 0.36869763E+03 0.51099893E-03 0.0000E+00 0.9000E+01
       11  1    4    4    0    0 -.18942241E+03 0.36848302E+03 0.23314366E+03 0.47541198E+03 0.51099893E-03 0.0000E+00 0.9000E+01
      -24  1    3    3    0    0 0.16659378E+03 -.87796467E+02 -.19607210E+03 0.28350166E+03 0.80419002E+02 0.0000E+00 0.9000E+01
#aMCatNLO 1  0  0  2  1 0.12124498D+03 0.00000000D+00  -5  7  0 0.00000000D+00 0.00000000D+00 0.00000000D+00 0.00000000D+00 0.00000000D+00
  <mgrwgt>
 0.3268468535D-02    9    2    0
 0.949215245147682D+03 0.000000000000000D+00 0.000000000000000D+00 0.949215245147682D+03
 0.949215245147682D+03 0.000000000000000D+00 0.000000000000000D+00 -.949215245147682D+03
 0.719385021471729D+03 0.222092082134736D+03 -.559717095466881D+03 -.385278436015676D+03
 0.400226536440828D+03 -.199263455532334D+03 0.279030545593114D+03 0.206439604695281D+03
 0.526919381757107D+03 -.189422408141032D+03 0.368483016425609D+03 0.325550998725589D+03
 0.251899550625700D+03 0.166593781538630D+03 -.877964665518424D+02 -.146712167405193D+03
 0.000000000000000D+00 0.000000000000000D+00 0.000000000000000D+00 -.000000000000000D+00
 0.959136830403184D+03 0.000000000000000D+00 0.000000000000000D+00 0.959136830403184D+03
 0.141124230296419D+04 0.000000000000000D+00 0.000000000000000D+00 -.141124230296419D+04
 0.737365055476761D+03 0.190442355223577D+03 -.593744259056109D+03 -.385278436015676D+03
 0.396660635770426D+03 -.216576831229779D+03 0.260416638787775D+03 0.206439604695281D+03
 0.519000377955577D+03 -.212146329896528D+03 0.344052138865952D+03 0.325550998725589D+03
 0.249272191256407D+03 0.155705195351365D+03 -.995029720926166D+02 -.146712167405193D+03
 0.468080872908205D+03 0.825756105513658D+02 0.887784534949981D+02 -.452105472561009D+03
0.227994749025D-02 0.000000000000D+00 0.000000000000D+00 0.144969968148D-06 0.000000000000D+00  7 -2 2 24 -11 11 -24 21 0 0.12137968D+00 0.17569390D+00 0.61581427D+06 0.61581427D+06 0.61581427D+06 0.10621739D+01  1  2  2  2  7  2        2 0.294801858534D-02 0.100000000000D+01
-.121087476097D-03 0.000000000000D+00 -.875559868654D-05 0.144969968148D-06 0.000000000000D+00  7 -2 2 24 -11 11 -24 21 2 0.12137968D+00 0.17569390D+00 0.61581427D+06 0.61581427D+06 0.61581427D+06 0.10621739D+01  1  2  3  2  7  2        2 -.176642772977D-03 0.100000000000D+01
0.146311169208D-03 0.000000000000D+00 0.000000000000D+00 0.144969968148D-06 0.000000000000D+00  7 -2 2 24 -11 11 -24 21 2 0.12137968D+00 0.17569390D+00 0.61581427D+06 0.61581427D+06 0.61581427D+06 0.10621739D+01  1  2 15  2  7  2        2 0.213439172071D-03 0.100000000000D+01
0.178353674223D-01 0.000000000000D+00 0.000000000000D+00 0.144969968148D-06 0.000000000000D+00  7 -2 2 24 -11 11 -24 21 2 0.12137968D+00 0.26177563D+00 0.71773095D+06 0.71773095D+06 0.71773095D+06 0.10575888D+01  1  2 12  2  7  2        2 0.123125042670D-01 0.100000000000D+01
-.167893845678D-01 0.000000000000D+00 0.000000000000D+00 0.144969968148D-06 0.000000000000D+00  7 -2 2 24 -11 11 -24 21 2 0.12137968D+00 0.17569390D+00 0.61581427D+06 0.61581427D+06 0.61581427D+06 0.10621739D+01  1  2  4  2  7  2        2 -.244924045179D-01 0.100000000000D+01
-.183639767898D-01 0.000000000000D+00 -.885218979747D-03 0.144969968148D-06 0.000000000000D+00  7 -2 2 24 -11 11 -24 21 2 0.12137968D+00 0.26206275D+00 0.61581427D+06 0.61581427D+06 0.61581427D+06 0.10621739D+01  1  2  5  2  7  2        2 -.128828649705D-01 0.100000000000D+01
0.173766308919D-01 0.000000000000D+00 0.818883714937D-03 0.144969968148D-06 0.000000000000D+00  7 -2 2 24 -11 11 -24 21 2 0.12137968D+00 0.17569390D+00 0.61581427D+06 0.61581427D+06 0.61581427D+06 0.10621739D+01  1  2  6  2  7  2        2 0.253490812153D-01 0.100000000000D+01
0.847003516815D-03 0.000000000000D+00 0.000000000000D+00 0.144969968148D-06 0.000000000000D+00  7 -2 21 24 -11 11 -24 -2 2 0.12137968D+00 0.26177563D+00 0.71773095D+06 0.71773095D+06 0.71773095D+06 0.10575888D+01  1  2 12  4  7  2        2 0.154683707210D-03 0.100000000000D+01
-.843667557980D-03 0.000000000000D+00 -.421239072102D-04 0.144969968148D-06 0.000000000000D+00  7 -2 21 24 -11 11 -24 -2 2 0.12137968D+00 0.26206275D+00 0.61581427D+06 0.61581427D+06 0.61581427D+06 0.10621739D+01  1  2  5  4  7  2        2 -.157346150916D-03 0.100000000000D+01
  </mgrwgt>
  </event>
  <event>
  8     66 0.27011060E-05 0.23839886E+03 0.75467711E-02 0.96294270E-01
       -2 -1    0    0    0  501 0.00000000E+00 0.00000000E+00 0.36722452E+03 0.36722466E+03 0.32000000E+00 0.0000E+00 0.9000E+01
        2 -1    0    0  501    0 0.00000000E+00 0.00000000E+00 -.23420533E+03 0.23420554E+03 0.32000000E+00 0.0000E+00 0.9000E+01
       25  2    1    2    0    0 0.31660001E+02 0.14643606E+03 0.22431952E+03 0.40358196E+03 0.30018873E+03 0.0000E+00 0.0000E+00
       23  2    1    2    0    0 -.31660001E+02 -.14643606E+03 -.91300326E+02 0.19784825E+03 0.91445641E+02 0.0000E+00 0.0000E+00
       24  1    3    3    0    0 -.73666112E+02 0.13593755E+03 0.44335532E+02 0.17982928E+03 0.80419002E+02 0.0000E+00 0.9000E+01
      -13  1    4    4    0    0 -.51670040E+02 -.13890939E+03 -.59887183E+02 0.15985024E+03 0.10565837E+00 0.0000E+00 0.9000E+01
       13  1    4    4    0    0 0.20010039E+02 -.75266689E+01 -.31413143E+02 0.37998015E+02 0.10565837E+00 0.0000E+00 0.9000E+01
      -24  1    3    3    0    0 0.10532611E+03 0.10498508E+02 0.17998399E+03 0.22375268E+03 0.80419002E+02 0.0000E+00 0.9000E+01
#aMCatNLO 1  0  0  2  2 0.31430791D+03 0.00000000D+00  -5  7  0 0.00000000D+00 0.00000000D+00 0.00000000D+00 0.00000000D+00 0.00000000D+00
  <mgrwgt>
 0.7914339197D-03    3    2    0
 0.293267876312608D+03 0.000000000000000D+00 0.000000000000000D+00 0.293267876312608D+03
 0.293267876312608D+03 0.000000000000000D+00 0.000000000000000D+00 -.293267876312608D+03
 0.174341091960113D+03 -.736661120060852D+02 0.135937551729426D+03 0.467828635192074D+01
 0.177491325986462D+03 -.516701351441716D+02 -.138909565666142D+03 -.976601274884453D+02
 0.460868780842709D+02 0.200101339930300D+02 -.752649455850111D+01 -.408282591938021D+02
 0.188616456594370D+03 0.105326113157227D+03 0.104985084952171D+02 0.133810100330327D+03
 0.000000000000000D+00 0.000000000000000D+00 -.000000000000000D+00 0.000000000000000D+00
 0.915542434127082D+03 0.000000000000000D+00 0.000000000000000D+00 0.915542434127082D+03
 0.375096765414231D+03 0.000000000000000D+00 0.000000000000000D+00 -.375096765414231D+03
 0.272602396621115D+03 -.795256779782839D+02 0.247989174901060D+03 0.467828635192074D+01
 0.128479067133086D+03 -.556815006743301D+02 -.622008092630890D+02 -.976601274884453D+02
 0.476992463721653D+02 0.187805691877035D+02 0.159862933997256D+02 -.408282591938021D+02
 0.216661735864833D+03 0.100012791973498D+03 0.112104372460872D+03 0.133810100330327D+03
 0.625196753550114D+03 0.164138174914122D+02 -.313879031498569D+03 0.540445668712851D+03
0.149214666997D-04 0.000000000000D+00 0.000000000000D+00 0.117229037861D-05 0.000000000000D+00  7 -2 2 24 -13 13 -24 21 0 0.56496108D-01 0.36031616D-01 0.56834019D+05 0.56834019D+05 0.56834019D+05 0.11424334D+01  1  2  2  2  7  2        2 0.782697685035D-03 0.100000000000D+01
-.785723591069D-06 0.000000000000D+00 -.573023610391D-07 0.117229037861D-05 0.000000000000D+00  7 -2 2 24 -13 13 -24 21 2 0.56496108D-01 0.36031616D-01 0.56834019D+05 0.56834019D+05 0.56834019D+05 0.11424334D+01  1  2  3  2  7  2        2 -.537915552468D-04 0.100000000000D+01
0.913332202096D-06 0.000000000000D+00 0.000000000000D+00 0.117229037861D-05 0.000000000000D+00  7 -2 2 24 -13 13 -24 21 2 0.56496108D-01 0.36031616D-01 0.56834019D+05 0.56834019D+05 0.56834019D+05 0.11424334D+01  1  2 15  2  7  2        2 0.625277898821D-04 0.100000000000D+01
  </mgrwgt>
  </event>
  <event>
  8     66 0.27011060E-05 0.20993197E+03 0.75467711E-02 0.10330463E+00
       -2 -1    0    0    0  501 0.00000000E+00 0.00000000E+00 0.47880220E+02 0.47881290E+02 0.32000000E+00 0.0000E+00 0.9000E+01
        2 -1    0    0  501    0 0.00000000E+00 0.00000000E+00 -.10657883E+04 0.10657884E+04 0.32000000E+00 0.0000E+00 0.9000E+01
       25  2    1    2    0    0 -.23836881E+02 0.93519216E+02 -.64284442E+03 0.71588999E+03 0.29989247E+03 0.0000E+00 0.0000E+00
       23  2    1    2    0    0 0.23836881E+02 -.93519216E+02 -.37506370E+03 0.39777969E+03 0.90784684E+02 0.0000E+00 0.0000E+00
       24  1    3    3    0    0 0.63801069E+02 -.42222303E+02 -.38830784E+03 0.40386073E+03 0.80419002E+02 0.0000E+00 0.9000E+01
      -11  1    4    4    0    0 0.33440821E+02 -.10684681E+03 -.28446818E+03 0.30570684E+03 0.51099893E-03 0.0000E+00 0.9000E+01
       11  1    4    4    0    0 -.96039394E+01 0.13327589E+02 -.90595517E+02 0.92072840E+02 0.51099893E-03 0.0000E+00 0.9000E+01
      -24  1    3    3    0    0 -.87637950E+02 0.13574152E+03 -.25453658E+03 0.31202926E+03 0.80419002E+02 0.0000E+00 0.9000E+01
#aMCatNLO 1  0  0  2  2 0.69511325D+02 0.00000000D+00  -5  7  0 0.00000000D+00 0.00000000D+00 0.00000000D+00 0.00000000D+00 0.00000000D+00
  <mgrwgt>
 0.9617662393D-03    4    2    0
 0.225899983653011D+03 0.000000000000000D+00 0.000000000000000D+00 0.225899983653011D+03
 0.225899983653011D+03 0.000000000000000D+00 0.000000000000000D+00 -.225899983653011D+03
 0.120641336216445D+03 0.638010685581974D+02 -.422223028066211D+02 -.472632716414866D+02
 0.112647132694218D+03 0.334408207389658D+02 -.106846805320126D+03 -.124438018875337D+02
 0.228437783939329D+02 -.960393936411870D+01 0.133275888968816D+02 -.158738128437110D+02
 0.195667720001427D+03 -.876379499330444D+02 0.135741519229865D+03 0.755808863727313D+02
 0.000000000000000D+00 0.000000000000000D+00 -.000000000000000D+00 0.000000000000000D+00
 0.286250912626423D+03 0.000000000000000D+00 0.000000000000000D+00 0.286250912626423D+03
 0.249495683551921D+03 0.000000000000000D+00 0.000000000000000D+00 -.249495683551921D+03
 0.114368333374545D+03 0.615137297624042D+02 -.243955719129825D+02 -.472632716414866D+02
 0.970126312034153D+02 0.314002114622729D+02 -.909429993331989D+02 -.124438018875337D+02
 0.253344473512582D+02 -.100728559199832D+02 0.169821630545630D+02 -.158738128437110D+02
 0.220400585077544D+03 -.916875244784806D+02 0.167302508702868D+03 0.755808863727313D+02
 0.786305991715817D+02 0.884643917378667D+01 -.689461005112498D+02 0.367552290745015D+02
0.514401361699D-05 0.000000000000D+00 0.000000000000D+00 0.479790997996D-06 0.000000000000D+00  7 -2 2 24 -11 11 -24 21 0 0.73662737D-02 0.16396752D+00 0.44071431D+05 0.44071431D+05 0.44071431D+05 0.11521481D+01  1  2  2  2  7  2        2 0.143227340105D-02 0.100000000000D+01
-.283911192589D-06 0.000000000000D+00 -.197543667391D-07 0.479790997996D-06 0.000000000000D+00  7 -2 2 24 -11 11 -24 21 2 0.73662737D-02 0.16396752D+00 0.44071431D+05 0.44071431D+05 0.44071431D+05 0.11521481D+01  1  2  3  2  7  2        2 -.104935629959D-03 0.100000000000D+01
0.315976445505D-06 0.000000000000D+00 0.000000000000D+00 0.479790997996D-06 0.000000000000D+00  7 -2 2 24 -11 11 -24 21 2 0.73662737D-02 0.16396752D+00 0.44071431D+05 0.44071431D+05 0.44071431D+05 0.11521481D+01  1  2 15  2  7  2        2 0.116787179325D-03 0.100000000000D+01
-.130505755745D-05 0.000000000000D+00 0.000000000000D+00 0.479790997996D-06 0.000000000000D+00  7 -2 2 24 -11 11 -24 21 2 0.73662737D-02 0.16396752D+00 0.44071431D+05 0.44071431D+05 0.44071431D+05 0.11521481D+01  1  2  4  2  7  2        2 -.482358711099D-03 0.100000000000D+01
  </mgrwgt>
  </event>
  <event>
  8     66 0.27011060E-05 0.23111268E+03 0.75467711E-02 0.94484531E-01
       -2 -1    0    0    0  501 0.00000000E+00 0.00000000E+00 0.63053789E+02 0.63054601E+02 0.32000000E+00 0.0000E+00 0.9000E+01
        2 -1    0    0  501    0 0.00000000E+00 0.00000000E+00 -.17836859E+04 0.17836860E+04 0.32000000E+00 0.0000E+00 0.9000E+01
       25  2    1    2    0    0 0.50312126E+02 -.12578305E+03 -.16238766E+04 0.16567637E+04 0.29922909E+03 0.0000E+00 0.0000E+00
       23  2    1    2    0    0 -.50312126E+02 0.12578305E+03 -.96755521E+02 0.18997684E+03 0.91525318E+02 0.0000E+00 0.0000E+00
       24  1    3    3    0    0 0.15168724E+03 -.80136952E+02 -.10255507E+04 0.10429058E+04 0.80419002E+02 0.0000E+00 0.9000E+01
      -13  1    4    4    0    0 -.10269337E+02 0.30713224E+02 -.78895569E+02 0.85283547E+02 0.10565837E+00 0.0000E+00 0.9000E+01
       13  1    4    4    0    0 -.40042790E+02 0.95069828E+02 -.17859952E+02 0.10469330E+03 0.10565837E+00 0.0000E+00 0.9000E+01
      -24  1    3    3    0    0 -.10137511E+03 -.45646099E+02 -.59832591E+03 0.61385795E+03 0.80419002E+02 0.0000E+00 0.9000E+01
#aMCatNLO 1  0  0  2  1 0.42168029D+03 0.00000000D+00  -5  7  0 0.00000000D+00 0.00000000D+00 0.00000000D+00 0.00000000D+00 0.00000000D+00
  <mgrwgt>
 0.1272099597D-02    3    2    0
 0.335363881429401D+03 0.000000000000000D+00 0.000000000000000D+00 0.335363881429401D+03
 0.335363881429401D+03 0.000000000000000D+00 0.000000000000000D+00 -.335363881429401D+03
 0.240605598110730D+03 0.151687239593810D+03 -.801369525530970D+02 -.148299993485382D+03
 0.324217166345641D+02 -.102692969725113D+02 0.307131378900988D+02 0.155319353788359D+01
 0.242439849459555D+03 -.400428295783602D+02 0.950699138990402D+02 0.219397729880141D+03
 0.155260598653952D+03 -.101375113042939D+03 -.456460992360420D+02 -.726509299326429D+02
 0.000000000000000D+00 0.000000000000000D+00 0.000000000000000D+00 0.000000000000000D+00
 0.757632901451983D+03 0.000000000000000D+00 0.000000000000000D+00 0.757632901451983D+03
 0.519104725920326D+03 0.000000000000000D+00 0.000000000000000D+00 -.519104725920326D+03
 0.309767658853912D+03 0.112940448382081D+03 -.233966565066364D+03 -.148299993485382D+03
 0.211495040570891D+02 -.140407609323423D+02 0.157399537526486D+02 0.155319353788359D+01
 0.234561538268438D+03 -.736241726834610D+02 -.382522228762246D+02 0.219397729880141D+03
 0.226790190691110D+03 -.128271845359968D+03 -.152429494216868D+03 -.726509299326429D+02
 0.484468735501761D+03 0.102996330593690D+03 0.408908328406808D+03 0.238528175531657D+03
0.166884732958D-04 0.000000000000D+00 0.000000000000D+00 0.946436375278D-06 0.000000000000D+00  7 -2 2 24 -13 13 -24 21 0 0.97006476D-02 0.27441329D+00 0.53413069D+05 0.53413069D+05 0.53413069D+05 0.11447814D+01  1  2  2  2  7  2        2 0.125005367027D-02 0.100000000000D+01
-.770881354433D-06 0.000000000000D+00 -.640881316317D-07 0.946436375278D-06 0.000000000000D+00  7 -2 2 24 -13 13 -24 21 2 0.97006476D-02 0.27441329D+00 0.53413069D+05 0.53413069D+05 0.53413069D+05 0.11447814D+01  1  2  3  2  7  2        2 -.756736619685D-04 0.100000000000D+01
0.995461387550D-06 0.000000000000D+00 0.000000000000D+00 0.946436375278D-06 0.000000000000D+00  7 -2 2 24 -13 13 -24 21 2 0.97006476D-02 0.27441329D+00 0.53413069D+05 0.53413069D+05 0.53413069D+05 0.11447814D+01  1  2 15  2  7  2        2 0.977195882491D-04 0.100000000000D+01
  </mgrwgt>
  </event>
  <event>
  7     66 0.27011060E-05 0.35704153E+03 0.75467711E-02 0.92372301E-01
       -2 -1    0    0    0  501 0.00000000E+00 0.00000000E+00 0.19454137E+03 0.19454163E+03 0.32000000E+00 0.0000E+00 0.9000E+01
        2 -1    0    0  501    0 0.00000000E+00 0.00000000E+00 -.98150078E+03 0.98150084E+03 0.32000000E+00 0.0000E+00 0.9000E+01
       23  2    1    2    0    0 0.28888321E+03 -.73317531E+02 -.63761346E+03 0.70973601E+03 0.91352727E+02 0.0000E+00 0.0000E+00
       24  1    1    2    0    0 -.27592526E+03 -.85969240E+01 -.13315205E+02 0.28784226E+03 0.80419002E+02 0.0000E+00 0.9000E+01
      -11  1    3    3    0    0 0.15581173E+03 -.84921853E+02 -.34004599E+03 0.38356263E+03 0.51099893E-03 0.0000E+00 0.9000E+01
       11  1    3    3    0    0 0.13307147E+03 0.11604322E+02 -.29756747E+03 0.32617338E+03 0.51099893E-03 0.0000E+00 0.9000E+01
      -24  1    1    2    0    0 -.12957944E+02 0.81914455E+02 -.13603075E+03 0.17846419E+03 0.80419002E+02 0.0000E+00 0.9000E+01
#aMCatNLO 1  0  0  2  1 0.40443033D+03 0.00000000D+00  -5  7  0 0.00000000D+00 0.00000000D+00 0.00000000D+00 0.00000000D+00 0.00000000D+00
  <mgrwgt>
 0.7699405368D-03    3    2    0
 0.436969897792619D+03 0.000000000000000D+00 0.000000000000000D+00 0.436969897792619D+03
 0.436969897792619D+03 0.000000000000000D+00 0.000000000000000D+00 -.436969897792619D+03
 0.375353314242142D+03 -.275925262335273D+03 -.859692324563455D+01 0.241276267117405D+03
 0.209949874574042D+03 0.155811732202745D+03 -.849218530966502D+02 -.112204869806380D+03
 0.170973138460750D+03 0.133071475002329D+03 0.116043215612777D+02 -.106719896630975D+03
 0.117663468308304D+03 -.129579448698009D+02 0.819144547810071D+02 -.223515006800491D+02
 0.000000000000000D+00 -.000000000000000D+00 0.000000000000000D+00 0.000000000000000D+00
 0.732344522815969D+03 0.000000000000000D+00 0.000000000000000D+00 0.732344522815969D+03
 0.644498508518031D+03 0.000000000000000D+00 0.000000000000000D+00 -.644498508518031D+03
 0.385294740989582D+03 -.233756387725619D+03 -.170670839932366D+03 0.241276267117405D+03
 0.287529529936481D+03 0.183391039722698D+03 -.190921513524942D+03 -.112204869806380D+03
 0.198701962739057D+03 0.153565556176383D+03 -.671636331333073D+02 -.106719896630975D+03
 0.914559352039406D+02 -.136476475910299D+01 0.373566588998391D+02 -.223515006800491D+02
 0.413860862464941D+03 -.101835443414359D+03 0.391399327690777D+03 0.878460142979373D+02
0.232649559439D-04 0.000000000000D+00 0.000000000000D+00 0.100329925446D-08 0.000000000000D+00  7 -2 2 24 -11 11 -24 21 0 0.29929466D-01 0.15100014D+00 0.12747866D+06 0.12747866D+06 0.12747866D+06 0.11131710D+01  1  2  2  2  7  2        2 0.763489431429D-03 0.100000000000D+01
-.122836678898D-05 0.000000000000D+00 -.893435566283D-07 0.100329925446D-08 0.000000000000D+00  7 -2 2 24 -11 11 -24 21 2 0.29929466D-01 0.15100014D+00 0.12747866D+06 0.12747866D+06 0.12747866D+06 0.11131710D+01  1  2  3  2  7  2        2 -.499519725500D-04 0.100000000000D+01
0.138700564101D-05 0.000000000000D+00 0.000000000000D+00 0.100329925446D-08 0.000000000000D+00  7 -2 2 24 -11 11 -24 21 2 0.29929466D-01 0.15100014D+00 0.12747866D+06 0.12747866D+06 0.12747866D+06 0.11131710D+01  1  2 15  2  7  2        2 0.564030779144D-04 0.100000000000D+01
  </mgrwgt>
  </event>
  <event>
  8     66 0.27011060E-05 0.15001057E+03 0.75467711E-02 0.99831986E-01
       -2 -1    0    0    0  501 0.00000000E+00 0.00000000E+00 0.67423427E+02 0.67424187E+02 0.32000000E+00 0.0000E+00 0.9000E+01
        2 -1    0    0  501    0 0.00000000E+00 0.00000000E+00 -.78342328E+03 0.78342335E+03 0.32000000E+00 0.0000E+00 0.9000E+01
       25  2    1    2    0    0 -.36470707E+02 -.51798811E+02 -.33577009E+03 0.45477927E+03 0.30011565E+03 0.0000E+00 0.0000E+00
       23  2    1    2    0    0 0.36470707E+02 0.51798811E+02 -.38022977E+03 0.39606827E+03 0.91006406E+02 0.0000E+00 0.0000E+00
       24  1    3    3    0    0 -.59475981E+02 0.24983657E+02 -.29651751E+01 0.10313866E+03 0.80419002E+02 0.0000E+00 0.9000E+01
      -11  1    4    4    0    0 0.45669067E+02 0.19253097E+02 -.33963035E+03 0.34322751E+03 0.51099893E-03 0.0000E+00 0.9000E+01
       11  1    4    4    0    0 -.91983594E+01 0.32545714E+02 -.40599416E+02 0.52840760E+02 0.51099893E-03 0.0000E+00 0.9000E+01
      -24  1    3    3    0    0 0.23005274E+02 -.76782468E+02 -.33280491E+03 0.35164061E+03 0.80419002E+02 0.0000E+00 0.9000E+01
#aMCatNLO 1  0  0  2  2 0.26597839D+03 0.00000000D+00  -5  7  0 0.00000000D+00 0.00000000D+00 0.00000000D+00 0.00000000D+00 0.00000000D+00
  <mgrwgt>
 0.4967921146D-03    5    2    0
 0.229829140362060D+03 0.000000000000000D+00 0.000000000000000D+00 0.229829140362060D+03
 0.229829140362060D+03 0.000000000000000D+00 0.000000000000000D+00 -.229829140362060D+03
 0.186295375441261D+03 -.594759814990609D+02 0.249836572805623D+02 0.155168216623253D+03
 0.106294169067770D+03 0.456690666566758D+02 0.192530969767183D+02 -.940324677189788D+02
 0.345697117618590D+02 -.919835938031898D+01 0.325457140951267D+02 0.715762880057229D+01
 0.132499024453230D+03 0.230052742227041D+02 -.767824683524073D+02 -.682933777048460D+02
 0.000000000000000D+00 0.000000000000000D+00 0.000000000000000D+00 -.000000000000000D+00
 0.330368223115609D+03 0.000000000000000D+00 0.000000000000000D+00 0.330368223115609D+03
 0.538316677133419D+03 0.000000000000000D+00 0.000000000000000D+00 -.538316677133419D+03
 0.227802341384779D+03 -.134522792121922D+03 -.570362493130307D+02 0.155168216623253D+03
 0.967485109393826D+02 0.887169991037163D+01 -.209633567056272D+02 -.940324677189788D+02
 0.296390307431073D+02 -.208348913951201D+02 0.198279548591786D+02 0.715762880057229D+01
 0.176875311669062D+03 -.330625481079769D+02 -.138059923214263D+03 -.682933777048460D+02
 0.337619705512698D+03 0.179548531714648D+03 0.196231574373743D+03 -.207948454017810D+03
0.192372049142D-05 0.000000000000D+00 0.000000000000D+00 0.688995676843D-06 0.000000000000D+00  7 -2 2 24 -11 11 -24 21 0 0.10372898D-01 0.12052672D+00 0.22503171D+05 0.22503171D+05 0.22503171D+05 0.11791027D+01  1  2  2  2  7  2        2 0.475234932086D-03 0.100000000000D+01
-.832220833727D-07 0.000000000000D+00 -.738759321431D-08 0.688995676843D-06 0.000000000000D+00  7 -2 2 24 -11 11 -24 21 2 0.10372898D-01 0.12052672D+00 0.22503171D+05 0.22503171D+05 0.22503171D+05 0.11791027D+01  1  2  3  2  7  2        2 -.285830260586D-04 0.100000000000D+01
0.118516364441D-06 0.000000000000D+00 0.000000000000D+00 0.688995676843D-06 0.000000000000D+00  7 -2 2 24 -11 11 -24 21 2 0.10372898D-01 0.12052672D+00 0.22503171D+05 0.22503171D+05 0.22503171D+05 0.11791027D+01  1  2 15  2  7  2        2 0.407050171768D-04 0.100000000000D+01
0.149794494251D-06 0.000000000000D+00 -.595784229143D-06 0.688995676843D-06 0.000000000000D+00  7 -2 2 24 -11 11 -24 21 2 0.10372898D-01 0.33535535D+00 0.22503171D+05 0.22503171D+05 0.22503171D+05 0.11791027D+01  1  2  5  2  7  2        2 0.886175897940D-05 0.100000000000D+01
0.507044369980D-07 0.000000000000D+00 -.683863572864D-07 0.688995676843D-06 0.000000000000D+00  7 -2 21 24 -11 11 -24 -2 2 0.10372898D-01 0.33535535D+00 0.22503171D+05 0.22503171D+05 0.22503171D+05 0.11791027D+01  1  2  5  4  7  2        2 0.573432410693D-06 0.100000000000D+01
  </mgrwgt>
  </event>
  <event>
  8     66 0.27011060E-05 0.22378368E+03 0.75467711E-02 0.99447668E-01
       -2 -1    0    0    0  501 0.00000000E+00 0.00000000E+00 0.48147783E+03 0.48147793E+03 0.32000000E+00 0.0000E+00 0.9000E+01
        2 -1    0    0  501    0 0.00000000E+00 0.00000000E+00 -.31899243E+03 0.31899259E+03 0.32000000E+00 0.0000E+00 0.9000E+01
       25  2    1    2    0    0 0.11294414E+03 -.28939628E+01 -.22131908E+03 0.38972581E+03 0.30023210E+03 0.0000E+00 0.0000E+00
       23  2    1    2    0    0 -.11294414E+03 0.28939628E+01 0.38380448E+03 0.41074472E+03 0.92954803E+02 0.0000E+00 0.0000E+00
       24  1    3    3    0    0 0.17463188E+03 0.54913756E+02 -.16921441E+03 0.26193997E+03 0.80419002E+02 0.0000E+00 0.9000E+01
      -11  1    4    4    0    0 0.80776732E+01 0.56978582E+01 0.12096550E+03 0.12136872E+03 0.51099893E-03 0.0000E+00 0.9000E+01
       11  1    4    4    0    0 -.12102182E+03 -.28038955E+01 0.26283898E+03 0.28937600E+03 0.51099893E-03 0.0000E+00 0.9000E+01
      -24  1    3    3    0    0 -.61687734E+02 -.57807719E+02 -.52104670E+02 0.12778584E+03 0.80419002E+02 0.0000E+00 0.9000E+01
#aMCatNLO 1  0  0  1  2 0.18473371D+03 0.00000000D+00  -5  7  0 0.00000000D+00 0.00000000D+00 0.00000000D+00 0.00000000D+00 0.00000000D+00
  <mgrwgt>
 0.7795807545D-03    4    2    0
 0.391902910484255D+03 0.000000000000000D+00 0.000000000000000D+00 0.391902910484255D+03
 0.391902910484255D+03 0.000000000000000D+00 0.000000000000000D+00 -.391902910484255D+03
 0.302587819099637D+03 0.174631877515049D+03 0.549137559497187D+02 -.227113097544302D+03
 0.988726451251817D+02 0.807767314796148D+01 0.569785823435312D+01 0.983772614078377D+02
 0.241041164132778D+03 -.121021816692077D+03 -.280389544999062D+01 0.208438722077592D+03
 0.141304192610914D+03 -.616877339709340D+02 -.578077187340812D+02 -.797028859411269D+02
 0.000000000000000D+00 -.000000000000000D+00 0.000000000000000D+00 -.000000000000000D+00
 0.442552130719850D+03 0.000000000000000D+00 0.000000000000000D+00 0.442552130719850D+03
 0.616404881821512D+03 0.000000000000000D+00 0.000000000000000D+00 -.616404881821512D+03
 0.322264090084066D+03 0.213935606835666D+03 -.617453277812201D+01 -.227113097544302D+03
 0.101482413741255D+03 0.206801808557317D+02 -.138897392495142D+02 0.983772614078377D+02
 0.232767897712558D+03 -.912188140242091D+02 -.491255667875840D+02 0.208438722077592D+03
 0.148766983886826D+03 -.434420043232904D+02 -.861663610316897D+02 -.797028859411269D+02
 0.253675627116656D+03 -.999549693438979D+02 0.155356199846910D+03 -.173852751101662D+03
0.407142757749D-04 0.000000000000D+00 0.000000000000D+00 0.991771216502D-06 0.000000000000D+00  7 -2 2 24 -11 11 -24 21 0 0.74073533D-01 0.49075780D-01 0.50079135D+05 0.50079135D+05 0.50079135D+05 0.11472350D+01  1  2  2  1  7  1       -2 0.868688256571D-03 0.100000000000D+01
-.139842860213D-05 0.000000000000D+00 -.156353539291D-06 0.991771216502D-06 0.000000000000D+00  7 -2 2 24 -11 11 -24 21 2 0.74073533D-01 0.49075780D-01 0.50079135D+05 0.50079135D+05 0.50079135D+05 0.11472350D+01  1  2  3  1  7  1       -2 -.392701261566D-04 0.100000000000D+01
0.243462503756D-05 0.000000000000D+00 0.000000000000D+00 0.991771216502D-06 0.000000000000D+00  7 -2 2 24 -11 11 -24 21 2 0.74073533D-01 0.49075780D-01 0.50079135D+05 0.50079135D+05 0.50079135D+05 0.11472350D+01  1  2 15  1  7  1       -2 0.683681899983D-04 0.100000000000D+01
-.420935862654D-05 0.000000000000D+00 0.000000000000D+00 0.991771216502D-06 0.000000000000D+00  7 -2 2 24 -11 11 -24 21 2 0.74073533D-01 0.49075780D-01 0.50079135D+05 0.50079135D+05 0.50079135D+05 0.11472350D+01  1  2  4  1  7  1       -2 -.118205565913D-03 0.100000000000D+01
  </mgrwgt>
  </event>
  <event>
  8     66 0.27011060E-05 0.22208255E+03 0.75467711E-02 0.93360573E-01
       -2 -1    0    0    0  501 0.00000000E+00 0.00000000E+00 0.82167062E+02 0.82167685E+02 0.32000000E+00 0.0000E+00 0.9000E+01
        2 -1    0    0  501    0 0.00000000E+00 0.00000000E+00 -.15751726E+04 0.15751726E+04 0.32000000E+00 0.0000E+00 0.9000E+01
       25  2    1    2    0    0 -.11662789E+03 0.21817104E+02 -.26003937E+03 0.41493663E+03 0.30078876E+03 0.0000E+00 0.0000E+00
       23  2    1    2    0    0 0.11662789E+03 -.21817104E+02 -.12329662E+04 0.12424037E+04 0.96349913E+02 0.0000E+00 0.0000E+00
       24  1    3    3    0    0 -.18749553E+03 -.16631372E+02 -.20010154E+03 0.28624993E+03 0.80419002E+02 0.0000E+00 0.9000E+01
      -11  1    4    4    0    0 0.11299816E+03 -.10235088E+02 -.12173468E+04 0.12226228E+04 0.51099893E-03 0.0000E+00 0.9000E+01
       11  1    4    4    0    0 0.36297271E+01 -.11582016E+02 -.15619379E+02 0.19780875E+02 0.51099893E-03 0.0000E+00 0.9000E+01
      -24  1    3    3    0    0 0.70867642E+02 0.38448476E+02 -.59937830E+02 0.12868670E+03 0.80419002E+02 0.0000E+00 0.9000E+01
#aMCatNLO 1  0  0  2  1 0.50765841D+03 0.00000000D+00  -5  7  0 0.00000000D+00 0.00000000D+00 0.00000000D+00 0.00000000D+00 0.00000000D+00
  <mgrwgt>
 0.9509138939D-03    5    2    0
 0.359760818773598D+03 0.000000000000000D+00 0.000000000000000D+00 0.359760818773598D+03
 0.359760818773598D+03 0.000000000000000D+00 0.000000000000000D+00 -.359760818773598D+03
 0.244135581540157D+03 -.187495533978718D+03 -.166313715734601D+02 0.133055584013603D+03
 0.290188053744027D+03 0.112998164929917D+03 -.102350878399480D+02 -.267087559117092D+03
 0.131529364945411D+02 0.362972708382288D+01 -.115820161763520D+02 0.506771358870185D+01
 0.172045065768472D+03 0.708676419649782D+02 0.384484755897601D+02 0.128964261514787D+03
 0.000000000000000D+00 0.000000000000000D+00 -.000000000000000D+00 -.000000000000000D+00
 0.630458785745244D+03 0.000000000000000D+00 0.000000000000000D+00 0.630458785745244D+03
 0.779096206961398D+03 0.000000000000000D+00 0.000000000000000D+00 -.779096206961398D+03
 0.407657634348613D+03 -.366820579512204D+03 0.863504771119849D+02 0.133055584013603D+03
 0.282412959849329D+03 -.445390728505257D+02 0.802345726314281D+02 -.267087559117092D+03
 0.980688622132021D+01 -.268710953490192D+01 -.795441630091399D+01 0.506771358870185D+01
 0.180706673523600D+03 -.261834168195337D+02 0.941824497302687D+02 0.128964261514787D+03
 0.528970838763779D+03 0.440230178717165D+03 -.252813083172768D+03 -.148637421216155D+03
0.143392848006D-04 0.000000000000D+00 0.000000000000D+00 0.754518871886D-07 0.000000000000D+00  7 -2 2 24 -11 11 -24 21 0 0.12641137D-01 0.24233429D+00 0.49320659D+05 0.49320659D+05 0.49320659D+05 0.11478183D+01  1  2  2  2  7  2        2 0.920462351690D-03 0.100000000000D+01
-.571237506803D-06 0.000000000000D+00 -.550666292547D-07 0.754518871886D-07 0.000000000000D+00  7 -2 2 24 -11 11 -24 21 2 0.12641137D-01 0.24233429D+00 0.49320659D+05 0.49320659D+05 0.49320659D+05 0.11478183D+01  1  2  3  2  7  2        2 -.483105040682D-04 0.100000000000D+01
0.847105477355D-06 0.000000000000D+00 0.000000000000D+00 0.754518871886D-07 0.000000000000D+00  7 -2 2 24 -11 11 -24 21 2 0.12641137D-01 0.24233429D+00 0.49320659D+05 0.49320659D+05 0.49320659D+05 0.11478183D+01  1  2 15  2  7  2        2 0.716411162128D-04 0.100000000000D+01
0.260095264836D-05 0.000000000000D+00 -.377480169591D-05 0.754518871886D-07 0.000000000000D+00  7 -2 2 24 -11 11 -24 21 2 0.12641137D-01 0.61603396D+00 0.49320659D+05 0.49320659D+05 0.49320659D+05 0.11478183D+01  1  2  5  2  7  2        2 0.709280553197D-05 0.100000000000D+01
0.498872450117D-06 0.000000000000D+00 -.388722463533D-06 0.754518871886D-07 0.000000000000D+00  7 -2 21 24 -11 11 -24 -2 2 0.12641137D-01 0.61603396D+00 0.49320659D+05 0.49320659D+05 0.49320659D+05 0.11478183D+01  1  2  5  4  7  2        2 0.281245594441D-07 0.100000000000D+01
  </mgrwgt>
  </event>
  <event>
  8     66 0.27011060E-05 0.38548534E+03 0.75467711E-02 0.90942048E-01
       -2 -1    0    0    0  501 0.00000000E+00 0.00000000E+00 0.19621456E+03 0.19621482E+03 0.32000000E+00 0.0000E+00 0.9000E+01
        2 -1    0    0  501    0 0.00000000E+00 0.00000000E+00 -.18218711E+04 0.18218711E+04 0.32000000E+00 0.0000E+00 0.9000E+01
       25  2    1    2    0    0 0.52406047E+03 -.11004561E+02 -.54511722E+03 0.81361787E+03 0.30010128E+03 0.0000E+00 0.0000E+00
       23  2    1    2    0    0 -.52406047E+03 0.11004561E+02 -.10805393E+04 0.12044680E+04 0.91747780E+02 0.0000E+00 0.0000E+00
       24  1    3    3    0    0 0.92254989E+02 -.50979033E+02 -.24989170E+03 0.28288323E+03 0.80419002E+02 0.0000E+00 0.9000E+01
      -13  1    4    4    0    0 -.10785297E+03 -.23590925E+01 -.14769609E+03 0.18289881E+03 0.10565837E+00 0.0000E+00 0.9000E+01
       13  1    4    4    0    0 -.41620750E+03 0.13363654E+02 -.93284319E+03 0.10215692E+04 0.10565837E+00 0.0000E+00 0.9000E+01
      -24  1    3    3    0    0 0.43180548E+03 0.39974472E+02 -.29522552E+03 0.53073464E+03 0.80419002E+02 0.0000E+00 0.9000E+01
#aMCatNLO 1  0  0  2  1 0.27036129D+03 0.00000000D+00  -5  7  0 0.00000000D+00 0.00000000D+00 0.00000000D+00 0.00000000D+00 0.00000000D+00
  <mgrwgt>
 0.8398888906D-03    7    2    0
 0.597894574751097D+03 0.000000000000000D+00 0.000000000000000D+00 0.597894574751097D+03
 0.597894574751097D+03 0.000000000000000D+00 0.000000000000000D+00 -.597894574751097D+03
 0.137686980505352D+03 0.922549886146546D+02 -.509790333148842D+02 -.371570166227132D+02
 0.107880097175599D+03 -.107852560232860D+03 -.235911339335260D+01 -.612537208058853D+00
 0.455876719090658D+03 -.416207908884972D+03 0.133636748037707D+02 -.185515421963244D+03
 0.494345352730584D+03 0.431805480503177D+03 0.399744719044662D+02 0.223284975794016D+03
 0.000000000000000D+00 -.000000000000000D+00 -.000000000000000D+00 -.000000000000000D+00
 0.640078349243727D+03 0.000000000000000D+00 0.000000000000000D+00 0.640078349243727D+03
 0.128748440050961D+04 0.000000000000000D+00 0.000000000000000D+00 -.128748440050961D+04
 0.134872996918976D+03 0.994213873858311D+02 -.214068491261913D+02 -.371570166227132D+02
 0.104341603851733D+03 -.102272631177130D+03 0.206664947349002D+02 -.612537208058853D+00
 0.448157007486254D+03 -.392438218820914D+03 0.111449432396502D+03 -.185515421963244D+03
 0.538600218002115D+03 0.458964639888000D+03 0.152046893406932D+03 0.223284975794016D+03
 0.701590923494260D+03 -.636751772757879D+02 -.262755971412143D+03 -.647406051265886D+03
0.805611808333D-04 0.000000000000D+00 0.000000000000D+00 0.924705594028D-05 0.000000000000D+00  7 -2 2 24 -13 13 -24 21 0 0.30186878D-01 0.28028788D+00 0.30135970D+06 0.30135970D+06 0.30135970D+06 0.10844066D+01  1  2  2  2  7  2        2 0.855756314888D-03 0.100000000000D+01
-.443594834245D-05 0.000000000000D+00 -.309376146646D-06 0.924705594028D-05 0.000000000000D+00  7 -2 2 24 -13 13 -24 21 2 0.30186878D-01 0.28028788D+00 0.30135970D+06 0.30135970D+06 0.30135970D+06 0.10844066D+01  1  2  3  2  7  2        2 -.554108829569D-04 0.100000000000D+01
0.469587132021D-05 0.000000000000D+00 0.000000000000D+00 0.924705594028D-05 0.000000000000D+00  7 -2 2 24 -13 13 -24 21 2 0.30186878D-01 0.28028788D+00 0.30135970D+06 0.30135970D+06 0.30135970D+06 0.10844066D+01  1  2 15  2  7  2        2 0.586576659641D-04 0.100000000000D+01
0.854390112546D-04 0.000000000000D+00 0.000000000000D+00 0.924705594028D-05 0.000000000000D+00  7 -2 2 24 -13 13 -24 21 2 0.30186878D-01 0.60207331D+00 0.49171531D+06 0.49171531D+06 0.49171531D+06 0.10690236D+01  1  2 12  2  7  2        2 0.469814104180D-04 0.100000000000D+01
-.122620605571D-03 0.000000000000D+00 -.203048082647D-04 0.924705594028D-05 0.000000000000D+00  7 -2 2 24 -13 13 -24 21 2 0.30186878D-01 0.60948998D+00 0.30135970D+06 0.30135970D+06 0.30135970D+06 0.10844066D+01  1  2  5  2  7  2        2 -.660787938266D-04 0.100000000000D+01
0.707033793465D-05 0.000000000000D+00 0.000000000000D+00 0.924705594028D-05 0.000000000000D+00  7 -2 21 24 -13 13 -24 -2 2 0.30186878D-01 0.60207331D+00 0.49171531D+06 0.49171531D+06 0.49171531D+06 0.10690236D+01  1  2 12  4  7  2        2 0.801580662454D-07 0.100000000000D+01
-.904141464128D-05 0.000000000000D+00 -.170831159896D-05 0.924705594028D-05 0.000000000000D+00  7 -2 21 24 -13 13 -24 -2 2 0.30186878D-01 0.60948998D+00 0.30135970D+06 0.30135970D+06 0.30135970D+06 0.10844066D+01  1  2  5  4  7  2        2 -.969819063046D-07 0.100000000000D+01
  </mgrwgt>
  </event>
  <event>
  8     66 0.27011060E-05 0.38262532E+03 0.75467711E-02 0.95852650E-01
       -2 -1    0    0    0  501 0.00000000E+00 0.00000000E+00 0.10916366E+03 0.10916413E+03 0.32000000E+00 0.0000E+00 0.9000E+01
        2 -1    0    0  501    0 0.00000000E+00 0.00000000E+00 -.15803279E+04 0.15803279E+04 0.32000000E+00 0.0000E+00 0.9000E+01
       25  2    1    2    0    0 -.21846918E+03 0.27554862E+03 -.73217815E+03 0.86610552E+03 0.30066277E+03 0.0000E+00 0.0000E+00
       23  2    1    2    0    0 0.21846918E+03 -.27554862E+03 -.73898608E+03 0.82338654E+03 0.90604253E+02 0.0000E+00 0.0000E+00
       24  1    3    3    0    0 -.84151276E+02 0.26863142E+02 -.62566313E+02 0.13485112E+03 0.80419002E+02 0.0000E+00 0.9000E+01
      -13  1    4    4    0    0 0.32745427E+02 -.33546099E+02 -.43552312E+02 0.63987646E+02 0.10565837E+00 0.0000E+00 0.9000E+01
       13  1    4    4    0    0 0.18572376E+03 -.24200252E+03 -.69543377E+03 0.75939889E+03 0.10565837E+00 0.0000E+00 0.9000E+01
      -24  1    3    3    0    0 -.13431791E+03 0.24868548E+03 -.66961184E+03 0.73125440E+03 0.80419002E+02 0.0000E+00 0.9000E+01
#aMCatNLO 1  0  0  1  1 0.12761989D+03 0.00000000D+00  -5  7  0 0.00000000D+00 0.00000000D+00 0.00000000D+00 0.00000000D+00 0.00000000D+00
  <mgrwgt>
 0.1377993803D-02    4    2    0
 0.415349012809139D+03 0.000000000000000D+00 0.000000000000000D+00 0.415349012809139D+03
 0.415349012809139D+03 0.000000000000000D+00 0.000000000000000D+00 -.415349012809139D+03
 0.163458408759246D+03 -.841512756940702D+02 0.268631421723707D+02 0.111572262822898D+03
 0.530080968603406D+02 0.327452189286375D+02 -.335458152372452D+02 0.247444387719636D+02
 0.312871090476429D+03 0.185723964000697D+03 -.242002805737635D+03 -.694951111006361D+02
 0.301360429522264D+03 -.134317907235264D+03 0.248685478802510D+03 -.668215904942255D+02
 0.000000000000000D+00 -.000000000000000D+00 0.000000000000000D+00 -.000000000000000D+00
 0.449396905781494D+03 0.000000000000000D+00 0.000000000000000D+00 0.449396905781494D+03
 0.559783904777617D+03 0.000000000000000D+00 0.000000000000000D+00 -.559783904777617D+03
 0.151857102249870D+03 -.619391177374100D+02 0.175652899733077D+02 0.111572262822898D+03
 0.602604525141889D+02 0.407243345204362D+02 -.368858165822986D+02 0.247444387719636D+02
 0.357217436211788D+03 0.232927833395229D+03 -.261762011561337D+03 -.694951111006361D+02
 0.271108966574078D+03 -.939907421974549D+02 0.231804812778958D+03 -.668215904942255D+02
 0.168736853009186D+03 -.117722307980800D+03 0.492777253913706D+02 -.110386998996123D+03
0.405670584815D-04 0.000000000000D+00 0.000000000000D+00 0.145005347288D-05 0.000000000000D+00  7 -2 2 24 -13 13 -24 21 0 0.16794448D-01 0.24312741D+00 0.14640214D+06 0.14640214D+06 0.14640214D+06 0.11083849D+01  1  2  2  1  7  1       -2 0.161174075483D-02 0.100000000000D+01
-.223527206805D-05 0.000000000000D+00 -.155788186121D-06 0.145005347288D-05 0.000000000000D+00  7 -2 2 24 -13 13 -24 21 2 0.16794448D-01 0.24312741D+00 0.14640214D+06 0.14640214D+06 0.14640214D+06 0.11083849D+01  1  2  3  1  7  1       -2 -.109102141694D-03 0.100000000000D+01
0.245506612462D-05 0.000000000000D+00 0.000000000000D+00 0.145005347288D-05 0.000000000000D+00  7 -2 2 24 -13 13 -24 21 2 0.16794448D-01 0.24312741D+00 0.14640214D+06 0.14640214D+06 0.14640214D+06 0.11083849D+01  1  2 15  1  7  1       -2 0.119830143285D-03 0.100000000000D+01
-.500877458944D-05 0.000000000000D+00 0.000000000000D+00 0.145005347288D-05 0.000000000000D+00  7 -2 2 24 -13 13 -24 21 2 0.16794448D-01 0.24312741D+00 0.14640214D+06 0.14640214D+06 0.14640214D+06 0.11083849D+01  1  2  4  1  7  1       -2 -.244474953532D-03 0.100000000000D+01
  </mgrwgt>
  </event>
  <event>
  8     66 0.27011060E-05 0.21828665E+03 0.75467711E-02 0.95652605E-01
       -2 -1    0    0    0  501 0.00000000E+00 0.00000000E+00 0.83230031E+02 0.83230646E+02 0.32000000E+00 0.0000E+00 0.9000E+01
        2 -1    0    0  501    0 0.00000000E+00 0.00000000E+00 -.87610779E+03 0.87610785E+03 0.32000000E+00 0.0000E+00 0.9000E+01
       25  2    1    2    0    0 -.66690561E+02 -.89269932E+02 -.74028443E+03 0.80585229E+03 0.29826182E+03 0.0000E+00 0.0000E+00
       23  2    1    2    0    0 0.66690561E+02 0.89269932E+02 -.52593323E+02 0.15348620E+03 0.91516150E+02 0.0000E+00 0.0000E+00
       24  1    3    3    0    0 -.15407688E+03 -.47577473E+02 -.54030163E+03 0.56955804E+03 0.80419002E+02 0.0000E+00 0.9000E+01
      -11  1    4    4    0    0 -.38263562E+01 -.88732742E+01 -.28718252E+02 0.30300396E+02 0.51099893E-03 0.0000E+00 0.9000E+01
       11  1    4    4    0    0 0.70516917E+02 0.98143206E+02 -.23875071E+02 0.12318581E+03 0.51099893E-03 0.0000E+00 0.9000E+01
      -24  1    3    3    0    0 0.87386322E+02 -.41692459E+02 -.19998281E+03 0.23629424E+03 0.80419002E+02 0.0000E+00 0.9000E+01
#aMCatNLO 1  0  0  2  1 0.38893611D+03 0.00000000D+00  -5  7  0 0.00000000D+00 0.00000000D+00 0.00000000D+00 0.00000000D+00 0.00000000D+00
  <mgrwgt>
 0.1497206746D-02    3    2    0
 0.270034815169555D+03 0.000000000000000D+00 0.000000000000000D+00 0.270034815169555D+03
 0.270034815169555D+03 0.000000000000000D+00 0.000000000000000D+00 -.270034815169555D+03
 0.218501109716251D+03 -.154076883218862D+03 -.475774729392619D+02 -.123580812099362D+03
 0.116619645987826D+02 -.382635618951495D+01 -.887327424295231D+01 -.652881465685610D+01
 0.183766813935315D+03 0.705169171645219D+02 0.981432062099500D+02 0.138439580223215D+03
 0.126139742088761D+03 0.873863222438547D+02 -.416924590277358D+02 -.832995346699727D+01
 0.000000000000000D+00 0.000000000000000D+00 0.000000000000000D+00 0.000000000000000D+00
 0.170538441277724D+04 0.000000000000000D+00 0.000000000000000D+00 0.170538441277724D+04
 0.360322829608180D+03 0.000000000000000D+00 0.000000000000000D+00 -.360322829608180D+03
 0.349474658353357D+03 -.235905468784269D+03 -.211522371288149D+03 -.123580812099362D+03
 0.213195028021631D+02 -.857801458589962D+01 -.183932989067202D+02 -.652881465685610D+01
 0.140542476077305D+03 0.237934969424783D+02 0.453207599320660D+01 0.138439580223215D+03
 0.154205627886443D+03 0.469968084925034D+02 -.122613504901533D+03 -.832995346699727D+01
 0.140016497726615D+04 0.173693177935187D+03 0.347997099103196D+03 0.134506158316906D+04
0.950864081999D-05 0.000000000000D+00 0.000000000000D+00 0.121841034812D-06 0.000000000000D+00  7 -2 2 24 -11 11 -24 21 0 0.12804672D-01 0.13478587D+00 0.47649063D+05 0.47649063D+05 0.47649063D+05 0.11491397D+01  1  2  2  2  7  2        2 0.148586849722D-02 0.100000000000D+01
-.499188629945D-06 0.000000000000D+00 -.365156844314D-07 0.121841034812D-06 0.000000000000D+00  7 -2 2 24 -11 11 -24 21 2 0.12804672D-01 0.13478587D+00 0.47649063D+05 0.47649063D+05 0.47649063D+05 0.11491397D+01  1  2  3  2  7  2        2 -.103008308241D-03 0.100000000000D+01
0.554134925277D-06 0.000000000000D+00 0.000000000000D+00 0.121841034812D-06 0.000000000000D+00  7 -2 2 24 -11 11 -24 21 2 0.12804672D-01 0.13478587D+00 0.47649063D+05 0.47649063D+05 0.47649063D+05 0.11491397D+01  1  2 15  2  7  2        2 0.114346557125D-03 0.100000000000D+01
  </mgrwgt>
  </event>
  <event>
  8     66 0.27011060E-05 0.22355132E+03 0.75467711E-02 0.97053450E-01
       -2 -1    0    0    0  501 0.00000000E+00 0.00000000E+00 0.57781672E+02 0.57782558E+02 0.32000000E+00 0.0000E+00 0.9000E+01
        2 -1    0    0  501    0 0.00000000E+00 0.00000000E+00 -.13548215E+04 0.13548215E+04 0.32000000E+00 0.0000E+00 0.9000E+01
       25  2    1    2    0    0 0.14918383E+03 -.72641391E+02 -.61086194E+03 0.70139492E+03 0.30210914E+03 0.0000E+00 0.0000E+00
       23  2    1    2    0    0 -.14918383E+03 0.72641391E+02 -.68617787E+03 0.71120916E+03 0.86289128E+02 0.0000E+00 0.0000E+00
       24  1    3    3    0    0 0.14371279E+03 -.63702946E+01 -.56293668E+03 0.58656532E+03 0.80419002E+02 0.0000E+00 0.9000E+01
      -13  1    4    4    0    0 0.55532203E+01 0.91200164E+01 -.12962449E+03 0.13006357E+03 0.10565837E+00 0.0000E+00 0.9000E+01
       13  1    4    4    0    0 -.15473705E+03 0.63521375E+02 -.55655338E+03 0.58114559E+03 0.10565837E+00 0.0000E+00 0.9000E+01
      -24  1    3    3    0    0 0.54710395E+01 -.66271096E+02 -.47925257E+02 0.11482960E+03 0.80419002E+02 0.0000E+00 0.9000E+01
#aMCatNLO 1  0  0  1  1 0.28874224D+03 0.00000000D+00  -5  7  0 0.00000000D+00 0.00000000D+00 0.00000000D+00 0.00000000D+00 0.00000000D+00
  <mgrwgt>
 0.1666021790D-02    3    2    0
 0.279793678675764D+03 0.000000000000000D+00 0.000000000000000D+00 0.279793678675764D+03
 0.279793678675764D+03 0.000000000000000D+00 0.000000000000000D+00 -.279793678675764D+03
 0.175903315830277D+03 0.143712792819675D+03 -.637029522747107D+01 -.614883166495847D+02
 0.278778293928413D+02 0.555345720007941D+01 0.911993507753455D+01 -.257518789404736D+02
 0.177017695095208D+03 -.154737290721597D+03 0.635214571444850D+02 -.579366871610829D+02
 0.178788517033201D+03 0.547104070184280D+01 -.662710969945485D+02 0.145176882751141D+03
 0.000000000000000D+00 -.000000000000000D+00 -.000000000000000D+00 -.000000000000000D+00
 0.375161483598492D+03 0.000000000000000D+00 0.000000000000000D+00 0.375161483598492D+03
 0.660407522883126D+03 0.000000000000000D+00 0.000000000000000D+00 -.660407522883126D+03
 0.232742531898531D+03 0.194065983645222D+03 0.791166929767716D+02 -.614883166495847D+02
 0.368792935682402D+02 0.135328060369644D+02 0.226668521390496D+02 -.257518789404736D+02
 0.186913462160437D+03 -.109893827584742D+03 0.139654320650580D+03 -.579366871610829D+02
 0.173155185244514D+03 0.488374140520988D+02 0.735404147777277D+01 0.145176882751141D+03
 0.405878533609896D+03 -.146542376149543D+03 -.248791907244174D+03 -.285246039284635D+03
0.113076765715D-04 0.000000000000D+00 0.000000000000D+00 0.451511556212D-08 0.000000000000D+00  7 -2 2 24 -13 13 -24 21 0 0.88895590D-02 0.20843415D+00 0.49975194D+05 0.49975194D+05 0.49975194D+05 0.11473143D+01  1  2  2  1  7  1       -2 0.163570458313D-02 0.100000000000D+01
-.589738664382D-06 0.000000000000D+00 -.434244554143D-07 0.451511556212D-08 0.000000000000D+00  7 -2 2 24 -13 13 -24 21 2 0.88895590D-02 0.20843415D+00 0.49975194D+05 0.49975194D+05 0.49975194D+05 0.11473143D+01  1  2  3  1  7  1       -2 -.112293842226D-03 0.100000000000D+01
0.748956912594D-06 0.000000000000D+00 0.000000000000D+00 0.451511556212D-08 0.000000000000D+00  7 -2 2 24 -13 13 -24 21 2 0.88895590D-02 0.20843415D+00 0.49975194D+05 0.49975194D+05 0.49975194D+05 0.11473143D+01  1  2 15  1  7  1       -2 0.142611048684D-03 0.100000000000D+01
  </mgrwgt>
  </event>
  <event>
  9     66 0.27011060E-05 0.50502976E+03 0.75467711E-02 0.93814243E-01
       -2 -1    0    0    0  501 0.00000000E+00 0.00000000E+00 0.50187702E+03 0.50187712E+03 0.32000000E+00 0.0000E+00 0.9000E+01
        2 -1    0    0  502    0 0.00000000E+00 0.00000000E+00 -.75364170E+03 0.75364177E+03 0.32000000E+00 0.0000E+00 0.9000E+01
       25  2    1    2    0    0 0.45714443E+03 -.49157341E+02 -.40343173E+03 0.68125987E+03 0.29993395E+03 0.0000E+00 0.0000E+00
       23  2    1    2    0    0 -.46709350E+03 0.11129320E+03 0.14965502E+03 0.51129506E+03 0.91997269E+02 0.0000E+00 0.0000E+00
       24  1    3    3    0    0 0.19469240E+02 -.11988870E+02 -.13923218E+03 0.16240566E+03 0.80419002E+02 0.0000E+00 0.9000E+01
      -13  1    4    4    0    0 -.38974413E+03 0.10760874E+03 0.91760194E+02 0.41460834E+03 0.10565837E+00 0.0000E+00 0.9000E+01
       13  1    4    4    0    0 -.77349373E+02 0.36844577E+01 0.57894824E+02 0.96686724E+02 0.10565837E+00 0.0000E+00 0.9000E+01
      -24  1    3    3    0    0 0.43767519E+03 -.37168471E+02 -.26419956E+03 0.51885421E+03 0.80419002E+02 0.0000E+00 0.9000E+01
       21  1    1    2  502  501 0.99490757E+01 -.62135862E+02 0.20120279E+01 0.62963959E+02 0.75000000E+00 0.0000E+00 0.9000E+01
#aMCatNLO 2  0  0  2  1 0.62927334D+02 0.00000000D+00  -5  7  0 0.00000000D+00 0.00000000D+00 0.00000000D+00 0.00000000D+00 0.00000000D+00
  <mgrwgt>
 0.1008230620D-02    1    2    0
 0.581769883710035D+03 0.000000000000000D+00 0.000000000000000D+00 0.581769883710035D+03
 0.581769883710035D+03 0.000000000000000D+00 0.000000000000000D+00 -.581769883710035D+03
 0.136894700928218D+03 0.206346351591245D+02 -.192672195937197D+02 -.107125763795797D+03
 0.435882274818550D+03 -.385984152645196D+03 0.841237786379714D+02 0.184208526608932D+03
 0.110866512981531D+03 -.763986972263194D+02 -.225044510436665D+01 0.803091418185843D+02
 0.479896278691771D+03 0.441748214712391D+03 -.626061139398850D+02 -.157391904631719D+03
 0.000000000000000D+00 0.000000000000000D+00 -.000000000000000D+00 0.000000000000000D+00
 0.622942968642459D+03 0.000000000000000D+00 0.000000000000000D+00 0.622942968642459D+03
 0.607170961985632D+03 0.000000000000000D+00 0.000000000000000D+00 -.607170961985632D+03
 0.135889401762051D+03 0.194692396417563D+02 -.119888696638402D+02 -.107125763795797D+03
 0.444312121418529D+03 -.389744542615399D+03 0.107608881908108D+03 0.184208526608932D+03
 0.111561616096172D+03 -.773489606104657D+02 0.368432067453994D+01 0.803091418185843D+02
 0.473477024711760D+03 0.437675187863658D+03 -.371684713223642D+02 -.157391904631719D+03
 0.648737666395798D+02 0.994907572045077D+01 -.621358615964436D+02 0.157720066568273D+02
0.121233940957D-03 0.000000000000D+00 0.000000000000D+00 0.641384163468D-05 0.102105162099D-07  7 -2 2 24 -13 13 -24 21 2 0.77211589D-01 0.11594448D+00 0.28882507D+06 0.28882507D+06 0.28882507D+06 0.10857737D+01  1  2  1  2  7  2        2 0.100823061966D-02 0.100000000000D+01
  </mgrwgt>
  </event>
  <event>
  8     66 0.27011060E-05 0.26160159E+03 0.75467711E-02 0.95768500E-01
       -2 -1    0    0    0  501 0.00000000E+00 0.00000000E+00 0.73654396E+02 0.73655091E+02 0.32000000E+00 0.0000E+00 0.9000E+01
        2 -1    0    0  501    0 0.00000000E+00 0.00000000E+00 -.14319511E+04 0.14319512E+04 0.32000000E+00 0.0000E+00 0.9000E+01
       25  2    1    2    0    0 -.12095496E+02 0.17190203E+03 -.12158131E+04 0.12639482E+04 0.29944447E+03 0.0000E+00 0.0000E+00
       23  2    1    2    0    0 0.12095496E+02 -.17190203E+03 -.14248362E+03 0.24165803E+03 0.91653753E+02 0.0000E+00 0.0000E+00
       24  1    3    3    0    0 -.83029813E+02 0.20164887E+03 -.75999617E+03 0.79474374E+03 0.80419002E+02 0.0000E+00 0.9000E+01
      -11  1    4    4    0    0 0.13700727E+02 -.85888121E+01 0.93357095E+01 0.18671719E+02 0.51099893E-03 0.0000E+00 0.9000E+01
       11  1    4    4    0    0 -.16052310E+01 -.16331322E+03 -.15181933E+03 0.22298631E+03 0.51099893E-03 0.0000E+00 0.9000E+01
      -24  1    3    3    0    0 0.70934317E+02 -.29746839E+02 -.45581694E+03 0.46920448E+03 0.80419002E+02 0.0000E+00 0.9000E+01
#aMCatNLO 1  0  0  2  1 0.29551320D+03 0.00000000D+00  -5  7  0 0.00000000D+00 0.00000000D+00 0.00000000D+00 0.00000000D+00 0.00000000D+00
  <mgrwgt>
 0.1088738537D-02    3    2    0
 0.324761521667657D+03 0.000000000000000D+00 0.000000000000000D+00 0.324761521667657D+03
 0.324761521667657D+03 0.000000000000000D+00 0.000000000000000D+00 -.324761521667657D+03
 0.252909937471129D+03 -.830298129265892D+02 0.201648873370205D+03 -.996995614392667D+02
 0.628044237104012D+02 0.137007270351274D+02 -.858881211688104D+01 0.606870498766042D+02
 0.199398438964812D+03 -.160523102572530D+01 -.163313221868056D+03 0.114393847116149D+03
 0.134410243188973D+03 0.709343169171872D+02 -.297468393852682D+02 -.753813355534868D+02
 0.000000000000000D+00 0.000000000000000D+00 0.000000000000000D+00 0.000000000000000D+00
 0.597300852220894D+03 0.000000000000000D+00 0.000000000000000D+00 0.597300852220894D+03
 0.447569206130948D+03 0.000000000000000D+00 0.000000000000000D+00 -.447569206130948D+03
 0.194281970087333D+03 -.100253219768838D+03 0.106242916570677D+03 -.996995614392667D+02
 0.717371779234617D+02 0.851891425412385D+01 -.372925297295295D+02 0.606870498766042D+02
 0.292316294136855D+03 -.205434156292350D+02 -.268217880899384D+03 0.114393847116149D+03
 0.155252838473176D+03 0.597780660586126D+02 -.915448795295085D+02 -.753813355534868D+02
 0.331281777731016D+03 0.524996550853365D+02 0.290812373587745D+03 0.149731646089946D+03
0.118732610692D-04 0.000000000000D+00 0.000000000000D+00 0.831497431359D-06 0.000000000000D+00  7 -2 2 24 -11 11 -24 21 0 0.11331502D-01 0.22030023D+00 0.68435391D+05 0.68435391D+05 0.68435391D+05 0.11354951D+01  1  2  2  2  7  2        2 0.107279673534D-02 0.100000000000D+01
-.622114037685D-06 0.000000000000D+00 -.455964488073D-07 0.831497431359D-06 0.000000000000D+00  7 -2 2 24 -11 11 -24 21 2 0.11331502D-01 0.22030023D+00 0.68435391D+05 0.68435391D+05 0.68435391D+05 0.11354951D+01  1  2  3  2  7  2        2 -.724749595820D-04 0.100000000000D+01
0.758956040555D-06 0.000000000000D+00 0.000000000000D+00 0.831497431359D-06 0.000000000000D+00  7 -2 2 24 -11 11 -24 21 2 0.11331502D-01 0.22030023D+00 0.68435391D+05 0.68435391D+05 0.68435391D+05 0.11354951D+01  1  2 15  2  7  2        2 0.884167612878D-04 0.100000000000D+01
  </mgrwgt>
  </event>
  <event>
  8     66 0.27011060E-05 0.57263845E+03 0.75467711E-02 0.86091398E-01
       -2 -1    0    0    0  501 0.00000000E+00 0.00000000E+00 0.71331056E+03 0.71331063E+03 0.32000000E+00 0.0000E+00 0.9000E+01
        2 -1    0    0  501    0 0.00000000E+00 0.00000000E+00 -.63782525E+03 0.63782533E+03 0.32000000E+00 0.0000E+00 0.9000E+01
       25  2    1    2    0    0 -.46397437E+03 -.25855993E+03 0.39320067E+03 0.72551786E+03 0.29940598E+03 0.0000E+00 0.0000E+00
       23  2    1    2    0    0 0.46397437E+03 0.25855993E+03 -.31771536E+03 0.62561810E+03 0.91266156E+02 0.0000E+00 0.0000E+00
       24  1    3    3    0    0 -.15858596E+03 -.23256964E+03 0.18203574E+03 0.34473522E+03 0.80419002E+02 0.0000E+00 0.9000E+01
      -11  1    4    4    0    0 0.18024019E+03 0.62489005E+02 -.14674322E+03 0.24067608E+03 0.51099893E-03 0.0000E+00 0.9000E+01
       11  1    4    4    0    0 0.28373417E+03 0.19607092E+03 -.17097214E+03 0.38494202E+03 0.51099893E-03 0.0000E+00 0.9000E+01
      -24  1    3    3    0    0 -.30538841E+03 -.25990291E+02 0.21116493E+03 0.38078264E+03 0.80419002E+02 0.0000E+00 0.9000E+01
#aMCatNLO 1  0  0  1  2 0.86163709D+03 0.00000000D+00  -5  7  0 0.00000000D+00 0.00000000D+00 0.00000000D+00 0.00000000D+00 0.00000000D+00
  <mgrwgt>
 0.7150888434D-03    5    2    0
 0.674512851767678D+03 0.000000000000000D+00 0.000000000000000D+00 0.674512851767678D+03
 0.674512851767678D+03 0.000000000000000D+00 0.000000000000000D+00 -.674512851767678D+03
 0.335088590989420D+03 -.158585955343786D+03 -.232569636988774D+03 0.163030692127319D+03
 0.249263645990308D+03 0.180240194706854D+03 0.624890047474663D+02 -.160439900617297D+03
 0.395110998586426D+03 0.283734171556693D+03 0.196070923171975D+03 -.192779185031707D+03
 0.369562467969202D+03 -.305388410919761D+03 -.259902909306673D+02 0.190188393521685D+03
 0.000000000000000D+00 0.000000000000000D+00 -.000000000000000D+00 0.000000000000000D+00
 0.127700666643854D+04 0.000000000000000D+00 0.000000000000000D+00 0.127700666643854D+04
 0.118975221003251D+04 0.000000000000000D+00 0.000000000000000D+00 -.118975221003251D+04
 0.313531603582665D+03 -.247039299041940D+03 -.650186791937622D+02 0.163030692127319D+03
 0.277319802826515D+03 0.108429191636432D+03 0.198515545312499D+03 -.160439900617297D+03
 0.494969088360002D+03 0.162352567178038D+03 0.425995572959560D+03 -.192779185031707D+03
 0.514894605237422D+03 -.426003196178215D+03 0.202481827243374D+03 0.190188393521685D+03
 0.866043776464449D+03 0.402260736405686D+03 -.761974266321670D+03 0.872544564060290D+02
0.185019671667D-03 0.000000000000D+00 0.000000000000D+00 0.365779095487D-05 0.000000000000D+00  7 -2 2 24 -11 11 -24 21 0 0.10974010D+00 0.98126973D-01 0.32791480D+06 0.32791480D+06 0.32791480D+06 0.10817047D+01  1  2  2  1  7  1       -2 0.696328714936D-03 0.100000000000D+01
-.994381556518D-05 0.000000000000D+00 -.710524256000D-06 0.365779095487D-05 0.000000000000D+00  7 -2 2 24 -11 11 -24 21 2 0.10974010D+00 0.98126973D-01 0.32791480D+06 0.32791480D+06 0.32791480D+06 0.10817047D+01  1  2  3  1  7  1       -2 -.437891841624D-04 0.100000000000D+01
0.117359415884D-04 0.000000000000D+00 0.000000000000D+00 0.365779095487D-05 0.000000000000D+00  7 -2 2 24 -11 11 -24 21 2 0.10974010D+00 0.98126973D-01 0.32791480D+06 0.32791480D+06 0.32791480D+06 0.10817047D+01  1  2 15  1  7  1       -2 0.516810980820D-04 0.100000000000D+01
0.198197229805D-04 0.000000000000D+00 -.512873426544D-04 0.365779095487D-05 0.000000000000D+00  7 -2 2 24 -11 11 -24 21 2 0.29846728D+00 0.98126973D-01 0.32791480D+06 0.32791480D+06 0.32791480D+06 0.10817047D+01  1  2  5  1  7  1       -2 0.377598102780D-05 0.100000000000D+01
0.517755225409D-05 0.000000000000D+00 -.573165097228D-05 0.365779095487D-05 0.000000000000D+00  7 21 2 24 -11 11 -24 2 2 0.29846728D+00 0.98126973D-01 0.32791480D+06 0.32791480D+06 0.32791480D+06 0.10817047D+01  1  2  5  3  7  1       -2 0.709223356086D-05 0.100000000000D+01
  </mgrwgt>
  </event>
  <event>
  8     66 0.27011060E-05 0.83631426E+02 0.75467711E-02 0.10456788E+00
       -2 -1    0    0    0  501 0.00000000E+00 0.00000000E+00 0.34107669E+03 0.34107684E+03 0.32000000E+00 0.0000E+00 0.9000E+01
        2 -1    0    0  501    0 0.00000000E+00 0.00000000E+00 -.17910771E+03 0.17910800E+03 0.32000000E+00 0.0000E+00 0.9000E+01
       25  2    1    2    0    0 0.51671321E+02 -.95138297E+02 0.22128416E+02 0.32067736E+03 0.30103667E+03 0.0000E+00 0.0000E+00
       23  2    1    2    0    0 -.51671321E+02 0.95138297E+02 0.13984056E+03 0.19950748E+03 0.92339759E+02 0.0000E+00 0.0000E+00
       24  1    3    3    0    0 -.40987946E+02 -.70001476E+02 -.95478639E+02 0.14887446E+03 0.80419002E+02 0.0000E+00 0.9000E+01
      -11  1    4    4    0    0 0.20806215E+02 0.19405237E+02 0.52833266E+01 0.28937438E+02 0.51099893E-03 0.0000E+00 0.9000E+01
       11  1    4    4    0    0 -.72477536E+02 0.75733060E+02 0.13455724E+03 0.17057004E+03 0.51099893E-03 0.0000E+00 0.9000E+01
      -24  1    3    3    0    0 0.92659267E+02 -.25136821E+02 0.11760706E+03 0.17180290E+03 0.80419002E+02 0.0000E+00 0.9000E+01
#aMCatNLO 1  0  0  1  2 0.73870798D+02 0.00000000D+00  -5  7  0 0.00000000D+00 0.00000000D+00 0.00000000D+00 0.00000000D+00 0.00000000D+00
  <mgrwgt>
 0.4496840962D-03    9    2    0
 0.247163061036337D+03 0.000000000000000D+00 0.000000000000000D+00 0.247163061036337D+03
 0.247163061036337D+03 0.000000000000000D+00 0.000000000000000D+00 -.247163061036337D+03
 0.187946399106565D+03 -.409879461220531D+02 -.700014762134643D+02 -.149252854523407D+03
 0.287200718077501D+02 0.208062149683635D+02 0.194052370555258D+02 -.392182586959421D+01
 0.135404238002662D+03 -.724775361310046D+02 0.757330603579615D+02 0.857077475744050D+02
 0.142255413155696D+03 0.926592672846942D+02 -.251368212000229D+02 0.674669328185958D+02
 0.000000000000000D+00 -.000000000000000D+00 0.000000000000000D+00 0.000000000000000D+00
 0.331026160638956D+03 0.000000000000000D+00 0.000000000000000D+00 0.331026160638956D+03
 0.266725236899209D+03 0.000000000000000D+00 0.000000000000000D+00 -.266725236899209D+03
 0.194942405013108D+03 -.243610717533878D+02 -.930883930335324D+02 -.149252854523407D+03
 0.285028926939601D+02 0.232911114488445D+02 0.159548833041641D+02 -.392182586959421D+01
 0.121394579178340D+03 -.613260957510559D+02 0.602489488666873D+02 0.857077475744050D+02
 0.154975298695424D+03 0.105566455092967D+03 -.430588409797699D+02 0.674669328185958D+02
 0.979362219573318D+02 -.431703990373676D+02 0.599434018424509D+02 0.643009237397463D+02
0.477807796355D-05 0.000000000000D+00 0.000000000000D+00 0.904683092681D-07 0.000000000000D+00  7 -2 2 24 -11 11 -24 21 0 0.52473370D-01 0.27555066D-01 0.34734045D+05 0.34734045D+05 0.34734045D+05 0.11614775D+01  1  2  2  1  7  1       -2 0.391380182190D-03 0.100000000000D+01
-.239726095373D-06 0.000000000000D+00 -.183490774769D-07 0.904683092681D-07 0.000000000000D+00  7 -2 2 24 -11 11 -24 21 2 0.52473370D-01 0.27555066D-01 0.34734045D+05 0.34734045D+05 0.34734045D+05 0.11614775D+01  1  2  3  1  7  1       -2 -.264900331655D-04 0.100000000000D+01
0.281392299669D-06 0.000000000000D+00 0.000000000000D+00 0.904683092681D-07 0.000000000000D+00  7 -2 2 24 -11 11 -24 21 2 0.52473370D-01 0.27555066D-01 0.34734045D+05 0.34734045D+05 0.34734045D+05 0.11614775D+01  1  2 15  1  7  1       -2 0.310942008176D-04 0.100000000000D+01
0.433778533005D-05 0.000000000000D+00 0.000000000000D+00 0.904683092681D-07 0.000000000000D+00  7 -2 2 24 -11 11 -24 21 2 0.71819838D-01 0.27555066D-01 0.51301203D+05 0.51301203D+05 0.51301203D+05 0.11463153D+01  1  2 12  1  7  1       -2 0.245499456329D-03 0.100000000000D+01
-.531894497047D-05 0.000000000000D+00 0.000000000000D+00 0.904683092681D-07 0.000000000000D+00  7 -2 2 24 -11 11 -24 21 2 0.52473370D-01 0.27555066D-01 0.34734045D+05 0.34734045D+05 0.34734045D+05 0.11614775D+01  1  2  4  1  7  1       -2 -.587750067234D-03 0.100000000000D+01
-.669102800263D-05 0.000000000000D+00 -.207827055082D-05 0.904683092681D-07 0.000000000000D+00  7 -2 2 24 -11 11 -24 21 2 0.74428196D-01 0.27555066D-01 0.34734045D+05 0.34734045D+05 0.34734045D+05 0.11614775D+01  1  2  5  1  7  1       -2 -.360764553040D-03 0.100000000000D+01
0.710009435730D-05 0.000000000000D+00 0.195747531018D-05 0.904683092681D-07 0.000000000000D+00  7 -2 2 24 -11 11 -24 21 2 0.52473370D-01 0.27555066D-01 0.34734045D+05 0.34734045D+05 0.34734045D+05 0.11614775D+01  1  2  6  1  7  1       -2 0.784569300686D-03 0.100000000000D+01
0.173231175965D-06 0.000000000000D+00 0.000000000000D+00 0.904683092681D-07 0.000000000000D+00  7 21 2 24 -11 11 -24 2 2 0.71819838D-01 0.27555066D-01 0.51301203D+05 0.51301203D+05 0.51301203D+05 0.11463153D+01  1  2 12  3  7  1       -2 0.101268720407D-03 0.100000000000D+01
-.230103874871D-06 0.000000000000D+00 -.896914093348D-07 0.904683092681D-07 0.000000000000D+00  7 21 2 24 -11 11 -24 2 2 0.74428196D-01 0.27555066D-01 0.34734045D+05 0.34734045D+05 0.34734045D+05 0.11614775D+01  1  2  5  3  7  1       -2 -.129123110745D-03 0.100000000000D+01
  </mgrwgt>
  </event>
  <event>
  8     66 0.27011060E-05 0.26705287E+03 0.75467711E-02 0.91323301E-01
       -2 -1    0    0    0  501 0.00000000E+00 0.00000000E+00 0.90090014E+03 0.90090020E+03 0.32000000E+00 0.0000E+00 0.9000E+01
        2 -1    0    0  501    0 0.00000000E+00 0.00000000E+00 -.28681119E+04 0.28681119E+04 0.32000000E+00 0.0000E+00 0.9000E+01
       25  2    1    2    0    0 0.16450470E+03 -.11730379E+03 -.28429316E+04 0.28657639E+04 0.29919978E+03 0.0000E+00 0.0000E+00
       23  2    1    2    0    0 -.16450470E+03 0.11730379E+03 0.87571983E+03 0.90324826E+03 0.90278590E+02 0.0000E+00 0.0000E+00
       24  1    3    3    0    0 -.23460179E+02 0.14733504E+02 -.31967246E+03 0.33079473E+03 0.80419002E+02 0.0000E+00 0.9000E+01
      -11  1    4    4    0    0 -.18508401E+01 0.11470541E+02 0.19672277E+03 0.19706559E+03 0.51099893E-03 0.0000E+00 0.9000E+01
       11  1    4    4    0    0 -.16265386E+03 0.10583325E+03 0.67899706E+03 0.70618267E+03 0.51099893E-03 0.0000E+00 0.9000E+01
      -24  1    3    3    0    0 0.18796488E+03 -.13203730E+03 -.25232591E+04 0.25349691E+04 0.80419002E+02 0.0000E+00 0.9000E+01
#aMCatNLO 1  0  0  1  1 0.63709538D+03 0.00000000D+00  -5  7  0 0.00000000D+00 0.00000000D+00 0.00000000D+00 0.00000000D+00 0.00000000D+00
  <mgrwgt>
 0.1187094013D-02    4    2    0
 0.160744597429384D+04 0.000000000000000D+00 0.000000000000000D+00 0.160744597429384D+04
 0.160744597429384D+04 0.000000000000000D+00 0.000000000000000D+00 -.160744597429384D+04
 0.192201148139657D+03 -.234601785043356D+02 0.147335041347878D+02 -.172356053773248D+03
 0.351407748215966D+03 -.185084009950162D+01 0.114705406689278D+02 0.351215612685291D+03
 0.124338301276342D+04 -.162653862322113D+03 0.105833253888240D+03 0.122814671756748D+04
 0.142790003946863D+04 0.187964880925950D+03 -.132037298691955D+03 -.140700627647952D+04
 0.000000000000000D+00 -.000000000000000D+00 0.000000000000000D+00 -.000000000000000D+00
 0.173577619459513D+04 0.000000000000000D+00 0.000000000000000D+00 0.173577619459513D+04
 0.268405133736734D+04 0.000000000000000D+00 0.000000000000000D+00 -.268405133736734D+04
 0.190448908939395D+03 0.836925802183028D+01 -.518817980725484D+01 -.172356053773248D+03
 0.356724548839907D+03 0.570527235725441D+02 -.253965329146659D+02 0.351215612685291D+03
 0.122911285247759D+04 0.430122515278009D+02 -.228908381747151D+02 0.122814671756748D+04
 0.150112436894714D+04 0.431605760540402D+03 -.284529366688518D+03 -.140700627647952D+04
 0.114241685275843D+04 -.540039993662577D+03 0.338004917585154D+03 -.948275142772215D+03
0.838849526701D-02 0.000000000000D+00 0.000000000000D+00 0.166595980760D-04 0.000000000000D+00  7 -2 2 24 -11 11 -24 21 0 0.13860003D+00 0.44124799D+00 0.71317238D+05 0.71317238D+05 0.71317238D+05 0.11339720D+01  1  2  2  1  7  1       -2 0.963838398716D-03 0.100000000000D+01
0.135954998904D-02 0.000000000000D+00 -.322140305669D-04 0.166595980760D-04 0.000000000000D+00  7 -2 2 24 -11 11 -24 21 2 0.13860003D+00 0.44124799D+00 0.71317238D+05 0.71317238D+05 0.71317238D+05 0.11339720D+01  1  2  3  1  7  1       -2 0.200872270948D-03 0.100000000000D+01
0.497410381894D-03 0.000000000000D+00 0.000000000000D+00 0.166595980760D-04 0.000000000000D+00  7 -2 2 24 -11 11 -24 21 2 0.13860003D+00 0.44124799D+00 0.71317238D+05 0.71317238D+05 0.71317238D+05 0.11339720D+01  1  2 15  1  7  1       -2 0.734919302784D-04 0.100000000000D+01
-.345914740286D-03 0.000000000000D+00 0.000000000000D+00 0.166595980760D-04 0.000000000000D+00  7 -2 2 24 -11 11 -24 21 2 0.13860003D+00 0.44124799D+00 0.71317238D+05 0.71317238D+05 0.71317238D+05 0.11339720D+01  1  2  4  1  7  1       -2 -.511085873973D-04 0.100000000000D+01
  </mgrwgt>
  </event>
  <event>
  8     66 0.27011060E-05 0.10435597E+03 0.75467711E-02 0.10210537E+00
       -2 -1    0    0    0  501 0.00000000E+00 0.00000000E+00 0.20462505E+02 0.20465007E+02 0.32000000E+00 0.0000E+00 0.9000E+01
        2 -1    0    0  501    0 0.00000000E+00 0.00000000E+00 -.30491171E+04 0.30491171E+04 0.32000000E+00 0.0000E+00 0.9000E+01
       25  2    1    2    0    0 0.10132131E+02 -.40258433E+02 -.11807294E+04 0.12189261E+04 0.29989243E+03 0.0000E+00 0.0000E+00
       23  2    1    2    0    0 -.10132131E+02 0.40258433E+02 -.18479251E+04 0.18506560E+04 0.91525218E+02 0.0000E+00 0.0000E+00
       24  1    3    3    0    0 0.11063897E+03 -.87863424E+02 -.72375758E+03 0.74179054E+03 0.80419002E+02 0.0000E+00 0.9000E+01
      -13  1    4    4    0    0 0.32849511E+02 0.10802200E+02 -.32396922E+03 0.32580952E+03 0.10565837E+00 0.0000E+00 0.9000E+01
       13  1    4    4    0    0 -.42981642E+02 0.29456233E+02 -.15239559E+04 0.15248465E+04 0.10565837E+00 0.0000E+00 0.9000E+01
      -24  1    3    3    0    0 -.10050683E+03 0.47604990E+02 -.45697185E+03 0.47713557E+03 0.80419002E+02 0.0000E+00 0.9000E+01
#aMCatNLO 1  0  0  1  2 0.13684402D+03 0.00000000D+00  -5  7  0 0.00000000D+00 0.00000000D+00 0.00000000D+00 0.00000000D+00 0.00000000D+00
  <mgrwgt>
 0.6265172811D-03    8    2    0
 0.249792791110630D+03 0.000000000000000D+00 0.000000000000000D+00 0.249792791110630D+03
 0.249792791110630D+03 0.000000000000000D+00 0.000000000000000D+00 -.249792791110630D+03
 0.170091530183871D+03 0.110638966240699D+03 -.878634244655895D+02 0.500294960627165D+02
 0.378476776115045D+02 0.328496066268368D+02 0.108021754821836D+02 -.153838567953089D+02
 0.130318850725736D+03 -.429817383461850D+02 0.294562593563899D+02 -.119448322750661D+03
 0.161327523700148D+03 -.100506834521351D+03 0.476049896270161D+02 0.848026834832529D+02
 0.000000000000000D+00 0.000000000000000D+00 0.000000000000000D+00 0.000000000000000D+00
 0.352252264521247D+03 0.000000000000000D+00 0.000000000000000D+00 0.352252264521247D+03
 0.309194422915092D+03 0.000000000000000D+00 0.000000000000000D+00 -.309194422915092D+03
 0.190572769638041D+03 0.965364928009560D+02 -.134270323059659D+03 0.500294960627165D+02
 0.337945553171695D+02 0.300482961352263D+02 0.158392504759575D+01 -.153838567953089D+02
 0.130822586446631D+03 -.531927300732786D+02 -.414497092770385D+01 -.119448322750661D+03
 0.162798544490177D+03 -.113180612519448D+03 0.589948790247619D+01 0.848026834832529D+02
 0.143458231544320D+03 0.397885536565447D+02 0.130931881037290D+03 0.430578416061552D+02
0.139219542505D-04 0.000000000000D+00 0.000000000000D+00 0.119943743670D-05 0.000000000000D+00  7 -2 2 24 -13 13 -24 21 0 0.31482714D-02 0.46909513D+00 0.37344621D+05 0.37344621D+05 0.37344621D+05 0.11586133D+01  1  2  2  1  7  1       -2 0.109270388621D-02 0.100000000000D+01
-.711494315946D-06 0.000000000000D+00 -.534639700566D-07 0.119943743670D-05 0.000000000000D+00  7 -2 2 24 -13 13 -24 21 2 0.31482714D-02 0.46909513D+00 0.37344621D+05 0.37344621D+05 0.37344621D+05 0.11586133D+01  1  2  3  1  7  1       -2 -.749636485725D-04 0.100000000000D+01
0.868813031367D-06 0.000000000000D+00 0.000000000000D+00 0.119943743670D-05 0.000000000000D+00  7 -2 2 24 -13 13 -24 21 2 0.31482714D-02 0.46909513D+00 0.37344621D+05 0.37344621D+05 0.37344621D+05 0.11586133D+01  1  2 15  1  7  1       -2 0.915388827415D-04 0.100000000000D+01
0.102144098673D-05 0.000000000000D+00 0.000000000000D+00 0.119943743670D-05 0.000000000000D+00  7 -2 2 24 -13 13 -24 21 2 0.46892496D-02 0.46909513D+00 0.73751300D+05 0.73751300D+05 0.73751300D+05 0.11327373D+01  1  2 12  1  7  1       -2 0.560628909525D-04 0.100000000000D+01
-.503995534395D-05 0.000000000000D+00 0.000000000000D+00 0.119943743670D-05 0.000000000000D+00  7 -2 2 24 -13 13 -24 21 2 0.31482714D-02 0.46909513D+00 0.37344621D+05 0.37344621D+05 0.37344621D+05 0.11586133D+01  1  2  4  1  7  1       -2 -.531013997944D-03 0.100000000000D+01
-.255097837228D-05 0.000000000000D+00 -.441308154893D-05 0.119943743670D-05 0.000000000000D+00  7 -2 2 24 -13 13 -24 21 2 0.63401942D-02 0.46909513D+00 0.37344621D+05 0.37344621D+05 0.37344621D+05 0.11586133D+01  1  2  5  1  7  1       -2 -.958657615303D-04 0.100000000000D+01
0.484793004793D-07 0.000000000000D+00 0.000000000000D+00 0.119943743670D-05 0.000000000000D+00  7 21 2 24 -13 13 -24 2 2 0.46892496D-02 0.46909513D+00 0.73751300D+05 0.73751300D+05 0.73751300D+05 0.11327373D+01  1  2 12  3  7  1       -2 0.440648911771D-04 0.100000000000D+01
0.730326819920D-07 0.000000000000D+00 -.334192854632D-06 0.119943743670D-05 0.000000000000D+00  7 21 2 24 -13 13 -24 2 2 0.63401942D-02 0.46909513D+00 0.37344621D+05 0.37344621D+05 0.37344621D+05 0.11586133D+01  1  2  5  3  7  1       -2 0.439901380911D-04 0.100000000000D+01
  </mgrwgt>
  </event>
  <event>
  8     66 0.27011060E-05 0.45879345E+03 0.75467711E-02 0.91977745E-01
       -2 -1    0    0    0  501 0.00000000E+00 0.00000000E+00 0.99982935E+02 0.99983447E+02 0.32000000E+00 0.0000E+00 0.9000E+01
        2 -1    0    0  501    0 0.00000000E+00 0.00000000E+00 -.23746525E+04 0.23746526E+04 0.32000000E+00 0.0000E+00 0.9000E+01
       25  2    1    2    0    0 -.37965351E+03 0.15501984E+03 -.85720451E+03 0.99643438E+03 0.29985659E+03 0.0000E+00 0.0000E+00
       23  2    1    2    0    0 0.37965351E+03 -.15501984E+03 -.14174651E+04 0.14782016E+04 0.87777047E+02 0.0000E+00 0.0000E+00
       24  1    3    3    0    0 -.38488832E+03 0.89344687E+02 -.65760933E+03 0.77138754E+03 0.80419002E+02 0.0000E+00 0.9000E+01
      -11  1    4    4    0    0 0.18084082E+02 -.37670269E+01 -.21921742E+02 0.28666833E+02 0.51099893E-03 0.0000E+00 0.9000E+01
       11  1    4    4    0    0 0.36156943E+03 -.15125281E+03 -.13955434E+04 0.14495348E+04 0.51099893E-03 0.0000E+00 0.9000E+01
      -24  1    3    3    0    0 0.52348140E+01 0.65675154E+02 -.19959518E+03 0.22504684E+03 0.80419002E+02 0.0000E+00 0.9000E+01
#aMCatNLO 1  0  0  2  2 0.30482839D+03 0.00000000D+00  -5  7  0 0.00000000D+00 0.00000000D+00 0.00000000D+00 0.00000000D+00 0.00000000D+00
  <mgrwgt>
 0.1564875905D-02    7    2    0
 0.487263163377355D+03 0.000000000000000D+00 0.000000000000000D+00 0.487263163377355D+03
 0.487263163377355D+03 0.000000000000000D+00 0.000000000000000D+00 -.487263163377355D+03
 0.423856618272547D+03 -.384888321354413D+03 0.893446873215385D+02 0.130635844359301D+03
 0.216261528609003D+02 0.180840818317264D+02 -.376702687879667D+01 0.112457094200798D+02
 0.423457974411136D+03 0.361569425507957D+03 -.151252814258953D+03 -.160333380208162D+03
 0.105585581210127D+03 0.523481401472995D+01 0.656751538162113D+02 0.184518264287814D+02
 0.000000000000000D+00 0.000000000000000D+00 0.000000000000000D+00 -.000000000000000D+00
 0.662527543803388D+03 0.000000000000000D+00 0.000000000000000D+00 0.662527543803388D+03
 0.663390663710476D+03 0.000000000000000D+00 0.000000000000000D+00 -.663390663710476D+03
 0.475974585124594D+03 -.449438138946477D+03 -.320035179163050D+02 0.130635844359301D+03
 0.210432033868390D+02 0.150231753504175D+02 -.952127254150469D+01 0.112457094200798D+02
 0.432346023018953D+03 0.300177920389980D+03 -.266663658794513D+03 -.160333380208162D+03
 0.917247798450811D+02 -.891933819410009D+01 0.390665431140183D+02 0.184518264287814D+02
 0.304829616138396D+03 0.143156381400179D+03 0.269121906138305D+03 -.863119907088106D+00
0.703823040930D-04 0.000000000000D+00 0.000000000000D+00 0.764390864934D-06 0.000000000000D+00  7 -2 2 24 -11 11 -24 21 0 0.15382031D-01 0.36533120D+00 0.21049143D+06 0.21049143D+06 0.21049143D+06 0.10961241D+01  1  2  2  2  7  2        2 0.117387407872D-02 0.100000000000D+01
-.389289635768D-05 0.000000000000D+00 -.270286579803D-06 0.764390864934D-06 0.000000000000D+00  7 -2 2 24 -11 11 -24 21 2 0.15382031D-01 0.36533120D+00 0.21049143D+06 0.21049143D+06 0.21049143D+06 0.10961241D+01  1  2  3  2  7  2        2 -.780100070791D-04 0.100000000000D+01
0.418425751665D-05 0.000000000000D+00 0.000000000000D+00 0.764390864934D-06 0.000000000000D+00  7 -2 2 24 -11 11 -24 21 2 0.15382031D-01 0.36533120D+00 0.21049143D+06 0.21049143D+06 0.21049143D+06 0.10961241D+01  1  2 15  2  7  2        2 0.838486125762D-04 0.100000000000D+01
-.191001385897D-04 0.000000000000D+00 0.000000000000D+00 0.764390864934D-06 0.000000000000D+00  7 -2 2 24 -11 11 -24 21 2 0.15382031D-01 0.36533120D+00 0.21049143D+06 0.21049143D+06 0.21049143D+06 0.10961241D+01  1  2  4  2  7  2        2 -.382748937987D-03 0.100000000000D+01
-.387428325263D-04 0.000000000000D+00 -.206676186034D-04 0.764390864934D-06 0.000000000000D+00  7 -2 2 24 -11 11 -24 21 2 0.15382031D-01 0.55097918D+00 0.21049143D+06 0.21049143D+06 0.21049143D+06 0.10961241D+01  1  2  5  2  7  2        2 -.133946684239D-03 0.100000000000D+01
0.450113848215D-04 0.000000000000D+00 0.190377793106D-04 0.764390864934D-06 0.000000000000D+00  7 -2 2 24 -11 11 -24 21 2 0.15382031D-01 0.36533120D+00 0.21049143D+06 0.21049143D+06 0.21049143D+06 0.10961241D+01  1  2  6  2  7  2        2 0.901986111610D-03 0.100000000000D+01
-.114960529355D-05 0.000000000000D+00 -.100342346564D-05 0.764390864934D-06 0.000000000000D+00  7 -2 21 24 -11 11 -24 -2 2 0.15382031D-01 0.55097918D+00 0.21049143D+06 0.21049143D+06 0.21049143D+06 0.10961241D+01  1  2  5  4  7  2        2 -.127268183239D-06 0.100000000000D+01
  </mgrwgt>
  </event>
  <event>
  8     66 0.27011060E-05 0.22548942E+03 0.75467711E-02 0.94634672E-01
       -2 -1    0    0    0  501 0.00000000E+00 0.00000000E+00 0.11368432E+03 0.11368477E+03 0.32000000E+00 0.0000E+00 0.9000E+01
        2 -1    0    0  501    0 0.00000000E+00 0.00000000E+00 -.30072297E+04 0.30072297E+04 0.32000000E+00 0.0000E+00 0.9000E+01
       25  2    1    2    0    0 -.34825870E+03 -.17445271E+03 -.52604350E+03 0.71981773E+03 0.29949613E+03 0.0000E+00 0.0000E+00
       23  2    1    2    0    0 0.34825870E+03 0.17445271E+03 -.23675019E+04 0.24010967E+04 0.92101042E+02 0.0000E+00 0.0000E+00
       24  1    3    3    0    0 -.15353638E+02 -.76366046E+02 -.43718396E+02 0.12019160E+03 0.80419002E+02 0.0000E+00 0.9000E+01
      -13  1    4    4    0    0 0.32171888E+03 0.12719075E+03 -.20645539E+04 0.20933378E+04 0.10565837E+00 0.0000E+00 0.9000E+01
       13  1    4    4    0    0 0.26539816E+02 0.47261964E+02 -.30294797E+03 0.30775889E+03 0.10565837E+00 0.0000E+00 0.9000E+01
      -24  1    3    3    0    0 -.33290506E+03 -.98086668E+02 -.48232510E+03 0.59962613E+03 0.80419002E+02 0.0000E+00 0.9000E+01
#aMCatNLO 1  0  0  1  2 0.12558444D+03 0.00000000D+00  -5  7  0 0.00000000D+00 0.00000000D+00 0.00000000D+00 0.00000000D+00 0.00000000D+00
  <mgrwgt>
 0.8225333532D-03    9    2    0
 0.584701282796896D+03 0.000000000000000D+00 0.000000000000000D+00 0.584701282796896D+03
 0.584701282796896D+03 0.000000000000000D+00 0.000000000000000D+00 -.584701282796896D+03
 0.212592785537072D+03 -.153536376218518D+02 -.763660461195516D+02 0.180723460900582D+03
 0.478234489710576D+03 0.321719270662630D+03 0.127190855258282D+03 -.330193010785673D+03
 0.717416548738993D+02 0.265394271730248D+02 0.472618590238611D+02 -.469983034904673D+02
 0.406833635472246D+03 -.332905060213803D+03 -.980866681625910D+02 0.196467853375558D+03
 0.000000000000000D+00 0.000000000000000D+00 -.000000000000000D+00 0.000000000000000D+00
 0.741220662180453D+03 0.000000000000000D+00 0.000000000000000D+00 0.741220662180453D+03
 0.613807176446853D+03 0.000000000000000D+00 0.000000000000000D+00 -.613807176446853D+03
 0.205993451917367D+03 -.190136195356215D+02 -.542549466015072D+02 0.180723460900582D+03
 0.488818048575977D+03 0.313263677804828D+03 0.178273745711790D+03 -.330193010785673D+03
 0.766961380089474D+02 0.252415353919309D+02 0.551028306492809D+02 -.469983034904673D+02
 0.404618975528927D+03 -.340000137916802D+03 -.552230767909879D+02 0.196467853375558D+03
 0.178901224596088D+03 0.205085442556652D+02 -.123898552968576D+03 0.127413485733599D+03
0.123411198521D-03 0.000000000000D+00 0.000000000000D+00 0.277773053703D-05 0.000000000000D+00  7 -2 2 24 -13 13 -24 21 0 0.17489931D-01 0.46265076D+00 0.18851277D+06 0.18851277D+06 0.18851277D+06 0.10998038D+01  1  2  2  1  7  1       -2 0.705974153959D-03 0.100000000000D+01
-.611768228280D-05 0.000000000000D+00 -.473931497234D-06 0.277773053703D-05 0.000000000000D+00  7 -2 2 24 -13 13 -24 21 2 0.17489931D-01 0.46265076D+00 0.18851277D+06 0.18851277D+06 0.18851277D+06 0.10998038D+01  1  2  3  1  7  1       -2 -.423303266309D-04 0.100000000000D+01
0.752190492776D-05 0.000000000000D+00 0.000000000000D+00 0.277773053703D-05 0.000000000000D+00  7 -2 2 24 -13 13 -24 21 2 0.17489931D-01 0.46265076D+00 0.18851277D+06 0.18851277D+06 0.18851277D+06 0.10998038D+01  1  2 15  1  7  1       -2 0.520466212137D-04 0.100000000000D+01
0.182308351705D-03 0.000000000000D+00 0.000000000000D+00 0.277773053703D-05 0.000000000000D+00  7 -2 2 24 -13 13 -24 21 2 0.22522822D-01 0.46265076D+00 0.24960287D+06 0.24960287D+06 0.24960287D+06 0.10905111D+01  1  2 12  1  7  1       -2 0.800669053391D-03 0.100000000000D+01
-.195541000657D-03 0.000000000000D+00 0.000000000000D+00 0.277773053703D-05 0.000000000000D+00  7 -2 2 24 -13 13 -24 21 2 0.17489931D-01 0.46265076D+00 0.18851277D+06 0.18851277D+06 0.18851277D+06 0.10998038D+01  1  2  4  1  7  1       -2 -.135301476031D-02 0.100000000000D+01
-.252768913424D-03 0.000000000000D+00 -.625624363573D-04 0.277773053703D-05 0.000000000000D+00  7 -2 2 24 -13 13 -24 21 2 0.23580962D-01 0.46265076D+00 0.18851277D+06 0.18851277D+06 0.18851277D+06 0.10998038D+01  1  2  5  1  7  1       -2 -.106206855360D-02 0.100000000000D+01
0.262355995174D-03 0.000000000000D+00 0.598696095183D-04 0.277773053703D-05 0.000000000000D+00  7 -2 2 24 -13 13 -24 21 2 0.17489931D-01 0.46265076D+00 0.18851277D+06 0.18851277D+06 0.18851277D+06 0.10998038D+01  1  2  6  1  7  1       -2 0.181533045620D-02 0.100000000000D+01
0.622264519605D-05 0.000000000000D+00 0.000000000000D+00 0.277773053703D-05 0.000000000000D+00  7 21 2 24 -13 13 -24 2 2 0.22522822D-01 0.46265076D+00 0.24960287D+06 0.24960287D+06 0.24960287D+06 0.10905111D+01  1  2 12  3  7  1       -2 0.335301252713D-03 0.100000000000D+01
-.834877408334D-05 0.000000000000D+00 -.241145629886D-05 0.277773053703D-05 0.000000000000D+00  7 21 2 24 -13 13 -24 2 2 0.23580962D-01 0.46265076D+00 0.18851277D+06 0.18851277D+06 0.18851277D+06 0.10998038D+01  1  2  5  3  7  1       -2 -.429374543726D-03 0.100000000000D+01
  </mgrwgt>
  </event>
  <event>
  8     66 -.27011060E-05 0.21700351E+03 0.75467711E-02 0.10372613E+00
       -2 -1    0    0    0  501 0.00000000E+00 0.00000000E+00 0.10540174E+03 0.10540222E+03 0.32000000E+00 0.0000E+00 0.9000E+01
        2 -1    0    0  502    0 0.00000000E+00 0.00000000E+00 -.92547670E+03 0.92547676E+03 0.32000000E+00 0.0000E+00 0.9000E+01
       23  2    1    2    0    0 -.81765103E+02 -.11272998E+03 -.36281713E+02 0.17070972E+03 0.91825187E+02 0.0000E+00 0.0000E+00
       24  1    1    2    0    0 -.72923035E+01 0.12512542E+03 -.24909877E+03 0.29021881E+03 0.80419002E+02 0.0000E+00 0.9000E+01
      -13  1    3    3    0    0 -.52053188E+02 -.96460151E+02 0.13561642E+02 0.11044467E+03 0.10565837E+00 0.0000E+00 0.9000E+01
       13  1    3    3    0    0 -.29711915E+02 -.16269829E+02 -.49843356E+02 0.60265052E+02 0.10565837E+00 0.0000E+00 0.9000E+01
      -24  1    1    2    0    0 0.11549272E+03 -.44426685E+02 -.47369155E+03 0.49614837E+03 0.80419002E+02 0.0000E+00 0.9000E+01
       21  1    1    2  502  501 -.26435318E+02 0.32031250E+02 -.61002930E+02 0.73802080E+02 0.75000000E+00 0.0000E+00 0.9000E+01
#aMCatNLO 2  0  0  2  1 0.41531037D+02 0.00000000D+00  -5  7  0 0.00000000D+00 0.00000000D+00 0.00000000D+00 0.00000000D+00 0.00000000D+00
  <mgrwgt>
 -.4009488015D-03    2    2    0
 0.290723671584298D+03 0.000000000000000D+00 0.000000000000000D+00 0.290723671584298D+03
 0.290723671584298D+03 0.000000000000000D+00 0.000000000000000D+00 -.290723671584298D+03
 0.159736751727091D+03 -.143726188151818D+02 0.133704522091498D+03 -.310667426459457D+02
 0.196552165290018D+03 -.610334370124421D+02 -.855790762873564D+02 0.166083999676205D+03
 0.345822683948474D+02 -.312698677500204D+02 -.143819410372153D+02 -.335982592280533D+01
 0.190576157756639D+03 0.106675923577644D+03 -.337435047669266D+02 -.131657431107454D+03
 0.000000000000000D+00 -.000000000000000D+00 0.000000000000000D+00 -.000000000000000D+00
 0.310301411873424D+03 0.000000000000000D+00 0.000000000000000D+00 0.310301411873424D+03
 0.314355723901509D+03 0.000000000000000D+00 0.000000000000000D+00 -.314355723901509D+03
 0.152124635811050D+03 -.729229858573529D+01 0.125125412083162D+03 -.310667426459457D+02
 0.198992498654313D+03 -.520532201671228D+02 -.964602604313013D+02 0.166083999676205D+03
 0.340409819603144D+02 -.297118852388300D+02 -.162697233579892D+02 -.335982592280533D+01
 0.197770558360754D+03 0.115492722386470D+03 -.444266779075568D+02 -.131657431107454D+03
 0.417284609885002D+02 -.264353183947823D+02 0.320312496136850D+02 -.405431202808508D+01
-.138593089353D-04 0.000000000000D+00 0.000000000000D+00 0.108592655889D-08 0.000000000000D+00  7 -2 2 24 -13 13 -24 21 2 0.15192438D-01 0.14648956D+00 0.57963507D+05 0.57963507D+05 0.57963507D+05 0.11416922D+01  1  2 13  2  7  2        2 -.193187058887D-02 0.100000000000D+01
0.117305984540D-04 0.000000000000D+00 0.000000000000D+00 0.108592655889D-08 0.438885986656D-11  7 -2 2 24 -13 13 -24 21 2 0.16215518D-01 0.14237954D+00 0.57963507D+05 0.57963507D+05 0.57963507D+05 0.11416922D+01  1  2  1  2  7  2        2 0.153092178742D-02 0.100000000000D+01
  </mgrwgt>
  </event>
  <event>
  8     66 0.27011060E-05 0.24955732E+03 0.75467711E-02 0.93534330E-01
       -2 -1    0    0    0  501 0.00000000E+00 0.00000000E+00 0.19273617E+03 0.19273644E+03 0.32000000E+00 0.0000E+00 0.9000E+01
        2 -1    0    0  501    0 0.00000000E+00 0.00000000E+00 -.13607590E+04 0.13607591E+04 0.32000000E+00 0.0000E+00 0.9000E+01
       25  2    1    2    0    0 0.17718928E+03 0.42809919E+03 -.63510021E+03 0.84136636E+03 0.29980013E+03 0.0000E+00 0.0000E+00
       23  2    1    2    0    0 -.17718928E+03 -.42809919E+03 -.53292264E+03 0.71212913E+03 0.91958726E+02 0.0000E+00 0.0000E+00
       24  1    3    3    0    0 0.13159006E+03 0.41116285E+03 -.42460411E+03 0.61084098E+03 0.80419002E+02 0.0000E+00 0.9000E+01
      -13  1    4    4    0    0 -.18713347E+03 -.40447775E+03 -.49198177E+03 0.66382773E+03 0.10565837E+00 0.0000E+00 0.9000E+01
       13  1    4    4    0    0 0.99441925E+01 -.23621440E+02 -.40940868E+02 0.48301400E+02 0.10565837E+00 0.0000E+00 0.9000E+01
      -24  1    3    3    0    0 0.45599223E+02 0.16936339E+02 -.21049610E+03 0.23052538E+03 0.80419002E+02 0.0000E+00 0.9000E+01
#aMCatNLO 1  0  0  2  1 0.92751764D+02 0.00000000D+00  -5  7  0 0.00000000D+00 0.00000000D+00 0.00000000D+00 0.00000000D+00 0.00000000D+00
  <mgrwgt>
 0.1672790069D-02    9    2    0
 0.512120804846835D+03 0.000000000000000D+00 0.000000000000000D+00 0.512120804846835D+03
 0.512120804846835D+03 0.000000000000000D+00 0.000000000000000D+00 -.512120804846835D+03
 0.442270064136236D+03 0.131590058886601D+03 0.411162849683125D+03 0.525809958005025D+02
 0.445801074814359D+03 -.187133734510467D+03 -.404478250926616D+03 0.108124114400685D+02
 0.265714366678330D+02 0.994445264792706D+01 -.236209374980635D+02 -.701430109407733D+01
 0.109599034075243D+03 0.455992229759390D+02 0.169363387415542D+02 -.563791061464938D+02
 0.000000000000000D+00 -.000000000000000D+00 -.000000000000000D+00 -.000000000000000D+00
 0.545797271092664D+03 0.000000000000000D+00 0.000000000000000D+00 0.545797271092664D+03
 0.582318262227482D+03 0.000000000000000D+00 0.000000000000000D+00 -.582318262227482D+03
 0.478080220438009D+03 0.162163448641877D+03 0.439353770923712D+03 0.525809958005025D+02
 0.410337341937803D+03 -.158693417884784D+03 -.378254180502314D+03 0.108124114400685D+02
 0.258922011599921D+02 0.116872578321855D+02 -.220139425236630D+02 -.701430109407733D+01
 0.114122910342693D+03 0.530311087678383D+02 0.237890858103450D+02 -.563791061464938D+02
 0.996828594416488D+02 -.681883973571173D+02 -.628747337080798D+02 -.365209911348179D+02
0.470410395201D-04 0.000000000000D+00 0.000000000000D+00 0.369560954261D-05 0.000000000000D+00  7 -2 2 24 -13 13 -24 21 0 0.29651742D-01 0.20934756D+00 0.25221388D+06 0.25221388D+06 0.25221388D+06 0.10901712D+01  1  2  2  2  7  2        2 0.928592553068D-03 0.100000000000D+01
-.261217735935D-05 0.000000000000D+00 -.180649977947D-06 0.369560954261D-05 0.000000000000D+00  7 -2 2 24 -13 13 -24 21 2 0.29651742D-01 0.20934756D+00 0.25221388D+06 0.25221388D+06 0.25221388D+06 0.10901712D+01  1  2  3  2  7  2        2 -.612830446980D-04 0.100000000000D+01
0.278894741943D-05 0.000000000000D+00 0.000000000000D+00 0.369560954261D-05 0.000000000000D+00  7 -2 2 24 -13 13 -24 21 2 0.29651742D-01 0.20934756D+00 0.25221388D+06 0.25221388D+06 0.25221388D+06 0.10901712D+01  1  2 15  2  7  2        2 0.654301626013D-04 0.100000000000D+01
0.621623912257D-04 0.000000000000D+00 0.000000000000D+00 0.369560954261D-05 0.000000000000D+00  7 -2 2 24 -13 13 -24 21 2 0.29651742D-01 0.24419873D+00 0.30375237D+06 0.30375237D+06 0.30375237D+06 0.10841527D+01  1  2 12  2  7  2        2 0.107517774373D-02 0.100000000000D+01
-.595927349486D-04 0.000000000000D+00 0.000000000000D+00 0.369560954261D-05 0.000000000000D+00  7 -2 2 24 -13 13 -24 21 2 0.29651742D-01 0.20934756D+00 0.25221388D+06 0.25221388D+06 0.25221388D+06 0.10901712D+01  1  2  4  2  7  2        2 -.139807667594D-02 0.100000000000D+01
-.158439771333D-03 0.000000000000D+00 -.360486338306D-04 0.369560954261D-05 0.000000000000D+00  7 -2 2 24 -13 13 -24 21 2 0.29651742D-01 0.24632768D+00 0.25221388D+06 0.25221388D+06 0.25221388D+06 0.10901712D+01  1  2  5  2  7  2        2 -.274077101532D-02 0.100000000000D+01
0.162619177953D-03 0.000000000000D+00 0.355769037217D-04 0.369560954261D-05 0.000000000000D+00  7 -2 2 24 -13 13 -24 21 2 0.29651742D-01 0.20934756D+00 0.25221388D+06 0.25221388D+06 0.25221388D+06 0.10901712D+01  1  2  6  2  7  2        2 0.381513082012D-02 0.100000000000D+01
0.144834134479D-05 0.000000000000D+00 0.000000000000D+00 0.369560954261D-05 0.000000000000D+00  7 -2 21 24 -13 13 -24 -2 2 0.29651742D-01 0.24419873D+00 0.30375237D+06 0.30375237D+06 0.30375237D+06 0.10841527D+01  1  2 12  4  7  2        2 0.788704269398D-05 0.100000000000D+01
-.356823878440D-05 0.000000000000D+00 -.877654294227D-06 0.369560954261D-05 0.000000000000D+00  7 -2 21 24 -13 13 -24 -2 2 0.29651742D-01 0.24632768D+00 0.25221388D+06 0.25221388D+06 0.25221388D+06 0.10901712D+01  1  2  5  4  7  2        2 -.192975173543D-04 0.100000000000D+01
  </mgrwgt>
  </event>
  <event>
  8     66 0.27011060E-05 0.26108065E+03 0.75467711E-02 0.97382695E-01
       -4 -1    0    0    0  501 0.00000000E+00 0.00000000E+00 0.47544638E+03 0.47544890E+03 0.15500000E+01 0.0000E+00 0.9000E+01
        4 -1    0    0  501    0 0.00000000E+00 0.00000000E+00 -.22511627E+03 0.22512160E+03 0.15500000E+01 0.0000E+00 0.9000E+01
       25  2    1    2    0    0 -.15631757E+03 -.40927452E+02 -.50734667E+02 0.34674849E+03 0.30257275E+03 0.0000E+00 0.0000E+00
       23  2    1    2    0    0 0.15631757E+03 0.40927452E+02 0.30106478E+03 0.35382202E+03 0.91868266E+02 0.0000E+00 0.0000E+00
       24  1    3    3    0    0 -.19287229E+03 0.44472412E+02 0.44613578E+00 0.21364675E+03 0.80419002E+02 0.0000E+00 0.9000E+01
      -11  1    4    4    0    0 0.16783547E+03 0.44414219E+02 0.28557040E+03 0.33420326E+03 0.51099893E-03 0.0000E+00 0.9000E+01
       11  1    4    4    0    0 -.11517902E+02 -.34867678E+01 0.15494382E+02 0.19618754E+02 0.51099893E-03 0.0000E+00 0.9000E+01
      -24  1    3    3    0    0 0.36554722E+02 -.85399864E+02 -.51180803E+02 0.13310175E+03 0.80419002E+02 0.0000E+00 0.9000E+01
#aMCatNLO 1  0  0  1  1 0.21396272D+03 0.00000000D+00  -5  7  0 0.00000000D+00 0.00000000D+00 0.00000000D+00 0.00000000D+00 0.00000000D+00
  <mgrwgt>
 0.1069475927D-03    3    2    0
 0.327159697487842D+03 0.000000000000000D+00 0.000000000000000D+00 0.327159697487842D+03
 0.327159697487842D+03 0.000000000000000D+00 0.000000000000000D+00 -.327159697487842D+03
 0.228577860860334D+03 -.192872293045421D+03 0.444724121613461D+02 -.812594957716832D+02
 0.248572914837855D+03 0.167835472864198D+03 0.444142193292785D+02 0.177896388835776D+03
 0.150776666293536D+02 -.115179017950233D+02 -.348676775084445D+01 0.908385490184599D+01
 0.162090952648141D+03 0.365547219762472D+02 -.853998637397802D+02 -.105720747965938D+03
 0.000000000000000D+00 -.000000000000000D+00 -.000000000000000D+00 -.000000000000000D+00
 0.379590623865398D+03 0.000000000000000D+00 0.000000000000000D+00 0.379590623865398D+03
 0.667662323876273D+03 0.000000000000000D+00 0.000000000000000D+00 -.667662323876273D+03
 0.180152033338490D+03 -.128413191311705D+03 0.538004257018225D+02 -.812594957716832D+02
 0.317921854815330D+03 0.257175020832104D+03 0.573427350971109D+02 0.177896388835776D+03
 0.119724927471840D+02 -.725193299774885D+01 -.286943034411774D+01 0.908385490184599D+01
 0.178367677019357D+03 0.902470448460386D+02 -.776299336402569D+02 -.105720747965938D+03
 0.358838889821309D+03 -.211756941368689D+03 -.306437968145588D+02 -.288071700010875D+03
0.336213028268D-04 0.000000000000D+00 0.000000000000D+00 0.111789255010D-06 0.000000000000D+00  7 -4 4 24 -11 11 -24 21 0 0.73146201D-01 0.34633877D-01 0.68163107D+05 0.68163107D+05 0.68163107D+05 0.11356427D+01  1  2  2  1  7  1       -4 0.105890943711D-03 0.100000000000D+01
-.175224556615D-05 0.000000000000D+00 -.129114655547D-06 0.111789255010D-06 0.000000000000D+00  7 -4 4 24 -11 11 -24 21 2 0.73146201D-01 0.34633877D-01 0.68163107D+05 0.68163107D+05 0.68163107D+05 0.11356427D+01  1  2  3  1  7  1       -4 -.711742112493D-05 0.100000000000D+01
0.201238312450D-05 0.000000000000D+00 0.000000000000D+00 0.111789255010D-06 0.000000000000D+00  7 -4 4 24 -11 11 -24 21 2 0.73146201D-01 0.34633877D-01 0.68163107D+05 0.68163107D+05 0.68163107D+05 0.11356427D+01  1  2 15  1  7  1       -4 0.817407014087D-05 0.100000000000D+01
  </mgrwgt>
  </event>
  <event>
  8     66 0.27011060E-05 0.86127471E+02 0.75467711E-02 0.99744533E-01
       -2 -1    0    0    0  501 0.00000000E+00 0.00000000E+00 0.41155010E+02 0.41156254E+02 0.32000000E+00 0.0000E+00 0.9000E+01
        2 -1    0    0  501    0 0.00000000E+00 0.00000000E+00 -.25306016E+04 0.25306016E+04 0.32000000E+00 0.0000E+00 0.9000E+01
       25  2    1    2    0    0 -.52816558E+01 0.12343862E+03 -.66694996E+03 0.74277693E+03 0.30270501E+03 0.0000E+00 0.0000E+00
       23  2    1    2    0    0 0.52816558E+01 -.12343862E+03 -.18224966E+04 0.18289810E+04 0.91718907E+02 0.0000E+00 0.0000E+00
       24  1    3    3    0    0 0.66578179E+02 0.14541438E+03 -.22604956E+03 0.28834635E+03 0.80419002E+02 0.0000E+00 0.9000E+01
      -11  1    4    4    0    0 0.37986617E+02 -.15392893E+02 -.48749235E+03 0.48921235E+03 0.51099893E-03 0.0000E+00 0.9000E+01
       11  1    4    4    0    0 -.32704961E+02 -.10804573E+03 -.13350043E+04 0.13397686E+04 0.51099893E-03 0.0000E+00 0.9000E+01
      -24  1    3    3    0    0 -.71859835E+02 -.21975763E+02 -.44090040E+03 0.45443058E+03 0.80419002E+02 0.0000E+00 0.9000E+01
#aMCatNLO 1  0  0  2  1 0.17979577D+03 0.00000000D+00  -5  7  0 0.00000000D+00 0.00000000D+00 0.00000000D+00 0.00000000D+00 0.00000000D+00
  <mgrwgt>
 0.1133208842D-02    8    2    0
 0.322720559602528D+03 0.000000000000000D+00 0.000000000000000D+00 0.322720559602528D+03
 0.322720559602528D+03 0.000000000000000D+00 0.000000000000000D+00 -.322720559602528D+03
 0.277048796349729D+03 0.665781792460808D+02 0.145414384489058D+03 0.211449337753535D+03
 0.690218256551604D+02 0.379866172621443D+02 -.153928928056963D+02 -.555345674046630D+02
 0.189232773475950D+03 -.327049614472832D+02 -.108045728472523D+03 -.151873462504066D+03
 0.110137723724216D+03 -.718598350609418D+02 -.219757632108391D+02 -.404130784480610D+01
 0.000000000000000D+00 -.000000000000000D+00 -.000000000000000D+00 -.000000000000000D+00
 0.370280473771588D+03 0.000000000000000D+00 0.000000000000000D+00 0.370280473771588D+03
 0.564126111939271D+03 0.000000000000000D+00 0.000000000000000D+00 -.564126111939271D+03
 0.330532126158648D+03 0.120045576302789D+03 0.208955755226576D+03 0.211449337753535D+03
 0.751818028622646D+02 0.506766020482498D+02 -.311944932131933D+00 -.555345674046630D+02
 0.167542637649422D+03 -.130856327211233D+01 -.707338283971297D+02 -.151873462504066D+03
 0.967589241725995D+02 -.536528361032870D+02 -.338321807830010D+00 -.404130784480610D+01
 0.264391094867925D+03 -.115760778975640D+03 -.137571660089484D+03 -.193845638167684D+03
0.115457518226D-04 0.000000000000D+00 0.000000000000D+00 0.732284344848D-07 0.000000000000D+00  7 -2 2 24 -11 11 -24 21 0 0.63316372D-02 0.38932342D+00 0.49051018D+05 0.49051018D+05 0.49051018D+05 0.11480281D+01  1  2  2  2  7  2        2 0.649649162563D-03 0.100000000000D+01
-.530892545212D-06 0.000000000000D+00 -.443387270650D-07 0.732284344848D-07 0.000000000000D+00  7 -2 2 24 -11 11 -24 21 2 0.63316372D-02 0.38932342D+00 0.49051018D+05 0.49051018D+05 0.49051018D+05 0.11480281D+01  1  2  3  2  7  2        2 -.393702645189D-04 0.100000000000D+01
0.713800010959D-06 0.000000000000D+00 0.000000000000D+00 0.732284344848D-07 0.000000000000D+00  7 -2 2 24 -11 11 -24 21 2 0.63316372D-02 0.38932342D+00 0.49051018D+05 0.49051018D+05 0.49051018D+05 0.11480281D+01  1  2 15  2  7  2        2 0.529344318328D-04 0.100000000000D+01
0.480890677506D-06 0.000000000000D+00 0.000000000000D+00 0.732284344848D-07 0.000000000000D+00  7 -2 2 24 -11 11 -24 21 2 0.63316372D-02 0.69088093D+00 0.10625719D+06 0.10625719D+06 0.10625719D+06 0.11195654D+01  1  2 12  2  7  2        2 0.125718668338D-05 0.100000000000D+01
-.569871849422D-05 0.000000000000D+00 -.270292410246D-05 0.732284344848D-07 0.000000000000D+00  7 -2 2 24 -11 11 -24 21 2 0.63316372D-02 0.69384722D+00 0.49051018D+05 0.49051018D+05 0.49051018D+05 0.11480281D+01  1  2  5  2  7  2        2 -.158720139498D-04 0.100000000000D+01
0.653486631659D-05 0.000000000000D+00 0.230694261734D-05 0.732284344848D-07 0.000000000000D+00  7 -2 2 24 -11 11 -24 21 2 0.63316372D-02 0.38932342D+00 0.49051018D+05 0.49051018D+05 0.49051018D+05 0.11480281D+01  1  2  6  2  7  2        2 0.484616741750D-03 0.100000000000D+01
0.303528503220D-07 0.000000000000D+00 0.000000000000D+00 0.732284344848D-07 0.000000000000D+00  7 -2 21 24 -11 11 -24 -2 2 0.63316372D-02 0.69088093D+00 0.10625719D+06 0.10625719D+06 0.10625719D+06 0.11195654D+01  1  2 12  4  7  2        2 0.938287074882D-09 0.100000000000D+01
-.220505978818D-06 0.000000000000D+00 -.171695063137D-06 0.732284344848D-07 0.000000000000D+00  7 -2 21 24 -11 11 -24 -2 2 0.63316372D-02 0.69384722D+00 0.49051018D+05 0.49051018D+05 0.49051018D+05 0.11480281D+01  1  2  5  4  7  2        2 -.734086701155D-08 0.100000000000D+01
  </mgrwgt>
  </event>
  <event>
  7     66 0.27011060E-05 0.50146515E+03 0.75467711E-02 0.91728601E-01
       -2 -1    0    0    0  501 0.00000000E+00 0.00000000E+00 0.90122816E+03 0.90122821E+03 0.32000000E+00 0.0000E+00 0.9000E+01
        2 -1    0    0  501    0 0.00000000E+00 0.00000000E+00 -.37961958E+03 0.37961971E+03 0.32000000E+00 0.0000E+00 0.9000E+01
       25  2    1    2    0    0 -.35775945E+03 -.28037519E+03 0.10158175E+03 0.55749458E+03 0.30639727E+03 0.0000E+00 0.0000E+00
       24  1    3    3    0    0 -.35766708E+03 -.28898763E+03 0.78253286E+02 0.47331848E+03 0.80419002E+02 0.0000E+00 0.9000E+01
      -11  1    1    2    0    0 0.21531759E+03 0.18440963E+03 0.46608613E+03 0.54553172E+03 0.51099893E-03 0.0000E+00 0.9000E+01
       11  1    1    2    0    0 0.14244186E+03 0.95965560E+02 -.46059305E+02 0.17782163E+03 0.51099893E-03 0.0000E+00 0.9000E+01
      -24  1    3    3    0    0 -.92362902E-01 0.86124356E+01 0.23328468E+02 0.84176101E+02 0.80419002E+02 0.0000E+00 0.9000E+01
#aMCatNLO 1  0  0  2  1 0.28251565D+03 0.00000000D+00  -5  7  0 0.00000000D+00 0.00000000D+00 0.00000000D+00 0.00000000D+00 0.00000000D+00
  <mgrwgt>
 0.8894513462D-02    4    2    0
 0.584913648938174D+03 0.000000000000000D+00 0.000000000000000D+00 0.584913648938174D+03
 0.584913648938174D+03 0.000000000000000D+00 0.000000000000000D+00 -.584913648938174D+03
 0.483346070910344D+03 -.357667096355657D+03 -.288987635338959D+03 -.125365876999313D+03
 0.389483680959321D+03 0.215317598255718D+03 0.184409636797192D+03 0.267074812498931D+03
 0.215234660670173D+03 0.142441863006534D+03 0.959655645644614D+02 -.129718484553500D+03
 0.817628853365097D+02 -.923649065944119D-01 0.861243397730604D+01 -.119904509461185D+02
 0.000000000000000D+00 0.000000000000000D+00 -.000000000000000D+00 0.000000000000000D+00
 0.815493365466421D+03 0.000000000000000D+00 0.000000000000000D+00 0.815493365466421D+03
 0.695073666562941D+03 0.000000000000000D+00 0.000000000000000D+00 -.695073666562941D+03
 0.567424262854037D+03 -.480078383691225D+03 -.263270242370252D+03 -.125365876999313D+03
 0.358948533033508D+03 0.128127707321078D+03 0.202727364981178D+03 0.267074812498931D+03
 0.192522238451613D+03 0.949395255902876D+02 0.105945332810153D+03 -.129718484553500D+03
 0.845629003749889D+02 -.194687718071434D+02 0.126832241914221D+02 -.119904509461185D+02
 0.307109097315215D+03 0.276479922587003D+03 -.580856796125011D+02 0.120419698903480D+03
0.311840693421D-02 0.000000000000D+00 0.000000000000D+00 0.636121677893D-11 0.000000000000D+00  7 -2 2 24 -11 11 -24 21 0 0.13865050D+00 0.58403027D-01 0.25146729D+06 0.25146729D+06 0.25146729D+06 0.10902680D+01  1  2  2  2  7  2        2 0.116882090676D-01 0.100000000000D+01
-.168253813322D-03 0.000000000000D+00 -.119755037228D-04 0.636121677893D-11 0.000000000000D+00  7 -2 2 24 -11 11 -24 21 2 0.13865050D+00 0.58403027D-01 0.25146729D+06 0.25146729D+06 0.25146729D+06 0.10902680D+01  1  2  3  2  7  2        2 -.749629382932D-03 0.100000000000D+01
0.193580668238D-03 0.000000000000D+00 0.000000000000D+00 0.636121677893D-11 0.000000000000D+00  7 -2 2 24 -11 11 -24 21 2 0.13865050D+00 0.58403027D-01 0.25146729D+06 0.25146729D+06 0.25146729D+06 0.10902680D+01  1  2 15  2  7  2        2 0.862469349216D-03 0.100000000000D+01
-.652369963937D-03 0.000000000000D+00 0.000000000000D+00 0.636121677893D-11 0.000000000000D+00  7 -2 2 24 -11 11 -24 21 2 0.13865050D+00 0.58403027D-01 0.25146729D+06 0.25146729D+06 0.25146729D+06 0.10902680D+01  1  2  4  2  7  2        2 -.290653557179D-02 0.100000000000D+01
  </mgrwgt>
  </event>
  <event>
  8     66 0.27011060E-05 0.24980483E+03 0.75467711E-02 0.80419182E-01
       -2 -1    0    0    0  501 0.00000000E+00 0.00000000E+00 0.68520600E+03 0.68520608E+03 0.32000000E+00 0.0000E+00 0.9000E+01
        2 -1    0    0  501    0 0.00000000E+00 0.00000000E+00 -.96986319E+03 0.96986324E+03 0.32000000E+00 0.0000E+00 0.9000E+01
       25  2    1    2    0    0 -.59609165E+02 -.16999504E+03 0.62886380E+03 0.71969427E+03 0.30006433E+03 0.0000E+00 0.0000E+00
       23  2    1    2    0    0 0.59609165E+02 0.16999504E+03 -.91352098E+03 0.93537505E+03 0.89187003E+02 0.0000E+00 0.0000E+00
       24  1    3    3    0    0 0.78886941E+01 -.17675905E+03 0.56292053E+03 0.59552727E+03 0.80419002E+02 0.0000E+00 0.9000E+01
      -11  1    4    4    0    0 0.61169240E+02 0.47252006E+02 -.39854214E+03 0.40596831E+03 0.51099893E-03 0.0000E+00 0.9000E+01
       11  1    4    4    0    0 -.15600752E+01 0.12274303E+03 -.51497884E+03 0.52940674E+03 0.51099893E-03 0.0000E+00 0.9000E+01
      -24  1    3    3    0    0 -.67497859E+02 0.67640131E+01 0.65943273E+02 0.12416700E+03 0.80419002E+02 0.0000E+00 0.9000E+01
#aMCatNLO 1  0  0  2  1 0.21711574D+04 0.00000000D+00  -5  7  0 0.00000000D+00 0.00000000D+00 0.00000000D+00 0.00000000D+00 0.00000000D+00
  <mgrwgt>
 0.1216688635D-02    5    2    0
 0.815203155768915D+03 0.000000000000000D+00 0.000000000000000D+00 0.815203155768915D+03
 0.815203155768915D+03 0.000000000000000D+00 0.000000000000000D+00 -.815203155768915D+03
 0.702817623475021D+03 0.788869407037611D+01 -.176759053101158D+03 0.675410542977641D+03
 0.342526770517692D+03 0.611692404242788D+02 0.472520061582657D+02 -.333691714702682D+03
 0.447503433813159D+03 -.156007517140375D+01 0.122743033829332D+03 -.430338282153005D+03
 0.137558483731958D+03 -.674978593232512D+02 0.676401311355964D+01 0.886194538780456D+02
 0.000000000000000D+00 0.000000000000000D+00 0.000000000000000D+00 -.000000000000000D+00
 0.225843422709641D+04 0.000000000000000D+00 0.000000000000000D+00 0.225843422709641D+04
 0.266577441046839D+04 0.000000000000000D+00 0.000000000000000D+00 -.266577441046839D+04
 0.123655967554527D+04 -.909069897450773D+03 -.489923601405104D+03 0.675410542977641D+03
 0.472999139125497D+03 -.324420242258223D+03 -.844365534905403D+02 -.333691714702682D+03
 0.694381125549315D+03 -.541455462088484D+03 -.616448944137413D+02 -.430338282153005D+03
 0.311230292209851D+03 -.279690053222802D+03 -.657049873087388D+02 0.886194538780456D+02
 0.220903840513486D+04 0.205463565502028D+04 0.701710036618124D+03 -.407340183371980D+03
0.406733467931D-03 0.000000000000D+00 0.000000000000D+00 0.495028347814D-05 0.000000000000D+00  7 -2 2 24 -11 11 -24 21 0 0.10541632D+00 0.14920973D+00 0.62402454D+05 0.62402454D+05 0.62402454D+05 0.11389259D+01  1  2  2  2  7  2        2 0.106478735770D-02 0.100000000000D+01
0.158372252925D-04 0.000000000000D+00 -.156196361224D-05 0.495028347814D-05 0.000000000000D+00  7 -2 2 24 -11 11 -24 21 2 0.10541632D+00 0.14920973D+00 0.62402454D+05 0.62402454D+05 0.62402454D+05 0.11389259D+01  1  2  3  2  7  2        2 0.537802718802D-04 0.100000000000D+01
0.251142368531D-04 0.000000000000D+00 0.000000000000D+00 0.495028347814D-05 0.000000000000D+00  7 -2 2 24 -11 11 -24 21 2 0.10541632D+00 0.14920973D+00 0.62402454D+05 0.62402454D+05 0.62402454D+05 0.11389259D+01  1  2 15  2  7  2        2 0.852832779148D-04 0.100000000000D+01
0.531712897023D-03 0.000000000000D+00 -.150926836096D-03 0.495028347814D-05 0.000000000000D+00  7 -2 2 24 -11 11 -24 21 2 0.10541632D+00 0.67197346D+00 0.62402454D+05 0.62402454D+05 0.62402454D+05 0.11389259D+01  1  2  5  2  7  2        2 0.128061277445D-04 0.100000000000D+01
0.954127837029D-04 0.000000000000D+00 -.274643556442D-04 0.495028347814D-05 0.000000000000D+00  7 -2 21 24 -11 11 -24 -2 2 0.10541632D+00 0.67197346D+00 0.62402454D+05 0.62402454D+05 0.62402454D+05 0.11389259D+01  1  2  5  4  7  2        2 0.316000903074D-07 0.100000000000D+01
  </mgrwgt>
  </event>
  <event>
  8     66 0.27011060E-05 0.20593788E+03 0.75467711E-02 0.10263616E+00
       -2 -1    0    0    0  501 0.00000000E+00 0.00000000E+00 0.34093368E+02 0.34094869E+02 0.32000000E+00 0.0000E+00 0.9000E+01
        2 -1    0    0  501    0 0.00000000E+00 0.00000000E+00 -.13473643E+04 0.13473643E+04 0.32000000E+00 0.0000E+00 0.9000E+01
       25  2    1    2    0    0 -.55720597E+02 -.50846300E+02 -.91666270E+03 0.96712573E+03 0.29895073E+03 0.0000E+00 0.0000E+00
       23  2    1    2    0    0 0.55720597E+02 0.50846300E+02 -.39660822E+03 0.41433346E+03 0.93188036E+02 0.0000E+00 0.0000E+00
       24  1    3    3    0    0 -.14942742E+03 -.10916942E+02 -.62832024E+03 0.65092340E+03 0.80419002E+02 0.0000E+00 0.9000E+01
      -13  1    4    4    0    0 0.73003300E+02 0.58108336E+02 -.37126378E+03 0.38280918E+03 0.10565837E+00 0.0000E+00 0.9000E+01
       13  1    4    4    0    0 -.17282702E+02 -.72620363E+01 -.25344434E+02 0.31524284E+02 0.10565837E+00 0.0000E+00 0.9000E+01
      -24  1    3    3    0    0 0.93706822E+02 -.39929358E+02 -.28834246E+03 0.31620233E+03 0.80419002E+02 0.0000E+00 0.9000E+01
#aMCatNLO 1  0  0  1  1 0.98856049D+02 0.00000000D+00  -5  7  0 0.00000000D+00 0.00000000D+00 0.00000000D+00 0.00000000D+00 0.00000000D+00
  <mgrwgt>
 0.1489123414D-02    3    2    0
 0.214329768064534D+03 0.000000000000000D+00 0.000000000000000D+00 0.214329768064534D+03
 0.214329768064534D+03 0.000000000000000D+00 0.000000000000000D+00 -.214329768064534D+03
 0.172793120256019D+03 -.149427423955153D+03 -.109169663351656D+02 -.307003464085396D+02
 0.962661126165840D+02 0.730034424899817D+02 0.581084466823390D+02 -.236869214353939D+02
 0.239475737172937D+02 -.172828027924422D+02 -.726210830053478D+01 0.149014360923392D+02
 0.135652729539171D+03 0.937067842576134D+02 -.399293720466387D+02 0.394858317515943D+02
 0.000000000000000D+00 0.000000000000000D+00 -.000000000000000D+00 -.000000000000000D+00
 0.228043859080237D+03 0.000000000000000D+00 0.000000000000000D+00 0.228043859080237D+03
 0.522006802855328D+03 0.000000000000000D+00 0.000000000000000D+00 -.522006802855328D+03
 0.180142287457200D+03 -.155607099155875D+03 0.287740716380486D+02 -.307003464085396D+02
 0.109444075267485D+03 0.694015875362958D+02 0.812425689617847D+02 -.236869214353939D+02
 0.235344773985152D+02 -.181141834001884D+02 -.192228732282481D+01 0.149014360923392D+02
 0.126789964947284D+03 0.891115790861153D+02 -.104151246092757D+02 0.394858317515943D+02
 0.310139856865080D+03 0.152081159336519D+02 -.976792286677328D+02 -.293962943775092D+03
0.457845931686D-05 0.000000000000D+00 0.000000000000D+00 0.245954554690D-07 0.000000000000D+00  7 -2 2 24 -13 13 -24 21 0 0.52452519D-02 0.20728693D+00 0.42410411D+05 0.42410411D+05 0.42410411D+05 0.11536379D+01  1  2  2  1  7  1       -2 0.146935935709D-02 0.100000000000D+01
-.253865482758D-06 0.000000000000D+00 -.175824893128D-07 0.245954554690D-07 0.000000000000D+00  7 -2 2 24 -13 13 -24 21 2 0.52452519D-02 0.20728693D+00 0.42410411D+05 0.42410411D+05 0.42410411D+05 0.11536379D+01  1  2  3  1  7  1       -2 -.108430469037D-03 0.100000000000D+01
0.300138563060D-06 0.000000000000D+00 0.000000000000D+00 0.245954554690D-07 0.000000000000D+00  7 -2 2 24 -13 13 -24 21 2 0.52452519D-02 0.20728693D+00 0.42410411D+05 0.42410411D+05 0.42410411D+05 0.11536379D+01  1  2 15  1  7  1       -2 0.128194525759D-03 0.100000000000D+01
  </mgrwgt>
  </event>
  <event>
  8     66 0.27011060E-05 0.12086842E+03 0.75467711E-02 0.10025377E+00
       -2 -1    0    0    0  501 0.00000000E+00 0.00000000E+00 0.34226506E+03 0.34226521E+03 0.32000000E+00 0.0000E+00 0.9000E+01
        2 -1    0    0  501    0 0.00000000E+00 0.00000000E+00 -.29828663E+03 0.29828680E+03 0.32000000E+00 0.0000E+00 0.9000E+01
       25  2    1    2    0    0 0.51478992E+02 -.19352055E+03 0.15601176E+03 0.39283773E+03 0.29980248E+03 0.0000E+00 0.0000E+00
       23  2    1    2    0    0 -.51478992E+02 0.19352055E+03 -.11203332E+03 0.24771428E+03 0.93330642E+02 0.0000E+00 0.0000E+00
       24  1    3    3    0    0 0.13710738E+03 -.17387332E+03 0.69453901E+02 0.24560420E+03 0.80419002E+02 0.0000E+00 0.9000E+01
      -13  1    4    4    0    0 0.73679066E+00 0.37275659E+01 -.36778980E+02 0.36974885E+02 0.10565837E+00 0.0000E+00 0.9000E+01
       13  1    4    4    0    0 -.52215782E+02 0.18979298E+03 -.75254341E+02 0.21073939E+03 0.10565837E+00 0.0000E+00 0.9000E+01
      -24  1    3    3    0    0 -.85628385E+02 -.19647233E+02 0.86557855E+02 0.14723353E+03 0.80419002E+02 0.0000E+00 0.9000E+01
#aMCatNLO 1  0  0  2  1 0.68731603D+02 0.00000000D+00  -5  7  0 0.00000000D+00 0.00000000D+00 0.00000000D+00 0.00000000D+00 0.00000000D+00
  <mgrwgt>
 0.9604211066D-03    9    2    0
 0.319520253543380D+03 0.000000000000000D+00 0.000000000000000D+00 0.319520253543380D+03
 0.319520253543380D+03 0.000000000000000D+00 0.000000000000000D+00 -.319520253543380D+03
 0.241405337246463D+03 0.137107376630172D+03 -.173873315662292D+03 0.527158256209779D+02
 0.395932236961637D+02 0.736858134866832D+00 0.372732867309619D+01 -.394104989020217D+02
 0.216417037013598D+03 -.522158501404331D+02 0.189793220446813D+03 -.899353788910923D+02
 0.141624909130535D+03 -.856283846246056D+02 -.196472334576170D+02 0.766300521721361D+02
 0.000000000000000D+00 -.000000000000000D+00 0.000000000000000D+00 -.000000000000000D+00
 0.333669000987508D+03 0.000000000000000D+00 0.000000000000000D+00 0.333669000987508D+03
 0.417333427227772D+03 0.000000000000000D+00 0.000000000000000D+00 -.417333427227772D+03
 0.265109662012981D+03 0.160321218558886D+03 -.187973576725983D+03 0.527158256209779D+02
 0.396811875958672D+02 0.437004502057734D+01 0.152050380804326D+01 -.394104989020217D+02
 0.202267906677761D+03 -.330273046580802D+02 0.178137954525535D+03 -.899353788910923D+02
 0.135667315158333D+03 -.729199399149432D+02 -.273664377440072D+02 0.766300521721361D+02
 0.108276356770338D+03 -.587440190064401D+02 0.356815561364116D+02 -.836644262402642D+02
0.169805862733D-04 0.000000000000D+00 0.000000000000D+00 0.493399423309D-06 0.000000000000D+00  7 -2 2 24 -13 13 -24 21 0 0.52656188D-01 0.45890275D-01 0.77096856D+05 0.77096856D+05 0.77096856D+05 0.11311116D+01  1  2  2  2  7  2        2 0.785078541356D-03 0.100000000000D+01
-.920752355210D-06 0.000000000000D+00 -.652099223806D-07 0.493399423309D-06 0.000000000000D+00  7 -2 2 24 -13 13 -24 21 2 0.52656188D-01 0.45890275D-01 0.77096856D+05 0.77096856D+05 0.77096856D+05 0.11311116D+01  1  2  3  2  7  2        2 -.544645796462D-04 0.100000000000D+01
0.105760632458D-05 0.000000000000D+00 0.000000000000D+00 0.493399423309D-06 0.000000000000D+00  7 -2 2 24 -13 13 -24 21 2 0.52656188D-01 0.45890275D-01 0.77096856D+05 0.77096856D+05 0.77096856D+05 0.11311116D+01  1  2 15  2  7  2        2 0.625598007689D-04 0.100000000000D+01
0.343927455935D-04 0.000000000000D+00 0.000000000000D+00 0.493399423309D-06 0.000000000000D+00  7 -2 2 24 -13 13 -24 21 2 0.52656188D-01 0.60727439D-01 0.98063220D+05 0.98063220D+05 0.98063220D+05 0.11224197D+01  1  2 12  2  7  2        2 0.147340432265D-02 0.100000000000D+01
-.356046679932D-04 0.000000000000D+00 0.000000000000D+00 0.493399423309D-06 0.000000000000D+00  7 -2 2 24 -13 13 -24 21 2 0.52656188D-01 0.45890275D-01 0.77096856D+05 0.77096856D+05 0.77096856D+05 0.11311116D+01  1  2  4  2  7  2        2 -.210609645983D-02 0.100000000000D+01
-.472870079532D-04 0.000000000000D+00 -.943041272998D-05 0.493399423309D-06 0.000000000000D+00  7 -2 2 24 -13 13 -24 21 2 0.52656188D-01 0.61825666D-01 0.77096856D+05 0.77096856D+05 0.77096856D+05 0.11311116D+01  1  2  5  2  7  2        2 -.202315775165D-02 0.100000000000D+01
0.483386161788D-04 0.000000000000D+00 0.902646629454D-05 0.493399423309D-06 0.000000000000D+00  7 -2 2 24 -13 13 -24 21 2 0.52656188D-01 0.45890275D-01 0.77096856D+05 0.77096856D+05 0.77096856D+05 0.11311116D+01  1  2  6  2  7  2        2 0.285933823135D-02 0.100000000000D+01
0.126510274476D-05 0.000000000000D+00 0.000000000000D+00 0.493399423309D-06 0.000000000000D+00  7 -2 21 24 -13 13 -24 -2 2 0.52656188D-01 0.60727439D-01 0.98063220D+05 0.98063220D+05 0.98063220D+05 0.11224197D+01  1  2 12  4  7  2        2 0.141138348902D-03 0.100000000000D+01
-.161003379282D-05 0.000000000000D+00 -.362834557651D-06 0.493399423309D-06 0.000000000000D+00  7 -2 21 24 -13 13 -24 -2 2 0.52656188D-01 0.61825666D-01 0.77096856D+05 0.77096856D+05 0.77096856D+05 0.11311116D+01  1  2  5  4  7  2        2 -.177379347277D-03 0.100000000000D+01
  </mgrwgt>
  </event>
  <event>
  8     66 0.27011060E-05 0.19484655E+03 0.75467711E-02 0.10441486E+00
       -2 -1    0    0    0  501 0.00000000E+00 0.00000000E+00 0.19446789E+02 0.19449422E+02 0.32000000E+00 0.0000E+00 0.9000E+01
        2 -1    0    0  501    0 0.00000000E+00 0.00000000E+00 -.28557113E+04 0.28557113E+04 0.32000000E+00 0.0000E+00 0.9000E+01
       25  2    1    2    0    0 0.70104909E+02 -.87602775E+02 -.17607928E+04 0.17897002E+04 0.30007756E+03 0.0000E+00 0.0000E+00
       23  2    1    2    0    0 -.70104909E+02 0.87602775E+02 -.10754717E+04 0.10854606E+04 0.94848602E+02 0.0000E+00 0.0000E+00
       24  1    3    3    0    0 0.15516529E+03 -.83193599E+02 -.12959510E+04 0.13103258E+04 0.80419002E+02 0.0000E+00 0.9000E+01
      -11  1    4    4    0    0 -.75280167E+01 -.20434097E+02 -.13688742E+03 0.13860876E+03 0.51099893E-03 0.0000E+00 0.9000E+01
       11  1    4    4    0    0 -.62576893E+02 0.10803687E+03 -.93858431E+03 0.94685181E+03 0.51099893E-03 0.0000E+00 0.9000E+01
      -24  1    3    3    0    0 -.85060386E+02 -.44091769E+01 -.46484184E+03 0.47937445E+03 0.80419002E+02 0.0000E+00 0.9000E+01
#aMCatNLO 1  0  0  2  1 0.68009257D+00 0.00000000D+00  -5  7  0 0.00000000D+00 0.00000000D+00 0.00000000D+00 0.00000000D+00 0.00000000D+00
  <mgrwgt>
 0.2711018326D-02   10    2    0
 0.235665495787917D+03 0.000000000000000D+00 0.000000000000000D+00 0.235665495787917D+03
 0.235665495787917D+03 0.000000000000000D+00 0.000000000000000D+00 -.235665495787917D+03
 0.194634802230930D+03 0.155165295391999D+03 -.831935990223326D+02 -.204461847963869D+02
 0.217968718731707D+02 -.752801683757345D+01 -.204340963602880D+02 -.938238715408994D+00
 0.127888400805284D+03 -.625768932727880D+02 0.108036872631140D+03 -.277057690913258D+02
 0.127010916666449D+03 -.850603852816371D+02 -.440917724851917D+01 0.490901926031217D+02
 0.000000000000000D+00 0.000000000000000D+00 0.000000000000000D+00 -.000000000000000D+00
 0.235844356925242D+03 0.000000000000000D+00 0.000000000000000D+00 0.235844356925242D+03
 0.236313116496380D+03 0.000000000000000D+00 0.000000000000000D+00 -.236313116496380D+03
 0.194471227885164D+03 0.154904392008379D+03 -.832972111452674D+02 -.204461847963869D+02
 0.218178724309748D+02 -.755726139685532D+01 -.204457102030426D+02 -.938238715408994D+00
 0.127914915416309D+03 -.627484145178416D+02 0.107968756686908D+03 -.277057690913258D+02
 0.127127466502468D+03 -.852307901557447D+02 -.447684985023007D+01 0.490901926031217D+02
 0.825991186706033D+00 0.632074062062866D+00 0.251014511631680D+00 -.468759571138231D+00
0.451193324345D-05 0.000000000000D+00 0.000000000000D+00 0.701999574264D-07 0.000000000000D+00  7 -2 2 24 -11 11 -24 21 0 0.29920176D-02 0.43934041D+00 0.52286867D+05 0.52286867D+05 0.52286867D+05 0.11455909D+01  1  2  2  2  7  2        2 0.496558396512D-03 0.100000000000D+01
-.250385673828D-06 0.000000000000D+00 -.173270116742D-07 0.701999574264D-07 0.000000000000D+00  7 -2 2 24 -11 11 -24 21 2 0.29920176D-02 0.43934041D+00 0.52286867D+05 0.52286867D+05 0.52286867D+05 0.11455909D+01  1  2  3  2  7  2        2 -.361639821464D-04 0.100000000000D+01
0.277794844563D-06 0.000000000000D+00 0.000000000000D+00 0.701999574264D-07 0.000000000000D+00  7 -2 2 24 -11 11 -24 21 2 0.29920176D-02 0.43934041D+00 0.52286867D+05 0.52286867D+05 0.52286867D+05 0.11455909D+01  1  2 15  2  7  2        2 0.401227739813D-04 0.100000000000D+01
-.313809227885D-03 0.000000000000D+00 0.000000000000D+00 0.701999574264D-07 0.000000000000D+00  7 -2 2 24 -11 11 -24 21 2 0.29920176D-02 0.43934041D+00 0.52286867D+05 0.52286867D+05 0.52286867D+05 0.11455909D+01  1  2  4  2  7  2        2 -.453244434520D-01 0.100000000000D+01
-.160816789742D-02 0.000000000000D+00 -.121970080329D-03 0.701999574264D-07 0.000000000000D+00  7 -2 2 24 -11 11 -24 21 2 0.29920176D-02 0.44065281D+00 0.52286867D+05 0.52286867D+05 0.52286867D+05 0.11455909D+01  1  2  5  2  7  2        2 -.229555655008D+00 0.100000000000D+01
0.160852509243D-02 0.000000000000D+00 0.121969537755D-03 0.701999574264D-07 0.000000000000D+00  7 -2 2 24 -11 11 -24 21 2 0.29920176D-02 0.43934041D+00 0.52286867D+05 0.52286867D+05 0.52286867D+05 0.11455909D+01  1  2  6  2  7  2        2 0.232324285313D+00 0.100000000000D+01
0.313810450627D-03 0.000000000000D+00 0.000000000000D+00 0.701999574264D-07 0.106211946821D-05  7 -2 2 24 -11 11 -24 21 2 0.29942884D-02 0.44054774D+00 0.52444798D+05 0.52444798D+05 0.52444798D+05 0.11454762D+01  1  2 11  2  7  2        2 0.447751685644D-01 0.100000000000D+01
0.256408768867D-13 0.000000000000D+00 0.000000000000D+00 0.701999574264D-07 0.000000000000D+00  7 -2 21 24 -11 11 -24 -2 2 0.29920176D-02 0.44071417D+00 0.52444798D+05 0.52444798D+05 0.52444798D+05 0.11454762D+01  1  2 12  4  7  2        2 0.318990710615D-12 0.100000000000D+01
-.894980879982D-06 0.000000000000D+00 -.679097864764D-07 0.701999574264D-07 0.000000000000D+00  7 -2 21 24 -11 11 -24 -2 2 0.29920176D-02 0.44065281D+00 0.52286867D+05 0.52286867D+05 0.52286867D+05 0.11455909D+01  1  2  5  4  7  2        2 -.111504984012D-04 0.100000000000D+01
0.184275082392D-06 0.000000000000D+00 0.000000000000D+00 0.701999574264D-07 0.544541909076D-09  7 -2 21 24 -11 11 -24 -2 2 0.29942884D-02 0.44054774D+00 0.52444798D+05 0.52444798D+05 0.52444798D+05 0.11454762D+01  1  2 11  4  7  2        2 0.229621811088D-05 0.100000000000D+01
  </mgrwgt>
  </event>
  <event>
  8     66 0.27011060E-05 0.16605934E+03 0.75467711E-02 0.99874830E-01
       -2 -1    0    0    0  501 0.00000000E+00 0.00000000E+00 0.33673019E+02 0.33674539E+02 0.32000000E+00 0.0000E+00 0.9000E+01
        2 -1    0    0  501    0 0.00000000E+00 0.00000000E+00 -.31418547E+04 0.31418547E+04 0.32000000E+00 0.0000E+00 0.9000E+01
       25  2    1    2    0    0 -.24243557E+03 -.20801661E+02 -.20065198E+04 0.20434243E+04 0.30042251E+03 0.0000E+00 0.0000E+00
       23  2    1    2    0    0 0.24243557E+03 0.20801661E+02 -.11016619E+04 0.11321049E+04 0.93781017E+02 0.0000E+00 0.0000E+00
       24  1    3    3    0    0 -.27283661E+03 0.21668698E+02 -.16367493E+04 0.16614226E+04 0.80419002E+02 0.0000E+00 0.9000E+01
      -11  1    4    4    0    0 0.25049494E+03 0.21633954E+02 -.10822123E+04 0.11110351E+04 0.51099893E-03 0.0000E+00 0.9000E+01
       11  1    4    4    0    0 -.80593686E+01 -.83229273E+00 -.19449610E+02 0.21069729E+02 0.51099893E-03 0.0000E+00 0.9000E+01
      -24  1    3    3    0    0 0.30401042E+02 -.42470359E+02 -.36977044E+03 0.38200176E+03 0.80419002E+02 0.0000E+00 0.9000E+01
#aMCatNLO 1  0  0  1  2 0.45751745D+01 0.00000000D+00  -5  7  0 0.00000000D+00 0.00000000D+00 0.00000000D+00 0.00000000D+00 0.00000000D+00
  <mgrwgt>
 0.1078500111D-02    8    2    0
 0.325266307506613D+03 0.000000000000000D+00 0.000000000000000D+00 0.325266307506613D+03
 0.325266307506613D+03 0.000000000000000D+00 0.000000000000000D+00 -.325266307506613D+03
 0.289888111728084D+03 -.272836612683676D+03 0.216686984360187D+02 -.515611448116708D+02
 0.252734937311213D+03 0.250494939568386D+03 0.216339535276030D+02 0.256750042472987D+02
 0.992205106730237D+01 -.805936856034846D+01 -.832292734132939D+00 0.572721263751683D+01
 0.979875149066269D+02 0.304010416756389D+02 -.424703592294888D+02 0.201589279268552D+02
 0.000000000000000D+00 -.000000000000000D+00 -.000000000000000D+00 -.000000000000000D+00
 0.327202674285898D+03 0.000000000000000D+00 0.000000000000000D+00 0.327202674285898D+03
 0.327988137969827D+03 0.000000000000000D+00 0.000000000000000D+00 -.327988137969827D+03
 0.288944724320802D+03 -.271694497893422D+03 0.233534990655559D+02 -.515611448116708D+02
 0.253855660972680D+03 0.251494510737937D+03 0.231084796874048D+02 0.256750042472987D+02
 0.988564648142977D+01 -.802028531744587D+01 -.774638746277682D+00 0.572721263751683D+01
 0.978626715655291D+02 0.307874803513899D+02 -.419003008345373D+02 0.201589279268552D+02
 0.464210891528407D+01 -.256720787845922D+01 -.378703917214570D+01 -.785463683928645D+00
0.309542709617D-04 0.000000000000D+00 0.000000000000D+00 0.251598618244D-06 0.000000000000D+00  7 -2 2 24 -11 11 -24 21 0 0.51805826D-02 0.48336237D+00 0.10261992D+06 0.10261992D+06 0.10261992D+06 0.11208015D+01  1  2  2  1  7  1       -2 0.985905877953D-03 0.100000000000D+01
-.171919542143D-05 0.000000000000D+00 -.118872550940D-06 0.251598618244D-06 0.000000000000D+00  7 -2 2 24 -11 11 -24 21 2 0.51805826D-02 0.48336237D+00 0.10261992D+06 0.10261992D+06 0.10261992D+06 0.11208015D+01  1  2  3  1  7  1       -2 -.687856023541D-04 0.100000000000D+01
0.206383719155D-05 0.000000000000D+00 0.000000000000D+00 0.251598618244D-06 0.000000000000D+00  7 -2 2 24 -11 11 -24 21 2 0.51805826D-02 0.48336237D+00 0.10261992D+06 0.10261992D+06 0.10261992D+06 0.11208015D+01  1  2 15  1  7  1       -2 0.825748385623D-04 0.100000000000D+01
0.154052083614D-05 0.000000000000D+00 0.000000000000D+00 0.251598618244D-06 0.000000000000D+00  7 -2 2 24 -11 11 -24 21 2 0.52329449D-02 0.48336237D+00 0.10408936D+06 0.10408936D+06 0.10408936D+06 0.11202964D+01  1  2 12  1  7  1       -2 0.606324814282D-04 0.100000000000D+01
-.118222230360D-03 0.000000000000D+00 0.000000000000D+00 0.251598618244D-06 0.000000000000D+00  7 -2 2 24 -11 11 -24 21 2 0.51805826D-02 0.48336237D+00 0.10261992D+06 0.10261992D+06 0.10261992D+06 0.11208015D+01  1  2  4  1  7  1       -2 -.473011225228D-02 0.100000000000D+01
0.117240811060D-03 0.000000000000D+00 0.000000000000D+00 0.251598618244D-06 0.804618131739D-07  7 -2 2 24 -11 11 -24 21 2 0.52114235D-02 0.48740715D+00 0.10408936D+06 0.10408936D+06 0.10408936D+06 0.11202964D+01  1  2 11  1  7  1       -2 0.446532859358D-02 0.100000000000D+01
0.107893200487D-06 0.000000000000D+00 0.000000000000D+00 0.251598618244D-06 0.000000000000D+00  7 21 2 24 -11 11 -24 2 2 0.52329449D-02 0.48336237D+00 0.10408936D+06 0.10408936D+06 0.10408936D+06 0.11202964D+01  1  2 12  3  7  1       -2 0.688279539201D-04 0.100000000000D+01
0.346656820147D-06 0.000000000000D+00 0.000000000000D+00 0.251598618244D-06 0.893207403102D-10  7 21 2 24 -11 11 -24 2 2 0.52114235D-02 0.48740715D+00 0.10408936D+06 0.10408936D+06 0.10408936D+06 0.11202964D+01  1  2 11  3  7  1       -2 0.214128220221D-03 0.100000000000D+01
  </mgrwgt>
  </event>
  <event>
  7     66 0.27011060E-05 0.21162855E+03 0.75467711E-02 0.96068960E-01
       -2 -1    0    0    0  501 0.00000000E+00 0.00000000E+00 0.20456622E+02 0.20459125E+02 0.32000000E+00 0.0000E+00 0.9000E+01
        2 -1    0    0  501    0 0.00000000E+00 0.00000000E+00 -.39874318E+04 0.39874318E+04 0.32000000E+00 0.0000E+00 0.9000E+01
       25  2    1    2    0    0 0.45405903E+01 -.14684146E+03 -.17126388E+04 0.17450046E+04 0.30054332E+03 0.0000E+00 0.0000E+00
       24  1    3    3    0    0 -.35018671E+02 -.94138242E+02 -.15255560E+04 0.15309724E+04 0.80419002E+02 0.0000E+00 0.9000E+01
      -13  1    1    2    0    0 -.26452005E+02 0.16189042E+03 -.20886055E+04 0.20950373E+04 0.10565837E+00 0.0000E+00 0.9000E+01
       13  1    1    2    0    0 0.21911415E+02 -.15048964E+02 -.16573078E+03 0.16784899E+03 0.10565837E+00 0.0000E+00 0.9000E+01
      -24  1    3    3    0    0 0.39559261E+02 -.52703218E+02 -.18708285E+03 0.21403218E+03 0.80419002E+02 0.0000E+00 0.9000E+01
#aMCatNLO 1  0  0  1  2 0.34352095D+03 0.00000000D+00  -5  7  0 0.00000000D+00 0.00000000D+00 0.00000000D+00 0.00000000D+00 0.00000000D+00
  <mgrwgt>
 0.9284585706D-03    5    2    0
 0.285612367556059D+03 0.000000000000000D+00 0.000000000000000D+00 0.285612367556059D+03
 0.285612367556059D+03 0.000000000000000D+00 0.000000000000000D+00 -.285612367556059D+03
 0.147276574957452D+03 -.350186330672512D+02 -.941394531059387D+02 -.716563485243526D+02
 0.194731072014459D+03 -.264507658424546D+02 0.161891099676225D+03 -.104937215704776D+03
 0.267303691378709D+02 0.219100866629792D+02 -.150467641878981D+02 0.283824314345547D+01
 0.202486719002336D+03 0.395593122467267D+02 -.527048823823879D+02 0.173755321085673D+03
 0.000000000000000D+00 -.000000000000000D+00 0.000000000000000D+00 0.000000000000000D+00
 0.106777300627996D+04 0.000000000000000D+00 0.000000000000000D+00 0.106777300627996D+04
 0.373446851821419D+03 0.000000000000000D+00 0.000000000000000D+00 -.373446851821419D+03
 0.219417908918940D+03 -.415719763608827D+01 -.191115379349650D+03 -.716563485243526D+02
 0.129634787195091D+03 0.848243169755122D+00 0.761093903192696D+02 -.104937215704776D+03
 0.438100180770430D+02 0.278468479207682D+02 -.337018563382950D+02 0.283824314345547D+01
 0.273698864815886D+03 0.796356463461795D+02 -.178636795964815D+03 0.173755321085673D+03
 0.774658279094418D+03 -.104173539800614D+03 0.327344641333490D+03 0.694326154458539D+03
0.547265626252D-04 0.000000000000D+00 0.000000000000D+00 0.102844949404D-08 0.000000000000D+00  7 -2 2 24 -13 13 -24 21 0 0.31473661D-02 0.61345123D+00 0.44786644D+05 0.44786644D+05 0.44786644D+05 0.11515256D+01  1  2  2  1  7  1       -2 0.942839303287D-03 0.100000000000D+01
-.270810399436D-05 0.000000000000D+00 -.210164410316D-06 0.102844949404D-08 0.000000000000D+00  7 -2 2 24 -13 13 -24 21 2 0.31473661D-02 0.61345123D+00 0.44786644D+05 0.44786644D+05 0.44786644D+05 0.11515256D+01  1  2  3  1  7  1       -2 -.618660054646D-04 0.100000000000D+01
0.325742275582D-05 0.000000000000D+00 0.000000000000D+00 0.102844949404D-08 0.000000000000D+00  7 -2 2 24 -13 13 -24 21 2 0.31473661D-02 0.61345123D+00 0.44786644D+05 0.44786644D+05 0.44786644D+05 0.11515256D+01  1  2 15  1  7  1       -2 0.744150647211D-04 0.100000000000D+01
0.456141377368D-05 0.000000000000D+00 -.319816781656D-04 0.102844949404D-08 0.000000000000D+00  7 -2 2 24 -13 13 -24 21 2 0.24874574D-01 0.61345123D+00 0.44786644D+05 0.44786644D+05 0.44786644D+05 0.11515256D+01  1  2  5  1  7  1       -2 0.435681256673D-05 0.100000000000D+01
-.260655885206D-05 0.000000000000D+00 -.803153158100D-05 0.102844949404D-08 0.000000000000D+00  7 21 2 24 -13 13 -24 2 2 0.24874574D-01 0.61345123D+00 0.44786644D+05 0.44786644D+05 0.44786644D+05 0.11515256D+01  1  2  5  3  7  1       -2 -.312866045498D-04 0.100000000000D+01
  </mgrwgt>
  </event>
  <event>
  8     66 0.27011060E-05 0.20113925E+03 0.75467711E-02 0.10584637E+00
       -2 -1    0    0    0  501 0.00000000E+00 0.00000000E+00 0.42451312E+03 0.42451324E+03 0.32000000E+00 0.0000E+00 0.9000E+01
        2 -1    0    0  501    0 0.00000000E+00 0.00000000E+00 -.99484302E+02 0.99484817E+02 0.32000000E+00 0.0000E+00 0.9000E+01
       25  2    1    2    0    0 -.35215026E+02 0.25040214E+02 0.20477450E+03 0.36655705E+03 0.30093914E+03 0.0000E+00 0.0000E+00
       23  2    1    2    0    0 0.35215026E+02 -.25040214E+02 0.12025431E+03 0.15744100E+03 0.91975319E+02 0.0000E+00 0.0000E+00
       24  1    3    3    0    0 -.96138467E+02 0.11175963E+03 0.13978030E+03 0.21849157E+03 0.80419002E+02 0.0000E+00 0.9000E+01
      -13  1    4    4    0    0 0.86926082E+01 0.34793598E+02 0.48532294E+02 0.60345262E+02 0.10565837E+00 0.0000E+00 0.9000E+01
       13  1    4    4    0    0 0.26522418E+02 -.59833812E+02 0.71722019E+02 0.97095741E+02 0.10565837E+00 0.0000E+00 0.9000E+01
      -24  1    3    3    0    0 0.60923442E+02 -.86719418E+02 0.64994206E+02 0.14806548E+03 0.80419002E+02 0.0000E+00 0.9000E+01
#aMCatNLO 1  0  0  1  2 0.11230030D+02 0.00000000D+00  -5  7  0 0.00000000D+00 0.00000000D+00 0.00000000D+00 0.00000000D+00 0.00000000D+00
  <mgrwgt>
 0.6868284601D-03    4    2    0
 0.205505614628523D+03 0.000000000000000D+00 0.000000000000000D+00 0.205505614628523D+03
 0.205505614628523D+03 0.000000000000000D+00 0.000000000000000D+00 -.205505614628523D+03
 0.168016210675734D+03 -.961385826150141D+02 0.111759600076694D+03 0.542179111877929D+01
 0.385546126270614D+02 0.869279603423125D+01 0.347935689030223D+02 0.141527741068899D+02
 0.670698281078525D+02 0.265228076359715D+02 -.598341934971879D+02 0.146550948841421D+02
 0.137370577846397D+03 0.609229789448114D+02 -.867189754825287D+02 -.342296601098113D+02
 0.000000000000000D+00 0.000000000000000D+00 0.000000000000000D+00 -.000000000000000D+00
 0.207445020139921D+03 0.000000000000000D+00 0.000000000000000D+00 0.207445020139921D+03
 0.222508392950874D+03 0.000000000000000D+00 0.000000000000000D+00 -.222508392950874D+03
 0.166527277144117D+03 -.981874578668195D+02 0.107675184594125D+03 0.542179111877929D+01
 0.376127627305339D+02 0.822631721743486D+01 0.338636473277898D+02 0.141527741068899D+02
 0.682312206192964D+02 0.256941710599409D+02 -.614860735018784D+02 0.146550948841421D+02
 0.138793358786219D+03 0.592316429128502D+02 -.900906395548448D+02 -.342296601098113D+02
 0.187887938106289D+02 0.503532667659351D+01 0.100378811348083D+02 -.150633728109534D+02
0.107612476703D-04 0.000000000000D+00 0.000000000000D+00 0.533718662115D-07 0.000000000000D+00  7 -2 2 24 -13 13 -24 21 0 0.65309759D-01 0.15305326D-01 0.40456997D+05 0.40456997D+05 0.40456997D+05 0.11554745D+01  1  2  2  1  7  1       -2 0.112653143000D-02 0.100000000000D+01
-.597511837983D-06 0.000000000000D+00 -.413260245554D-07 0.533718662115D-07 0.000000000000D+00  7 -2 2 24 -13 13 -24 21 2 0.65309759D-01 0.15305326D-01 0.40456997D+05 0.40456997D+05 0.40456997D+05 0.11554745D+01  1  2  3  1  7  1       -2 -.835118231919D-04 0.100000000000D+01
0.675613665789D-06 0.000000000000D+00 0.000000000000D+00 0.533718662115D-07 0.000000000000D+00  7 -2 2 24 -13 13 -24 21 2 0.65309759D-01 0.15305326D-01 0.40456997D+05 0.40456997D+05 0.40456997D+05 0.11554745D+01  1  2 15  1  7  1       -2 0.944278011191D-04 0.100000000000D+01
-.322409624715D-05 0.000000000000D+00 0.000000000000D+00 0.533718662115D-07 0.000000000000D+00  7 -2 2 24 -13 13 -24 21 2 0.65309759D-01 0.15305326D-01 0.40456997D+05 0.40456997D+05 0.40456997D+05 0.11554745D+01  1  2  4  1  7  1       -2 -.450618947826D-03 0.100000000000D+01
  </mgrwgt>
  </event>
  <event>
  7     66 0.27011060E-05 0.20737306E+03 0.75467711E-02 0.94297220E-01
       -2 -1    0    0    0  501 0.00000000E+00 0.00000000E+00 0.21504724E+04 0.21504725E+04 0.32000000E+00 0.0000E+00 0.9000E+01
        2 -1    0    0  501    0 0.00000000E+00 0.00000000E+00 -.16934980E+03 0.16935010E+03 0.32000000E+00 0.0000E+00 0.9000E+01
       25  2    1    2    0    0 0.25862141E+03 0.28417498E+03 0.53089912E+03 0.72062906E+03 0.29968634E+03 0.0000E+00 0.0000E+00
       24  1    3    3    0    0 0.20760564E+03 0.76688872E+02 0.37974159E+03 0.44682454E+03 0.80419002E+02 0.0000E+00 0.9000E+01
      -11  1    1    2    0    0 0.28178932E+01 -.75892498E+02 0.11419723E+04 0.11444948E+04 0.51099893E-03 0.0000E+00 0.9000E+01
       11  1    1    2    0    0 -.26143930E+03 -.20828249E+03 0.30825123E+03 0.45469872E+03 0.51099893E-03 0.0000E+00 0.9000E+01
      -24  1    3    3    0    0 0.51015775E+02 0.20748611E+03 0.15115753E+03 0.27380451E+03 0.80419002E+02 0.0000E+00 0.9000E+01
#aMCatNLO 1  0  0  2  1 0.14297851D+03 0.00000000D+00  -5  7  0 0.00000000D+00 0.00000000D+00 0.00000000D+00 0.00000000D+00 0.00000000D+00
  <mgrwgt>
 0.1688743979D-01    9    2    0
 0.603475309889595D+03 0.000000000000000D+00 0.000000000000000D+00 0.603475309889595D+03
 0.603475309889595D+03 0.000000000000000D+00 0.000000000000000D+00 -.603475309889595D+03
 0.235501792513338D+03 0.207605658890314D+03 0.766888977734580D+02 -.354706606020153D+01
 0.325313746772617D+03 0.281783663871165D+01 -.758925389438277D+02 0.316324858600420D+03
 0.367982591578938D+03 -.261439297766668D+03 -.208282499728131D+03 -.153880088365662D+03
 0.278152488914297D+03 0.510158022376426D+02 0.207486140898501D+03 -.158897704174557D+03
 0.000000000000000D+00 -.000000000000000D+00 -.000000000000000D+00 -.000000000000000D+00
 0.656367763843813D+03 0.000000000000000D+00 0.000000000000000D+00 0.656367763843813D+03
 0.712696382410957D+03 0.000000000000000D+00 0.000000000000000D+00 -.712696382410957D+03
 0.262513661277211D+03 0.236859604056937D+03 0.795685408383965D+02 -.354706606020153D+01
 0.327039898391439D+03 0.411377675156003D+02 -.721204759769342D+02 0.316324858600420D+03
 0.337316705542141D+03 -.220009284286171D+03 -.204204292487368D+03 -.153880088365662D+03
 0.288519653143224D+03 0.843027126036324D+02 0.210762773162720D+03 -.158897704174557D+03
 0.153674227900755D+03 -.142290799889998D+03 -.140065455368146D+02 -.563286185671437D+02
0.282418013133D-01 0.000000000000D+00 0.000000000000D+00 0.366318737976D-09 0.000000000000D+00  7 -2 2 24 -11 11 -24 21 0 0.33084194D+00 0.26053840D-01 0.19096122D+06 0.19096122D+06 0.19096122D+06 0.10993713D+01  1  2  2  2  7  2        2 0.131073436024D-01 0.100000000000D+01
-.137022039697D-02 0.000000000000D+00 -.108455953280D-03 0.366318737976D-09 0.000000000000D+00  7 -2 2 24 -11 11 -24 21 2 0.33084194D+00 0.26053840D-01 0.19096122D+06 0.19096122D+06 0.19096122D+06 0.10993713D+01  1  2  3  2  7  2        2 -.768601981172D-03 0.100000000000D+01
0.170409957515D-02 0.000000000000D+00 0.000000000000D+00 0.366318737976D-09 0.000000000000D+00  7 -2 2 24 -11 11 -24 21 2 0.33084194D+00 0.26053840D-01 0.19096122D+06 0.19096122D+06 0.19096122D+06 0.10993713D+01  1  2 15  2  7  2        2 0.955885865129D-03 0.100000000000D+01
0.269440262045D-01 0.000000000000D+00 0.000000000000D+00 0.366318737976D-09 0.000000000000D+00  7 -2 2 24 -11 11 -24 21 2 0.33084194D+00 0.31749753D-01 0.26496269D+06 0.26496269D+06 0.26496269D+06 0.10885650D+01  1  2 12  2  7  2        2 0.115827218421D-01 0.100000000000D+01
-.284794378256D-01 0.000000000000D+00 0.000000000000D+00 0.366318737976D-09 0.000000000000D+00  7 -2 2 24 -11 11 -24 21 2 0.33084194D+00 0.26053840D-01 0.19096122D+06 0.19096122D+06 0.19096122D+06 0.10993713D+01  1  2  4  2  7  2        2 -.159750594750D-01 0.100000000000D+01
-.499413355706D-01 0.000000000000D+00 -.178032490187D-01 0.366318737976D-09 0.000000000000D+00  7 -2 2 24 -11 11 -24 21 2 0.33084194D+00 0.33811737D-01 0.19096122D+06 0.19096122D+06 0.19096122D+06 0.10993713D+01  1  2  5  2  7  2        2 -.207945644980D-01 0.100000000000D+01
0.533473471544D-01 0.000000000000D+00 0.172151772623D-01 0.366318737976D-09 0.000000000000D+00  7 -2 2 24 -11 11 -24 21 2 0.33084194D+00 0.26053840D-01 0.19096122D+06 0.19096122D+06 0.19096122D+06 0.10993713D+01  1  2  6  2  7  2        2 0.299242930581D-01 0.100000000000D+01
0.764293725495D-03 0.000000000000D+00 0.000000000000D+00 0.366318737976D-09 0.000000000000D+00  7 -2 21 24 -11 11 -24 -2 2 0.33084194D+00 0.31749753D-01 0.26496269D+06 0.26496269D+06 0.26496269D+06 0.10885650D+01  1  2 12  4  7  2        2 0.157914506462D-02 0.100000000000D+01
-.142346738267D-02 0.000000000000D+00 -.621279755340D-03 0.366318737976D-09 0.000000000000D+00  7 -2 21 24 -11 11 -24 -2 2 0.33084194D+00 0.33811737D-01 0.19096122D+06 0.19096122D+06 0.19096122D+06 0.10993713D+01  1  2  5  4  7  2        2 -.272372368723D-02 0.100000000000D+01
  </mgrwgt>
  </event>
  <event>
  8     66 0.27011060E-05 0.17117189E+03 0.75467711E-02 0.10269047E+00
       -2 -1    0    0    0  501 0.00000000E+00 0.00000000E+00 0.42839234E+02 0.42840429E+02 0.32000000E+00 0.0000E+00 0.9000E+01
        2 -1    0    0  501    0 0.00000000E+00 0.00000000E+00 -.13145262E+04 0.13145262E+04 0.32000000E+00 0.0000E+00 0.9000E+01
       25  2    1    2    0    0 -.12414520E+03 0.11590716E+02 -.91614652E+03 0.97234219E+03 0.30096264E+03 0.0000E+00 0.0000E+00
       23  2    1    2    0    0 0.12414520E+03 -.11590716E+02 -.35554046E+03 0.38502449E+03 0.79299848E+02 0.0000E+00 0.0000E+00
       24  1    3    3    0    0 -.23661793E+02 -.30320180E+01 -.52327927E+02 0.98866079E+02 0.80419002E+02 0.0000E+00 0.9000E+01
      -13  1    4    4    0    0 0.39531515E+02 -.19254536E+02 -.44383706E+02 0.62477215E+02 0.10565837E+00 0.0000E+00 0.9000E+01
       13  1    4    4    0    0 0.84613685E+02 0.76638197E+01 -.31115675E+03 0.32254727E+03 0.10565837E+00 0.0000E+00 0.9000E+01
      -24  1    3    3    0    0 -.10048341E+03 0.14622734E+02 -.86381859E+03 0.87347611E+03 0.80419002E+02 0.0000E+00 0.9000E+01
#aMCatNLO 1  0  0  2  1 0.15918479D+03 0.00000000D+00  -5  7  0 0.00000000D+00 0.00000000D+00 0.00000000D+00 0.00000000D+00 0.00000000D+00
  <mgrwgt>
 0.3490748251D-02    3    2    0
 0.237305991957575D+03 0.000000000000000D+00 0.000000000000000D+00 0.237305991957575D+03
 0.237305991957575D+03 0.000000000000000D+00 0.000000000000000D+00 -.237305991957575D+03
 0.142543330241478D+03 -.236618057181235D+02 -.303201625456513D+01 0.115248908322597D+03
 0.597588916557757D+02 0.395314447688934D+02 -.192545828625068D+02 0.404679014183034D+02
 0.887482109170327D+02 0.846137764719818D+02 0.766386459989739D+01 -.256518800776485D+02
 0.183561551100863D+03 -.100483415522752D+03 0.146227345171746D+02 -.130064929663251D+03
 0.000000000000000D+00 -.000000000000000D+00 -.000000000000000D+00 0.000000000000000D+00
 0.737982176042996D+03 0.000000000000000D+00 0.000000000000000D+00 0.737982176042996D+03
 0.263287848350630D+03 0.000000000000000D+00 0.000000000000000D+00 -.263287848350630D+03
 0.142410277909535D+03 0.228516217120344D+02 -.299396317285202D+01 0.115248908322597D+03
 0.762841163381061D+02 0.617379597899292D+02 -.192364154992884D+02 0.404679014183034D+02
 0.121988527485130D+03 0.119012667056805D+03 0.769200666266476D+01 -.256518800776485D+02
 0.159913055305927D+03 -.444175131365022D+02 0.146686025703948D+02 -.130064929663251D+03
 0.500674047354927D+03 -.159184735422266D+03 -.130230560919198D+00 0.474694327692366D+03
0.143805777595D-04 0.000000000000D+00 0.000000000000D+00 0.169412662534D-08 0.000000000000D+00  7 -2 2 24 -13 13 -24 21 0 0.65907464D-02 0.20223490D+00 0.29299816D+05 0.29299816D+05 0.29299816D+05 0.11682887D+01  1  2  2  2  7  2        2 0.342130944444D-02 0.100000000000D+01
-.695255032968D-06 0.000000000000D+00 -.552252050895D-07 0.169412662534D-08 0.000000000000D+00  7 -2 2 24 -13 13 -24 21 2 0.65907464D-02 0.20223490D+00 0.29299816D+05 0.29299816D+05 0.29299816D+05 0.11682887D+01  1  2  3  2  7  2        2 -.225767033697D-03 0.100000000000D+01
0.909093513475D-06 0.000000000000D+00 0.000000000000D+00 0.169412662534D-08 0.000000000000D+00  7 -2 2 24 -13 13 -24 21 2 0.65907464D-02 0.20223490D+00 0.29299816D+05 0.29299816D+05 0.29299816D+05 0.11682887D+01  1  2 15  2  7  2        2 0.295205839811D-03 0.100000000000D+01
  </mgrwgt>
  </event>
  <event>
  8     66 0.27011060E-05 0.24278725E+03 0.75467711E-02 0.93993572E-01
       -2 -1    0    0    0  501 0.00000000E+00 0.00000000E+00 0.21712288E+03 0.21712312E+03 0.32000000E+00 0.0000E+00 0.9000E+01
        2 -1    0    0  501    0 0.00000000E+00 0.00000000E+00 -.22634513E+04 0.22634513E+04 0.32000000E+00 0.0000E+00 0.9000E+01
       25  2    1    2    0    0 0.25890017E+03 0.38413649E+03 -.21978345E+03 0.59400681E+03 0.29991530E+03 0.0000E+00 0.0000E+00
       23  2    1    2    0    0 -.25890017E+03 -.38413649E+03 -.18265450E+04 0.18865676E+04 0.90998705E+02 0.0000E+00 0.0000E+00
       24  1    3    3    0    0 0.19902788E+03 0.37383355E+03 -.10983490E+03 0.44485340E+03 0.80419002E+02 0.0000E+00 0.9000E+01
      -13  1    4    4    0    0 -.35589656E+02 -.12421946E+03 -.47589144E+03 0.49312247E+03 0.10565837E+00 0.0000E+00 0.9000E+01
       13  1    4    4    0    0 -.22331051E+03 -.25991703E+03 -.13506535E+04 0.13934452E+04 0.10565837E+00 0.0000E+00 0.9000E+01
      -24  1    3    3    0    0 0.59872282E+02 0.10302936E+02 -.10994855E+03 0.14915341E+03 0.80419002E+02 0.0000E+00 0.9000E+01
#aMCatNLO 1  0  0  2  1 0.53478583D+02 0.00000000D+00  -5  7  0 0.00000000D+00 0.00000000D+00 0.00000000D+00 0.00000000D+00 0.00000000D+00
  <mgrwgt>
 0.5741151895D-03    6    2    0
 0.701033089114783D+03 0.000000000000000D+00 0.000000000000000D+00 0.701033089114783D+03
 0.701033089114783D+03 0.000000000000000D+00 0.000000000000000D+00 -.701033089114783D+03
 0.626741954381356D+03 0.199027884187545D+03 0.373833554895062D+03 0.454944651554165D+03
 0.177877643002157D+03 -.355894028693722D+02 -.124219281055753D+03 -.122243284058456D+03
 0.494031135078029D+03 -.223310763478405D+03 -.259917209680958D+03 -.355868106821673D+03
 0.103415445768025D+03 0.598722821602324D+02 0.103029358416487D+02 0.231667393259643D+02
 0.000000000000000D+00 -.000000000000000D+00 -.000000000000000D+00 0.000000000000000D+00
 0.729321925498850D+03 0.000000000000000D+00 0.000000000000000D+00 0.729321925498850D+03
 0.727281292582814D+03 0.000000000000000D+00 0.000000000000000D+00 -.727281292582814D+03
 0.642742978184451D+03 0.215781883041724D+03 0.391298943295626D+03 0.454944651554165D+03
 0.173648043539784D+03 -.309501505250101D+02 -.119383041971118D+03 -.122243284058456D+03
 0.481339551842809D+03 -.210438330768201D+03 -.246498202141288D+03 -.355868106821673D+03
 0.105355142617767D+03 0.626275273064134D+02 0.131751711232464D+02 0.231667393259643D+02
 0.535175018968532D+02 -.370209290549267D+02 -.385928703064667D+02 0.204063291603580D+01
0.914633182983D-04 0.000000000000D+00 0.000000000000D+00 0.111458409386D-04 0.000000000000D+00  7 -2 2 24 -13 13 -24 21 0 0.33403540D-01 0.34822330D+00 0.25188254D+06 0.25188254D+06 0.25188254D+06 0.10902141D+01  1  2  2  2  7  2        2 0.466698552602D-03 0.100000000000D+01
-.439128052625D-05 0.000000000000D+00 -.351243225110D-06 0.111458409386D-04 0.000000000000D+00  7 -2 2 24 -13 13 -24 21 2 0.33403540D-01 0.34822330D+00 0.25188254D+06 0.25188254D+06 0.25188254D+06 0.10902141D+01  1  2  3  2  7  2        2 -.266320295151D-04 0.100000000000D+01
0.570515243676D-05 0.000000000000D+00 0.000000000000D+00 0.111458409386D-04 0.000000000000D+00  7 -2 2 24 -13 13 -24 21 2 0.33403540D-01 0.34822330D+00 0.25188254D+06 0.25188254D+06 0.25188254D+06 0.10902141D+01  1  2 15  2  7  2        2 0.346003374587D-04 0.100000000000D+01
0.177888297961D-03 0.000000000000D+00 0.000000000000D+00 0.111458409386D-04 0.000000000000D+00  7 -2 2 24 -13 13 -24 21 2 0.33403540D-01 0.36802013D+00 0.27969449D+06 0.27969449D+06 0.27969449D+06 0.10868110D+01  1  2 12  2  7  2        2 0.901896022028D-03 0.100000000000D+01
-.132524500869D-03 0.000000000000D+00 0.000000000000D+00 0.111458409386D-04 0.000000000000D+00  7 -2 2 24 -13 13 -24 21 2 0.33403540D-01 0.34822330D+00 0.25188254D+06 0.25188254D+06 0.25188254D+06 0.10902141D+01  1  2  4  2  7  2        2 -.803728296912D-03 0.100000000000D+01
0.192212217754D-05 0.000000000000D+00 0.000000000000D+00 0.111458409386D-04 0.000000000000D+00  7 -2 21 24 -13 13 -24 -2 2 0.33403540D-01 0.36802013D+00 0.27969449D+06 0.27969449D+06 0.27969449D+06 0.10868110D+01  1  2 12  4  7  2        2 0.128060379854D-05 0.100000000000D+01
  </mgrwgt>
  </event>
  <event>
  9     66 0.27011060E-05 0.28349052E+03 0.75467711E-02 0.99557526E-01
       -2 -1    0    0    0  501 0.00000000E+00 0.00000000E+00 0.29873160E+03 0.29873177E+03 0.32000000E+00 0.0000E+00 0.9000E+01
        2 -1    0    0  502    0 0.00000000E+00 0.00000000E+00 -.76348945E+03 0.76348952E+03 0.32000000E+00 0.0000E+00 0.9000E+01
       25  2    1    2    0    0 -.14412357E+03 0.13386621E+03 -.65140918E+01 0.35759774E+03 0.29856648E+03 0.0000E+00 0.0000E+00
       23  2    1    2    0    0 0.22935370E+03 -.17685101E+03 -.79088369E+02 0.31363603E+03 0.90736930E+02 0.0000E+00 0.0000E+00
       24  1    3    3    0    0 -.22058427E+02 0.13276539E+02 -.11235386E+03 0.14054696E+03 0.80419002E+02 0.0000E+00 0.9000E+01
      -13  1    4    4    0    0 0.22749314E+03 -.17898677E+03 -.61633927E+02 0.29595294E+03 0.10565837E+00 0.0000E+00 0.9000E+01
       13  1    4    4    0    0 0.18605652E+01 0.21357546E+01 -.17454441E+02 0.17683095E+02 0.10565837E+00 0.0000E+00 0.9000E+01
      -24  1    3    3    0    0 -.12206514E+03 0.12058967E+03 0.10583977E+03 0.21705078E+03 0.80419002E+02 0.0000E+00 0.9000E+01
       21  1    1    2  502  501 -.85230130E+02 0.42984808E+02 -.37915539E+03 0.39098752E+03 0.75000000E+00 0.0000E+00 0.9000E+01
#aMCatNLO 2  0  0  2  1 0.95456109D+02 0.00000000D+00  -5  7  0 0.00000000D+00 0.00000000D+00 0.00000000D+00 0.00000000D+00 0.00000000D+00
  <mgrwgt>
 0.2646766160D-03    2    2    0
 0.329437068104621D+03 0.000000000000000D+00 0.000000000000000D+00 0.329437068104621D+03
 0.329437068104621D+03 0.000000000000000D+00 0.000000000000000D+00 -.329437068104621D+03
 0.132305739985205D+03 -.387594397471728D+02 0.216994976434620D+02 -.952073028247769D+02
 0.252392396892581D+03 0.192564520835946D+03 -.161371026752403D+03 -.240877364914160D+02
 0.156454227533812D+02 -.149127548343372D+00 0.314941054514424D+01 -.153244323654899D+02
 0.258530576578075D+03 -.153655953540430D+03 0.136522118563797D+03 0.134619471681683D+03
 0.000000000000000D+00 -.000000000000000D+00 0.000000000000000D+00 -.000000000000000D+00
 0.339601534066655D+03 0.000000000000000D+00 0.000000000000000D+00 0.339601534066655D+03
 0.671604792967487D+03 0.000000000000000D+00 0.000000000000000D+00 -.671604792967487D+03
 0.127257562295055D+03 -.220584268880347D+02 0.132765394198112D+02 -.952073028247769D+02
 0.290464862891745D+03 0.227493441822416D+03 -.178987014761493D+03 -.240877364914160D+02
 0.155840074576291D+02 0.186025941412672D+01 0.213600000634728D+01 -.153244323654899D+02
 0.232446521664926D+03 -.122065144056719D+03 0.120589667593494D+03 0.134619471681683D+03
 0.345453372724788D+03 -.852301302917896D+02 0.429848077418408D+02 -.332003258900832D+03
-.750797902937D-04 0.000000000000D+00 0.000000000000D+00 0.224141195736D-06 0.000000000000D+00  7 -2 2 24 -13 13 -24 21 2 0.44583103D-01 0.11743294D+00 0.10945818D+06 0.10945818D+06 0.10945818D+06 0.11185154D+01  1  2 13  2  7  2        2 -.207337248743D-02 0.100000000000D+01
0.897640197380D-04 0.000000000000D+00 0.000000000000D+00 0.224141195736D-06 0.215224837428D-09  7 -2 2 24 -13 13 -24 21 2 0.45958672D-01 0.11745980D+00 0.10945818D+06 0.10945818D+06 0.10945818D+06 0.11185154D+01  1  2  1  2  7  2        2 0.233804910347D-02 0.100000000000D+01
  </mgrwgt>
  </event>
  <event>
  8     66 0.27011060E-05 0.18441298E+03 0.75467711E-02 0.95960819E-01
       -2 -1    0    0    0  501 0.00000000E+00 0.00000000E+00 0.25518066E+02 0.25520072E+02 0.32000000E+00 0.0000E+00 0.9000E+01
        2 -1    0    0  501    0 0.00000000E+00 0.00000000E+00 -.30522163E+04 0.30522163E+04 0.32000000E+00 0.0000E+00 0.9000E+01
       25  2    1    2    0    0 -.12669001E+02 -.11745271E+03 -.26934222E+04 0.27126739E+04 0.30020153E+03 0.0000E+00 0.0000E+00
       23  2    1    2    0    0 0.12669001E+02 0.11745271E+03 -.33327607E+03 0.36506251E+03 0.90785770E+02 0.0000E+00 0.0000E+00
       24  1    3    3    0    0 -.51571638E+02 -.76286201E+02 -.24018037E+04 0.24049131E+04 0.80419002E+02 0.0000E+00 0.9000E+01
      -13  1    4    4    0    0 0.51424690E+02 0.61955249E+02 -.16230421E+03 0.18117842E+03 0.10565837E+00 0.0000E+00 0.9000E+01
       13  1    4    4    0    0 -.38755689E+02 0.55497464E+02 -.17097186E+03 0.18388409E+03 0.10565837E+00 0.0000E+00 0.9000E+01
      -24  1    3    3    0    0 0.38902637E+02 -.41166512E+02 -.29161849E+03 0.30776071E+03 0.80419002E+02 0.0000E+00 0.9000E+01
#aMCatNLO 1  0  0  2  1 0.36820414D+03 0.00000000D+00  -5  7  0 0.00000000D+00 0.00000000D+00 0.00000000D+00 0.00000000D+00 0.00000000D+00
  <mgrwgt>
 0.1228495728D-02    3    2    0
 0.279087388271217D+03 0.000000000000000D+00 0.000000000000000D+00 0.279087388271217D+03
 0.279087388271217D+03 0.000000000000000D+00 0.000000000000000D+00 -.279087388271217D+03
 0.236760639330470D+03 -.515716378323583D+02 -.762862014830774D+02 -.202753954379128D+03
 0.118911806147391D+03 0.514248108150179D+02 0.619552584458703D+02 0.875045851643194D+02
 0.868303597802600D+02 -.387558095321831D+02 0.554974554196419D+02 0.543831871907063D+02
 0.115671971284314D+03 0.389026365495234D+02 -.411665123824348D+02 0.608661820241023D+02
 0.000000000000000D+00 0.000000000000000D+00 -.000000000000000D+00 0.000000000000000D+00
 0.575979997235022D+03 0.000000000000000D+00 0.000000000000000D+00 0.575979997235022D+03
 0.474604993208376D+03 0.000000000000000D+00 0.000000000000000D+00 -.474604993208376D+03
 0.313784191396296D+03 -.216336172373671D+03 -.638967708275815D+02 -.202753954379128D+03
 0.111690803258045D+03 -.175888815895444D+02 0.671447269119233D+02 0.875045851643194D+02
 0.132259403110738D+03 -.104323989979630D+03 0.604278394195858D+02 0.543831871907063D+02
 0.110945920653884D+03 -.289185278679875D+02 -.360667157795740D+02 0.608661820241023D+02
 0.381904672024435D+03 0.367167571810833D+03 -.276090797243537D+02 0.101375004026645D+03
0.212419851466D-04 0.000000000000D+00 0.000000000000D+00 0.761209530440D-06 0.000000000000D+00  7 -2 2 24 -13 13 -24 21 0 0.39260120D-02 0.46957189D+00 0.34008149D+05 0.34008149D+05 0.34008149D+05 0.11623163D+01  1  2  2  2  7  2        2 0.120368599791D-02 0.100000000000D+01
-.933771397225D-06 0.000000000000D+00 -.815748161059D-07 0.761209530440D-06 0.000000000000D+00  7 -2 2 24 -13 13 -24 21 2 0.39260120D-02 0.46957189D+00 0.34008149D+05 0.34008149D+05 0.34008149D+05 0.11623163D+01  1  2  3  2  7  2        2 -.714837562466D-04 0.100000000000D+01
0.125785364922D-05 0.000000000000D+00 0.000000000000D+00 0.761209530440D-06 0.000000000000D+00  7 -2 2 24 -13 13 -24 21 2 0.39260120D-02 0.46957189D+00 0.34008149D+05 0.34008149D+05 0.34008149D+05 0.11623163D+01  1  2 15  2  7  2        2 0.962934867377D-04 0.100000000000D+01
  </mgrwgt>
  </event>
  <event>
  8     66 0.27011060E-05 0.91111129E+02 0.75467711E-02 0.10774028E+00
       -2 -1    0    0    0  501 0.00000000E+00 0.00000000E+00 0.56520026E+02 0.56520932E+02 0.32000000E+00 0.0000E+00 0.9000E+01
        2 -1    0    0  501    0 0.00000000E+00 0.00000000E+00 -.12599965E+04 0.12599965E+04 0.32000000E+00 0.0000E+00 0.9000E+01
       25  2    1    2    0    0 -.82534720E+02 0.53225006E+02 -.44003004E+03 0.54131269E+03 0.29957988E+03 0.0000E+00 0.0000E+00
       23  2    1    2    0    0 0.82534720E+02 -.53225006E+02 -.76344640E+03 0.77520475E+03 0.91908237E+02 0.0000E+00 0.0000E+00
       24  1    3    3    0    0 -.15338829E+02 0.83597674E+02 -.41251241E+03 0.42878615E+03 0.80419002E+02 0.0000E+00 0.9000E+01
      -11  1    4    4    0    0 0.44722563E+02 0.20883025E+02 -.22341334E+03 0.22880063E+03 0.51099893E-03 0.0000E+00 0.9000E+01
       11  1    4    4    0    0 0.37812156E+02 -.74108031E+02 -.54003306E+03 0.54640412E+03 0.51099893E-03 0.0000E+00 0.9000E+01
      -24  1    3    3    0    0 -.67195891E+02 -.30372668E+02 -.27517628E+02 0.11252654E+03 0.80419002E+02 0.0000E+00 0.9000E+01
#aMCatNLO 1  0  0  2  1 0.43587422D+01 0.00000000D+00  -5  7  0 0.00000000D+00 0.00000000D+00 0.00000000D+00 0.00000000D+00 0.00000000D+00
  <mgrwgt>
 0.3364510241D-03   11    2    0
 0.266862617076252D+03 0.000000000000000D+00 0.000000000000000D+00 0.266862617076252D+03
 0.266862617076252D+03 0.000000000000000D+00 0.000000000000000D+00 -.266862617076252D+03
 0.127510303428089D+03 -.153388286187557D+02 0.835976739681414D+02 -.506735707215669D+02
 0.606067088329862D+02 0.447225633875254D+02 0.208830252987949D+02 -.351705094359611D+02
 0.130092203666397D+03 0.378121564769601D+02 -.741080314001345D+02 -.100011109179620D+03
 0.215516018225033D+03 -.671958912457298D+02 -.303726678668018D+02 0.185855189337148D+03
 0.000000000000000D+00 0.000000000000000D+00 -.000000000000000D+00 -.000000000000000D+00
 0.266981734443932D+03 0.000000000000000D+00 0.000000000000000D+00 0.266981734443932D+03
 0.309964651249780D+03 0.000000000000000D+00 0.000000000000000D+00 -.309964651249780D+03
 0.127979064750036D+03 -.162272838042214D+02 0.841444564459658D+02 -.506735707215669D+02
 0.603870690183651D+02 0.443018118309824D+02 0.211419686674629D+02 -.351705094359611D+02
 0.129516348437362D+03 0.369093769759867D+02 -.735524333007070D+02 -.100011109179620D+03
 0.215860549790630D+03 -.686959879091445D+02 -.294494625278987D+02 0.185855189337148D+03
 0.432033536973180D+02 0.371208290639681D+01 -.228452928482317D+01 -.429829168058472D+02
0.143868233610D-05 0.000000000000D+00 0.000000000000D+00 0.509501580495D-06 0.000000000000D+00  7 -2 2 24 -11 11 -24 21 0 0.86954615D-02 0.19384568D+00 0.32161751D+05 0.32161751D+05 0.32161751D+05 0.11645425D+01  1  2  2  2  7  2        2 0.242403602411D-03 0.100000000000D+01
-.645743738270D-07 0.000000000000D+00 -.552491898438D-08 0.509501580495D-06 0.000000000000D+00  7 -2 2 24 -11 11 -24 21 2 0.86954615D-02 0.19384568D+00 0.32161751D+05 0.32161751D+05 0.32161751D+05 0.11645425D+01  1  2  3  2  7  2        2 -.147551993147D-04 0.100000000000D+01
0.884593898090D-07 0.000000000000D+00 0.000000000000D+00 0.509501580495D-06 0.000000000000D+00  7 -2 2 24 -11 11 -24 21 2 0.86954615D-02 0.19384568D+00 0.32161751D+05 0.32161751D+05 0.32161751D+05 0.11645425D+01  1  2 15  2  7  2        2 0.202129087831D-04 0.100000000000D+01
0.367474366976D-04 0.000000000000D+00 0.000000000000D+00 0.509501580495D-06 0.000000000000D+00  7 -2 2 24 -11 11 -24 21 2 0.86954615D-02 0.22519344D+00 0.32951146D+05 0.32951146D+05 0.32951146D+05 0.11635739D+01  1  2 12  2  7  2        2 0.651599225144D-02 0.100000000000D+01
-.202639818552D-03 0.000000000000D+00 0.000000000000D+00 0.509501580495D-06 0.000000000000D+00  7 -2 2 24 -11 11 -24 21 2 0.86954615D-02 0.19384568D+00 0.32161751D+05 0.32161751D+05 0.32161751D+05 0.11645425D+01  1  2  4  2  7  2        2 -.463030569968D-01 0.100000000000D+01
-.207123231368D-03 0.000000000000D+00 -.121000345569D-05 0.509501580495D-06 0.000000000000D+00  7 -2 2 24 -11 11 -24 21 2 0.86954615D-02 0.22519064D+00 0.32161751D+05 0.32161751D+05 0.32161751D+05 0.11645425D+01  1  2  5  2  7  2        2 -.367927463494D-01 0.100000000000D+01
0.205010908105D-03 0.000000000000D+00 0.119653786726D-05 0.509501580495D-06 0.000000000000D+00  7 -2 2 24 -11 11 -24 21 2 0.86954615D-02 0.19384568D+00 0.32161751D+05 0.32161751D+05 0.32161751D+05 0.11645425D+01  1  2  6  2  7  2        2 0.468448493034D-01 0.100000000000D+01
0.168284706178D-03 0.000000000000D+00 0.000000000000D+00 0.509501580495D-06 0.196021543385D-06  7 -2 2 24 -11 11 -24 21 2 0.86993428D-02 0.22515446D+00 0.32951146D+05 0.32951146D+05 0.32951146D+05 0.11635739D+01  1  2 11  2  7  2        2 0.298291293803D-01 0.100000000000D+01
0.837780230272D-06 0.000000000000D+00 0.000000000000D+00 0.509501580495D-06 0.000000000000D+00  7 -2 21 24 -11 11 -24 -2 2 0.86954615D-02 0.22519344D+00 0.32951146D+05 0.32951146D+05 0.32951146D+05 0.11635739D+01  1  2 12  4  7  2        2 0.609067321485D-04 0.100000000000D+01
-.471336008171D-05 0.000000000000D+00 -.275842049287D-07 0.509501580495D-06 0.000000000000D+00  7 -2 21 24 -11 11 -24 -2 2 0.86954615D-02 0.22519064D+00 0.32161751D+05 0.32161751D+05 0.32161751D+05 0.11645425D+01  1  2  5  4  7  2        2 -.343734881248D-03 0.100000000000D+01
0.381382689030D-05 0.000000000000D+00 0.000000000000D+00 0.509501580495D-06 0.444170655280D-08  7 -2 21 24 -11 11 -24 -2 2 0.86993428D-02 0.22515446D+00 0.32951146D+05 0.32951146D+05 0.32951146D+05 0.11635739D+01  1  2 11  4  7  2        2 0.277250272358D-03 0.100000000000D+01
  </mgrwgt>
  </event>
  <event>
  8     66 0.27011060E-05 0.12290681E+03 0.75467711E-02 0.95294823E-01
       -2 -1    0    0    0  501 0.00000000E+00 0.00000000E+00 0.23549698E+03 0.23549720E+03 0.32000000E+00 0.0000E+00 0.9000E+01
        2 -1    0    0  501    0 0.00000000E+00 0.00000000E+00 -.12681140E+04 0.12681140E+04 0.32000000E+00 0.0000E+00 0.9000E+01
       25  2    1    2    0    0 -.25854718E+03 0.86007262E+02 0.26276427E+02 0.40633469E+03 0.30028909E+03 0.0000E+00 0.0000E+00
       23  2    1    2    0    0 0.25854718E+03 -.86007262E+02 -.10588934E+04 0.10972765E+04 0.92285424E+02 0.0000E+00 0.0000E+00
       24  1    3    3    0    0 -.12896054E+02 -.34999269E+02 0.75838020E+02 0.11666138E+03 0.80419002E+02 0.0000E+00 0.9000E+01
      -11  1    4    4    0    0 0.57429972E+02 -.36716143E+02 -.14506720E+03 0.16028341E+03 0.51099893E-03 0.0000E+00 0.9000E+01
       11  1    4    4    0    0 0.20111721E+03 -.49291119E+02 -.91382623E+03 0.93699313E+03 0.51099893E-03 0.0000E+00 0.9000E+01
      -24  1    3    3    0    0 -.24565113E+03 0.12100653E+03 -.49561593E+02 0.28967330E+03 0.80419002E+02 0.0000E+00 0.9000E+01
#aMCatNLO 1  0  0  1  2 0.28487950D+03 0.00000000D+00  -5  7  0 0.00000000D+00 0.00000000D+00 0.00000000D+00 0.00000000D+00 0.00000000D+00
  <mgrwgt>
 0.5340462518D-03    7    2    0
 0.546477088880239D+03 0.000000000000000D+00 0.000000000000000D+00 0.546477088880239D+03
 0.546477088880239D+03 0.000000000000000D+00 0.000000000000000D+00 -.546477088880239D+03
 0.232146050115898D+03 -.128960541443137D+02 -.349992686982091D+02 0.214553759249611D+03
 0.834482083451922D+02 0.574299724298342D+02 -.367161434911416D+02 -.481386180718660D+02
 0.425672815245368D+03 0.201117207488885D+03 -.492911186959164D+02 -.371913430933189D+03
 0.351687104054019D+03 -.245651125774405D+03 0.121006530885267D+03 0.205498289755444D+03
 0.000000000000000D+00 0.000000000000000D+00 0.000000000000000D+00 0.000000000000000D+00
 0.102100027408534D+04 0.000000000000000D+00 0.000000000000000D+00 0.102100027408534D+04
 0.609203383207286D+03 0.000000000000000D+00 0.000000000000000D+00 -.609203383207286D+03
 0.244609527962760D+03 -.733003480271124D+02 -.442758239534635D+02 0.214553759249611D+03
 0.728932997030504D+02 0.376217125322061D+02 -.397581857970630D+02 -.481386180718660D+02
 0.390031394129191D+03 0.977685755062975D+02 -.651628263761948D+02 -.371913430933189D+03
 0.421936965171082D+03 -.343668260299824D+03 0.105953604910320D+03 0.205498289755444D+03
 0.500732470326544D+03 0.281578320288433D+03 0.432432312164017D+02 0.411796890878056D+03
0.470373299869D-04 0.000000000000D+00 0.000000000000D+00 0.532893987079D-05 0.000000000000D+00  7 -2 2 24 -11 11 -24 21 0 0.36230324D-01 0.19509448D+00 0.10539210D+06 0.10539210D+06 0.10539210D+06 0.11198552D+01  1  2  2  1  7  1       -2 0.749283306395D-03 0.100000000000D+01
-.175150692095D-05 0.000000000000D+00 -.180635732363D-06 0.532893987079D-05 0.000000000000D+00  7 -2 2 24 -11 11 -24 21 2 0.36230324D-01 0.19509448D+00 0.10539210D+06 0.10539210D+06 0.10539210D+06 0.11198552D+01  1  2  3  1  7  1       -2 -.349895995168D-04 0.100000000000D+01
0.266886220650D-05 0.000000000000D+00 0.000000000000D+00 0.532893987079D-05 0.000000000000D+00  7 -2 2 24 -11 11 -24 21 2 0.36230324D-01 0.19509448D+00 0.10539210D+06 0.10539210D+06 0.10539210D+06 0.11198552D+01  1  2 15  1  7  1       -2 0.533154728958D-04 0.100000000000D+01
0.122321026792D-05 0.000000000000D+00 0.000000000000D+00 0.532893987079D-05 0.000000000000D+00  7 -2 2 24 -11 11 -24 21 2 0.68148816D-01 0.19509448D+00 0.22235854D+06 0.22235854D+06 0.22235854D+06 0.10943080D+01  1  2 12  1  7  1       -2 0.653203432715D-05 0.100000000000D+01
-.329070807776D-04 0.000000000000D+00 -.143991986350D-04 0.532893987079D-05 0.000000000000D+00  7 -2 2 24 -11 11 -24 21 2 0.73180513D-01 0.19509448D+00 0.10539210D+06 0.10539210D+06 0.10539210D+06 0.11198552D+01  1  2  5  1  7  1       -2 -.163196139105D-03 0.100000000000D+01
0.840849035562D-07 0.000000000000D+00 0.000000000000D+00 0.532893987079D-05 0.000000000000D+00  7 21 2 24 -11 11 -24 2 2 0.68148816D-01 0.19509448D+00 0.22235854D+06 0.22235854D+06 0.22235854D+06 0.10943080D+01  1  2 12  3  7  1       -2 0.446608424947D-05 0.100000000000D+01
-.163180208300D-05 0.000000000000D+00 -.109495576999D-05 0.532893987079D-05 0.000000000000D+00  7 21 2 24 -11 11 -24 2 2 0.73180513D-01 0.19509448D+00 0.10539210D+06 0.10539210D+06 0.10539210D+06 0.11198552D+01  1  2  5  3  7  1       -2 -.813649074121D-04 0.100000000000D+01
  </mgrwgt>
  </event>
  <event>
  8     66 0.27011060E-05 0.22512025E+03 0.75467711E-02 0.96337007E-01
       -2 -1    0    0    0  501 0.00000000E+00 0.00000000E+00 0.44868409E+02 0.44869550E+02 0.32000000E+00 0.0000E+00 0.9000E+01
        2 -1    0    0  501    0 0.00000000E+00 0.00000000E+00 -.14243335E+04 0.14243335E+04 0.32000000E+00 0.0000E+00 0.9000E+01
       25  2    1    2    0    0 -.12078409E+03 0.44129267E+02 -.71082637E+03 0.78225839E+03 0.30019638E+03 0.0000E+00 0.0000E+00
       23  2    1    2    0    0 0.12078409E+03 -.44129267E+02 -.66863868E+03 0.68694466E+03 0.90989499E+02 0.0000E+00 0.0000E+00
       24  1    3    3    0    0 -.16806904E+03 0.82081970E+02 -.59446881E+03 0.62836696E+03 0.80419002E+02 0.0000E+00 0.9000E+01
      -13  1    4    4    0    0 -.74911490E+01 -.11233091E+02 -.18535210E+03 0.18584325E+03 0.10565837E+00 0.0000E+00 0.9000E+01
       13  1    4    4    0    0 0.12827524E+03 -.32896177E+02 -.48328658E+03 0.50110141E+03 0.10565837E+00 0.0000E+00 0.9000E+01
      -24  1    3    3    0    0 0.47284953E+02 -.37952702E+02 -.11635756E+03 0.15389143E+03 0.80419002E+02 0.0000E+00 0.9000E+01
#aMCatNLO 1  0  0  2  2 0.30691600D+03 0.00000000D+00  -5  7  0 0.00000000D+00 0.00000000D+00 0.00000000D+00 0.00000000D+00 0.00000000D+00
  <mgrwgt>
 0.9730164228D-03    5    2    0
 0.252801189136383D+03 0.000000000000000D+00 0.000000000000000D+00 0.252801189136383D+03
 0.252801189136383D+03 0.000000000000000D+00 0.000000000000000D+00 -.252801189136383D+03
 0.204013484226071D+03 -.168069042855113D+03 0.820819694125280D+02 -.130243204359360D+02
 0.343246951000450D+02 -.749133108171510D+01 -.112330614387282D+02 -.315576137096729D+02
 0.137544537874277D+03 0.128275423616100D+03 -.328962067331716D+02 -.371719676332449D+02
 0.129719661072372D+03 0.472849503207284D+02 -.379527012406282D+02 0.817539017788538D+02
 0.000000000000000D+00 -.000000000000000D+00 0.000000000000000D+00 -.000000000000000D+00
 0.391175974947668D+03 0.000000000000000D+00 0.000000000000000D+00 0.391175974947668D+03
 0.542469210956205D+03 0.000000000000000D+00 0.000000000000000D+00 -.542469210956205D+03
 0.159214028109481D+03 -.136037553952516D+03 -.143541556447733D+02 -.130243204359360D+02
 0.451915507550763D+02 -.479131674497594D+00 -.323444540754391D+02 -.315576137096729D+02
 0.204398899171540D+03 0.158429960475439D+03 -.123681455475592D+03 -.371719676332449D+02
 0.182660819214592D+03 0.748324558038924D+02 -.120889048404177D+03 0.817539017788538D+02
 0.342179888653183D+03 -.967457306523179D+02 0.291269113599982D+03 -.151293236008537D+03
0.499134685506D-05 0.000000000000D+00 0.000000000000D+00 0.753528184881D-06 0.000000000000D+00  7 -2 2 24 -13 13 -24 21 0 0.69029227D-02 0.21912832D+00 0.50679128D+05 0.50679128D+05 0.50679128D+05 0.11467804D+01  1  2  2  2  7  2        2 0.968975037616D-03 0.100000000000D+01
-.272762771402D-06 0.000000000000D+00 -.191680861753D-07 0.753528184881D-06 0.000000000000D+00  7 -2 2 24 -13 13 -24 21 2 0.69029227D-02 0.21912832D+00 0.50679128D+05 0.50679128D+05 0.50679128D+05 0.11467804D+01  1  2  3  2  7  2        2 -.696370620095D-04 0.100000000000D+01
0.317832321941D-06 0.000000000000D+00 0.000000000000D+00 0.753528184881D-06 0.000000000000D+00  7 -2 2 24 -13 13 -24 21 2 0.69029227D-02 0.21912832D+00 0.50679128D+05 0.50679128D+05 0.50679128D+05 0.11467804D+01  1  2 15  2  7  2        2 0.811434382993D-04 0.100000000000D+01
-.466702912646D-06 0.000000000000D+00 -.135168733310D-05 0.753528184881D-06 0.000000000000D+00  7 -2 2 24 -13 13 -24 21 2 0.69029227D-02 0.53956847D+00 0.50679128D+05 0.50679128D+05 0.50679128D+05 0.11467804D+01  1  2  5  2  7  2        2 -.748834479724D-05 0.100000000000D+01
0.379682844070D-07 0.000000000000D+00 -.133759616496D-06 0.753528184881D-06 0.000000000000D+00  7 -2 21 24 -13 13 -24 -2 2 0.69029227D-02 0.53956847D+00 0.50679128D+05 0.50679128D+05 0.50679128D+05 0.11467804D+01  1  2  5  4  7  2        2 0.233537333276D-07 0.100000000000D+01
  </mgrwgt>
  </event>
  <event>
  8     66 0.27011060E-05 0.67673215E+02 0.75467711E-02 0.10338145E+00
       -2 -1    0    0    0  501 0.00000000E+00 0.00000000E+00 0.93898229E+02 0.93898774E+02 0.32000000E+00 0.0000E+00 0.9000E+01
        2 -1    0    0  501    0 0.00000000E+00 0.00000000E+00 -.12575268E+04 0.12575268E+04 0.32000000E+00 0.0000E+00 0.9000E+01
       25  2    1    2    0    0 -.10935445E+03 0.33685180E+02 -.20214895E+03 0.37915566E+03 0.29966937E+03 0.0000E+00 0.0000E+00
       23  2    1    2    0    0 0.10935445E+03 -.33685180E+02 -.96147958E+03 0.97226991E+03 0.88163006E+02 0.0000E+00 0.0000E+00
       24  1    3    3    0    0 -.26352719E+02 0.12998910E+03 -.16018724E+03 0.22297713E+03 0.80419002E+02 0.0000E+00 0.9000E+01
      -13  1    4    4    0    0 0.73288127E+01 -.39488446E+02 -.20277558E+03 0.20671477E+03 0.10565837E+00 0.0000E+00 0.9000E+01
       13  1    4    4    0    0 0.10202564E+03 0.58032654E+01 -.75870400E+03 0.76555515E+03 0.10565837E+00 0.0000E+00 0.9000E+01
      -24  1    3    3    0    0 -.83001732E+02 -.96303918E+02 -.41961706E+02 0.15617853E+03 0.80419002E+02 0.0000E+00 0.9000E+01
#aMCatNLO 1  0  0  2  1 0.50518558D+02 0.00000000D+00  -5  7  0 0.00000000D+00 0.00000000D+00 0.00000000D+00 0.00000000D+00 0.00000000D+00
  <mgrwgt>
 0.1876354462D-02    9    2    0
 0.343627605207625D+03 0.000000000000000D+00 0.000000000000000D+00 0.343627605207625D+03
 0.343627605207625D+03 0.000000000000000D+00 0.000000000000000D+00 -.343627605207625D+03
 0.167242891815374D+03 -.263527188430454D+02 0.129989098481610D+03 0.625406859085842D+02
 0.631556061209983D+02 0.732867687916653D+01 -.394885103514219D+02 -.487399079803921D+02
 0.220793285826297D+03 0.102025774206744D+03 0.580333020443913D+01 -.195721071481906D+03
 0.236063426652582D+03 -.830017322428656D+02 -.963039183346269D+02 0.181920293553714D+03
 0.000000000000000D+00 0.000000000000000D+00 -.000000000000000D+00 -.000000000000000D+00
 0.368839506095366D+03 0.000000000000000D+00 0.000000000000000D+00 0.368839506095366D+03
 0.370827617579935D+03 0.000000000000000D+00 0.000000000000000D+00 -.370827617579935D+03
 0.173354144420735D+03 -.377707963290970D+02 0.135079506159240D+03 0.625406859085842D+02
 0.616520246439266D+02 0.314466161387645D+01 -.376231925292426D+02 -.487399079803921D+02
 0.214712905706075D+03 0.874259893832361D+02 0.123122067511373D+02 -.195721071481906D+03
 0.239390386006943D+03 -.989407096748999D+02 -.891980028954712D+02 0.181920293553714D+03
 0.505576628976204D+02 0.461408550068845D+02 -.205705174856640D+02 -.198811148456886D+01
0.118966925727D-04 0.000000000000D+00 0.000000000000D+00 0.314895332889D-06 0.000000000000D+00  7 -2 2 24 -13 13 -24 21 0 0.14445926D-01 0.19346570D+00 0.50153270D+05 0.50153270D+05 0.50153270D+05 0.11471785D+01  1  2  2  2  7  2        2 0.917807122828D-03 0.100000000000D+01
-.513626644478D-06 0.000000000000D+00 -.456864319501D-07 0.314895332889D-06 0.000000000000D+00  7 -2 2 24 -13 13 -24 21 2 0.14445926D-01 0.19346570D+00 0.50153270D+05 0.50153270D+05 0.50153270D+05 0.11471785D+01  1  2  3  2  7  2        2 -.521476470136D-04 0.100000000000D+01
0.699617903578D-06 0.000000000000D+00 0.000000000000D+00 0.314895332889D-06 0.000000000000D+00  7 -2 2 24 -13 13 -24 21 2 0.14445926D-01 0.19346570D+00 0.50153270D+05 0.50153270D+05 0.50153270D+05 0.11471785D+01  1  2 15  2  7  2        2 0.710310258870D-04 0.100000000000D+01
0.153631468399D-04 0.000000000000D+00 0.000000000000D+00 0.314895332889D-06 0.000000000000D+00  7 -2 2 24 -13 13 -24 21 2 0.14445926D-01 0.21535084D+00 0.60970928D+05 0.60970928D+05 0.60970928D+05 0.11397937D+01  1  2 12  2  7  2        2 0.128464841584D-02 0.100000000000D+01
-.126737342190D-04 0.000000000000D+00 0.000000000000D+00 0.314895332889D-06 0.000000000000D+00  7 -2 2 24 -13 13 -24 21 2 0.14445926D-01 0.19346570D+00 0.50153270D+05 0.50153270D+05 0.50153270D+05 0.11471785D+01  1  2  4  2  7  2        2 -.128674286177D-02 0.100000000000D+01
-.445719307947D-04 0.000000000000D+00 -.120870876937D-04 0.314895332889D-06 0.000000000000D+00  7 -2 2 24 -13 13 -24 21 2 0.14445926D-01 0.21856701D+00 0.50153270D+05 0.50153270D+05 0.50153270D+05 0.11471785D+01  1  2  5  2  7  2        2 -.368923504996D-02 0.100000000000D+01
0.457946659224D-04 0.000000000000D+00 0.119977011511D-04 0.314895332889D-06 0.000000000000D+00  7 -2 2 24 -13 13 -24 21 2 0.14445926D-01 0.19346570D+00 0.50153270D+05 0.50153270D+05 0.50153270D+05 0.11471785D+01  1  2  6  2  7  2        2 0.464945520116D-02 0.100000000000D+01
0.264834549522D-06 0.000000000000D+00 0.000000000000D+00 0.314895332889D-06 0.000000000000D+00  7 -2 21 24 -13 13 -24 -2 2 0.14445926D-01 0.21535084D+00 0.60970928D+05 0.60970928D+05 0.60970928D+05 0.11397937D+01  1  2 12  4  7  2        2 0.950406319929D-05 0.100000000000D+01
-.799851417697D-06 0.000000000000D+00 -.232530773268D-06 0.314895332889D-06 0.000000000000D+00  7 -2 21 24 -13 13 -24 -2 2 0.14445926D-01 0.21856701D+00 0.50153270D+05 0.50153270D+05 0.50153270D+05 0.11471785D+01  1  2  5  4  7  2        2 -.279658084061D-04 0.100000000000D+01
  </mgrwgt>
  </event>
  <event>
  9     66 0.27011060E-05 0.14324699E+03 0.75467711E-02 0.10928409E+00
       -2 -1    0    0    0  502 0.00000000E+00 0.00000000E+00 0.90650862E+02 0.90651427E+02 0.32000000E+00 0.0000E+00 0.9000E+01
        2 -1    0    0  501    0 0.00000000E+00 0.00000000E+00 -.11927668E+04 0.11927668E+04 0.32000000E+00 0.0000E+00 0.9000E+01
       25  2    1    2    0    0 0.26186723E+02 -.65163557E+02 -.82529534E+03 0.88073731E+03 0.29942242E+03 0.0000E+00 0.0000E+00
       23  2    1    2    0    0 -.12080853E+02 0.24977568E+02 -.40828813E+01 0.12663691E+03 0.12349255E+03 0.0000E+00 0.0000E+00
       24  1    3    3    0    0 -.21380488E+02 -.42621387E+02 -.63769787E+02 0.11317027E+03 0.80419002E+02 0.0000E+00 0.9000E+01
      -11  1    4    4    0    0 0.38142802E+02 -.22307861E+01 -.42997435E+02 0.57520685E+02 0.51099893E-03 0.0000E+00 0.9000E+01
       11  1    4    4    0    0 -.50223655E+02 0.27208354E+02 0.38914554E+02 0.69116225E+02 0.51099893E-03 0.0000E+00 0.9000E+01
      -24  1    3    3    0    0 0.47567210E+02 -.22542170E+02 -.76152555E+03 0.76756704E+03 0.80419002E+02 0.0000E+00 0.9000E+01
       21  1    1    2  501  502 -.14105870E+02 0.40185989E+02 -.27273768E+03 0.27604401E+03 0.75000000E+00 0.0000E+00 0.9000E+01
#aMCatNLO 2  0  0  1  1 0.42589779D+02 0.00000000D+00  -5  7  0 0.00000000D+00 0.00000000D+00 0.00000000D+00 0.00000000D+00 0.00000000D+00
  <mgrwgt>
 0.5472806984D-04    1    2    0
 0.285096784267054D+03 0.000000000000000D+00 0.000000000000000D+00 0.285096784267054D+03
 0.285096784267054D+03 0.000000000000000D+00 0.000000000000000D+00 -.285096784267054D+03
 0.104708907906435D+03 -.239941439146694D+02 -.351753828226598D+02 0.518045648728873D+02
 0.379801449757760D+02 0.371922694622733D+02 0.477166062795000D+00 0.768106875214229D+01
 0.181872675257599D+03 -.546715301741630D+02 0.398798396517772D+02 0.168814371968504D+03
 0.245631840394299D+03 0.414734046265592D+02 -.518162289191244D+01 -.228300005593533D+03
 0.000000000000000D+00 -.000000000000000D+00 0.000000000000000D+00 -.000000000000000D+00
 0.291199955394057D+03 0.000000000000000D+00 0.000000000000000D+00 0.291199955394057D+03
 0.371307034879772D+03 0.000000000000000D+00 0.000000000000000D+00 -.371307034879772D+03
 0.106886092522363D+03 -.213804876235598D+02 -.426213869745960D+02 0.518045648728873D+02
 0.389724058305333D+02 0.381428000425056D+02 -.223078550337950D+01 0.768106875214229D+01
 0.178216166721941D+03 -.502236534980084D+02 0.272083539975225D+02 0.168814371968504D+03
 0.247707281906942D+03 0.475672107091230D+02 -.225421708515684D+02 -.228300005593533D+03
 0.907250432920497D+02 -.141058696300604D+02 0.401859893320214D+02 -.801070794857153D+02
0.447774855560D-06 0.000000000000D+00 0.000000000000D+00 0.165870194604D-08 0.687572172159D-11  7 -2 2 24 -11 11 -24 21 2 0.13946260D-01 0.18350166D+00 0.26818212D+05 0.26818212D+05 0.26818212D+05 0.11718807D+01  1  2  1  1  7  1       -2 0.547280698425D-04 0.100000000000D+01
  </mgrwgt>
  </event>
  <event>
  8     66 0.27011060E-05 0.10788243E+03 0.75467711E-02 0.10525423E+00
       -2 -1    0    0    0  501 0.00000000E+00 0.00000000E+00 0.74450443E+03 0.74450450E+03 0.32000000E+00 0.0000E+00 0.9000E+01
        2 -1    0    0  501    0 0.00000000E+00 0.00000000E+00 -.15227434E+03 0.15227468E+03 0.32000000E+00 0.0000E+00 0.9000E+01
       25  2    1    2    0    0 -.33306054E+02 -.12293239E+03 0.46396963E+02 0.32892118E+03 0.29969117E+03 0.0000E+00 0.0000E+00
       23  2    1    2    0    0 0.33306054E+02 0.12293239E+03 0.54583313E+03 0.56785800E+03 0.91144092E+02 0.0000E+00 0.0000E+00
       24  1    3    3    0    0 0.23866322E+02 -.14219499E+03 0.12019147E+03 0.20421122E+03 0.80419002E+02 0.0000E+00 0.9000E+01
      -11  1    4    4    0    0 0.16884707E+02 0.11007096E+03 0.28183911E+03 0.30304125E+03 0.51099893E-03 0.0000E+00 0.9000E+01
       11  1    4    4    0    0 0.16421347E+02 0.12861424E+02 0.26399401E+03 0.26481676E+03 0.51099893E-03 0.0000E+00 0.9000E+01
      -24  1    3    3    0    0 -.57172376E+02 0.19262604E+02 -.73794507E+02 0.12470996E+03 0.80419002E+02 0.0000E+00 0.9000E+01
#aMCatNLO 1  0  0  2  1 0.27536207D+02 0.00000000D+00  -5  7  0 0.00000000D+00 0.00000000D+00 0.00000000D+00 0.00000000D+00 0.00000000D+00
  <mgrwgt>
 0.7186880054D-03    9    2    0
 0.336703290670766D+03 0.000000000000000D+00 0.000000000000000D+00 0.336703290670766D+03
 0.336703290670766D+03 0.000000000000000D+00 0.000000000000000D+00 -.336703290670766D+03
 0.166246320992460D+03 0.238663220860075D+02 -.142194992755448D+03 -.195347381482949D+02
 0.155697137578615D+03 0.168847069500068D+02 0.110070964005009D+03 0.108815845373707D+03
 0.120487325869023D+03 0.164213469898036D+02 0.128614244563195D+02 0.118668103629674D+03
 0.230975796901435D+03 -.571723760258179D+02 0.192626042941197D+02 -.207949210855086D+03
 0.000000000000000D+00 -.000000000000000D+00 -.000000000000000D+00 -.000000000000000D+00
 0.345591557969837D+03 0.000000000000000D+00 0.000000000000000D+00 0.345591557969837D+03
 0.359008963132855D+03 0.000000000000000D+00 0.000000000000000D+00 -.359008963132855D+03
 0.161279685246313D+03 0.262081946125313D+02 -.135924410829727D+03 -.195347381482949D+02
 0.160285252909552D+03 0.191440404534663D+02 0.116120540004775D+03 0.108815845373707D+03
 0.121315622062845D+03 0.181502835316588D+02 0.174908131644098D+02 0.118668103629674D+03
 0.231088776253400D+03 -.538685274497071D+02 0.281089667378657D+02 -.207949210855086D+03
 0.306311846305832D+02 -.963399114794927D+01 -.257959090773233D+02 -.134174051630179D+02
0.282485494820D-04 0.000000000000D+00 0.000000000000D+00 0.169552981916D-05 0.000000000000D+00  7 -2 2 24 -11 11 -24 21 0 0.11453917D+00 0.23426853D-01 0.39570140D+05 0.39570140D+05 0.39570140D+05 0.11563410D+01  1  2  2  2  7  2        2 0.501438750931D-03 0.100000000000D+01
-.104085710459D-05 0.000000000000D+00 -.108481868025D-06 0.169552981916D-05 0.000000000000D+00  7 -2 2 24 -11 11 -24 21 2 0.11453917D+00 0.23426853D-01 0.39570140D+05 0.39570140D+05 0.39570140D+05 0.11563410D+01  1  2  3  2  7  2        2 -.247049904065D-04 0.100000000000D+01
0.163762647910D-05 0.000000000000D+00 0.000000000000D+00 0.169552981916D-05 0.000000000000D+00  7 -2 2 24 -11 11 -24 21 2 0.11453917D+00 0.23426853D-01 0.39570140D+05 0.39570140D+05 0.39570140D+05 0.11563410D+01  1  2 15  2  7  2        2 0.388694531433D-04 0.100000000000D+01
0.910463823315D-04 0.000000000000D+00 0.000000000000D+00 0.169552981916D-05 0.000000000000D+00  7 -2 2 24 -11 11 -24 21 2 0.11453917D+00 0.25273236D-01 0.46508260D+05 0.46508260D+05 0.46508260D+05 0.11500711D+01  1  2 12  2  7  2        2 0.195518365550D-02 0.100000000000D+01
-.882406624460D-04 0.000000000000D+00 0.000000000000D+00 0.169552981916D-05 0.000000000000D+00  7 -2 2 24 -11 11 -24 21 2 0.11453917D+00 0.23426853D-01 0.39570140D+05 0.39570140D+05 0.39570140D+05 0.11563410D+01  1  2  4  2  7  2        2 -.209441306552D-02 0.100000000000D+01
-.226874219861D-03 0.000000000000D+00 -.469612335590D-04 0.169552981916D-05 0.000000000000D+00  7 -2 2 24 -11 11 -24 21 2 0.11453917D+00 0.25594382D-01 0.39570140D+05 0.39570140D+05 0.39570140D+05 0.11563410D+01  1  2  5  2  7  2        2 -.486647005389D-02 0.100000000000D+01
0.230310773798D-03 0.000000000000D+00 0.467779672629D-04 0.169552981916D-05 0.000000000000D+00  7 -2 2 24 -11 11 -24 21 2 0.11453917D+00 0.23426853D-01 0.39570140D+05 0.39570140D+05 0.39570140D+05 0.11563410D+01  1  2  6  2  7  2        2 0.546648087628D-02 0.100000000000D+01
0.118936251226D-05 0.000000000000D+00 0.000000000000D+00 0.169552981916D-05 0.000000000000D+00  7 -2 21 24 -11 11 -24 -2 2 0.11453917D+00 0.25273236D-01 0.46508260D+05 0.46508260D+05 0.46508260D+05 0.11500711D+01  1  2 12  4  7  2        2 0.154683483806D-03 0.100000000000D+01
-.318954916261D-05 0.000000000000D+00 -.685700046705D-06 0.169552981916D-05 0.000000000000D+00  7 -2 21 24 -11 11 -24 -2 2 0.11453917D+00 0.25594382D-01 0.39570140D+05 0.39570140D+05 0.39570140D+05 0.11563410D+01  1  2  5  4  7  2        2 -.412380104444D-03 0.100000000000D+01
  </mgrwgt>
  </event>
  <event>
  9     66 0.27011060E-05 0.36906056E+03 0.75467711E-02 0.93675014E-01
       -2 -1    0    0    0  502 0.00000000E+00 0.00000000E+00 0.44495246E+03 0.44495258E+03 0.32000000E+00 0.0000E+00 0.9000E+01
        2 -1    0    0  501    0 0.00000000E+00 0.00000000E+00 -.30326258E+04 0.30326258E+04 0.32000000E+00 0.0000E+00 0.9000E+01
       25  2    1    2    0    0 0.15453409E+03 0.19859864E+02 -.27417409E+03 0.43559890E+03 0.30049920E+03 0.0000E+00 0.0000E+00
       23  2    1    2    0    0 -.45340659E+03 -.51911794E+02 -.25912585E+04 0.26327083E+04 0.90883474E+02 0.0000E+00 0.0000E+00
       24  1    3    3    0    0 0.14362322E+03 0.11326540E+03 -.10417552E+03 0.22533628E+03 0.80419002E+02 0.0000E+00 0.9000E+01
      -11  1    4    4    0    0 -.59339486E+01 -.13962881E+02 -.57918747E+02 0.59872823E+02 0.51099893E-03 0.0000E+00 0.9000E+01
       11  1    4    4    0    0 -.44747264E+03 -.37948913E+02 -.25333398E+04 0.25728355E+04 0.51099893E-03 0.0000E+00 0.9000E+01
      -24  1    3    3    0    0 0.10910868E+02 -.93405541E+02 -.16999857E+03 0.21026263E+03 0.80419002E+02 0.0000E+00 0.9000E+01
       21  1    1    2  501  502 0.29887250E+03 0.32051930E+02 0.27775931E+03 0.40927117E+03 0.75000000E+00 0.0000E+00 0.9000E+01
#aMCatNLO 2  0  0  1  2 0.30058625D+03 0.00000000D+00  -5  7  0 0.00000000D+00 0.00000000D+00 0.00000000D+00 0.00000000D+00 0.00000000D+00
  <mgrwgt>
 0.4403655670D-03    2    2    0
 0.527601372908651D+03 0.000000000000000D+00 0.000000000000000D+00 0.527601372908651D+03
 0.527601372908651D+03 0.000000000000000D+00 0.000000000000000D+00 -.527601372908651D+03
 0.416458724766362D+03 0.251174844845476D+03 0.124799544149959D+03 0.297164810461245D+03
 0.147127343568639D+02 -.164510401961347D+01 -.135029327648165D+02 -.560615659513208D+01
 0.474014608764128D+03 -.301271418782647D+03 -.222698818675019D+02 -.365279939098916D+03
 0.150016677929948D+03 0.517416779567845D+02 -.890267295176408D+02 0.737212852328040D+02
 0.000000000000000D+00 0.000000000000000D+00 0.000000000000000D+00 0.000000000000000D+00
 0.240637918367839D+04 0.000000000000000D+00 0.000000000000000D+00 0.240637918367839D+04
 0.560748774973857D+03 0.000000000000000D+00 0.000000000000000D+00 -.560748774973857D+03
 0.358093315672690D+03 0.143623223339499D+03 0.113265404763307D+03 0.297164810461245D+03
 0.161741389586450D+02 -.593394858382073D+01 -.139628805584302D+02 -.560615659513208D+01
 0.578879363252270D+03 -.447472639684527D+03 -.379489133573930D+02 -.365279939098916D+03
 0.144033627818982D+03 0.109108679705391D+02 -.934055407996735D+02 0.737212852328040D+02
 0.186994751294966D+04 0.298872496958310D+03 0.320519299521900D+02 0.184563040870453D+04
-.480670328083D-04 0.000000000000D+00 0.000000000000D+00 0.628946289393D-05 0.000000000000D+00  7 -2 2 24 -11 11 -24 21 2 0.66614726D-01 0.43897825D+00 0.29614459D+06 0.29614459D+06 0.29614459D+06 0.10849677D+01  1  2 13  1  7  1       -2 -.333915448878D-04 0.100000000000D+01
0.935943185173D-03 0.000000000000D+00 0.000000000000D+00 0.628946289393D-05 0.122615935414D-08  7 -2 2 24 -11 11 -24 21 2 0.68454226D-01 0.46655776D+00 0.29614459D+06 0.29614459D+06 0.29614459D+06 0.10849677D+01  1  2  1  1  7  1       -2 0.473757111926D-03 0.100000000000D+01
  </mgrwgt>
  </event>
  <event>
  8     66 0.27011060E-05 0.41966603E+03 0.75467711E-02 0.94852927E-01
       -2 -1    0    0    0  501 0.00000000E+00 0.00000000E+00 0.90899106E+02 0.90899669E+02 0.32000000E+00 0.0000E+00 0.9000E+01
        2 -1    0    0  501    0 0.00000000E+00 0.00000000E+00 -.21121067E+04 0.21121067E+04 0.32000000E+00 0.0000E+00 0.9000E+01
       25  2    1    2    0    0 -.25462993E+02 -.37394818E+03 -.12867922E+04 0.13732147E+04 0.29899644E+03 0.0000E+00 0.0000E+00
       23  2    1    2    0    0 0.25462993E+02 0.37394818E+03 -.73441537E+03 0.82979166E+03 0.93288002E+02 0.0000E+00 0.0000E+00
       24  1    3    3    0    0 0.36713803E+02 -.33632536E+03 -.11322592E+04 0.11844580E+04 0.80419002E+02 0.0000E+00 0.9000E+01
      -11  1    4    4    0    0 -.28981478E+02 0.11670994E+03 -.18421559E+03 0.21999209E+03 0.51099893E-03 0.0000E+00 0.9000E+01
       11  1    4    4    0    0 0.54444471E+02 0.25723824E+03 -.55019978E+03 0.60979957E+03 0.51099893E-03 0.0000E+00 0.9000E+01
      -24  1    3    3    0    0 -.62176796E+02 -.37622823E+02 -.15453299E+03 0.18875670E+03 0.80419002E+02 0.0000E+00 0.9000E+01
#aMCatNLO 1  0  0  1  2 0.13127681D+03 0.00000000D+00  -5  7  0 0.00000000D+00 0.00000000D+00 0.00000000D+00 0.00000000D+00 0.00000000D+00
  <mgrwgt>
 0.6687550118D-03    4    2    0
 0.438165784420462D+03 0.000000000000000D+00 0.000000000000000D+00 0.438165784420462D+03
 0.438165784420462D+03 0.000000000000000D+00 0.000000000000000D+00 -.438165784420462D+03
 0.366114459653472D+03 0.367138028311734D+02 -.336325358429803D+03 -.114498609475056D+03
 0.128154722938990D+03 -.289814778429702D+02 0.116709938692959D+03 0.443000808564998D+02
 0.263969001096583D+03 0.544444708053453D+02 0.257238242626024D+03 0.233220854412372D+02
 0.118093385151880D+03 -.621767957935485D+02 -.376228228891796D+02 0.468764431773193D+02
 0.000000000000000D+00 -.000000000000000D+00 0.000000000000000D+00 -.000000000000000D+00
 0.453978908329213D+03 0.000000000000000D+00 0.000000000000000D+00 0.453978908329213D+03
 0.837452727677753D+03 0.000000000000000D+00 0.000000000000000D+00 -.837452727677753D+03
 0.383071041656760D+03 0.919070311022690D+02 -.344556777707056D+03 -.114498609475056D+03
 0.122711754290331D+03 -.104998992231647D+02 0.113953629136686D+03 0.443000808564998D+02
 0.269296950708001D+03 0.937306947854936D+02 0.251379165497716D+03 0.233220854412372D+02
 0.111030077159354D+03 -.452970463383185D+02 -.401402385108665D+02 0.468764431773193D+02
 0.405321812192521D+03 -.129840780326279D+03 0.193642215835209D+02 -.383473819348540D+03
0.247372147769D-04 0.000000000000D+00 0.000000000000D+00 0.115047628724D-06 0.000000000000D+00  7 -2 2 24 -11 11 -24 21 0 0.13984523D-01 0.32493953D+00 0.17611958D+06 0.17611958D+06 0.17611958D+06 0.11020920D+01  1  2  2  1  7  1       -2 0.677520097497D-03 0.100000000000D+01
-.137118027139D-05 0.000000000000D+00 -.949974182017D-07 0.115047628724D-06 0.000000000000D+00  7 -2 2 24 -11 11 -24 21 2 0.13984523D-01 0.32493953D+00 0.17611958D+06 0.17611958D+06 0.17611958D+06 0.11020920D+01  1  2  3  1  7  1       -2 -.456143619297D-04 0.100000000000D+01
0.165614183147D-05 0.000000000000D+00 0.000000000000D+00 0.115047628724D-06 0.000000000000D+00  7 -2 2 24 -11 11 -24 21 2 0.13984523D-01 0.32493953D+00 0.17611958D+06 0.17611958D+06 0.17611958D+06 0.11020920D+01  1  2 15  1  7  1       -2 0.550940343033D-04 0.100000000000D+01
-.548442446933D-06 0.000000000000D+00 0.000000000000D+00 0.115047628724D-06 0.000000000000D+00  7 -2 2 24 -11 11 -24 21 2 0.13984523D-01 0.32493953D+00 0.17611958D+06 0.17611958D+06 0.17611958D+06 0.11020920D+01  1  2  4  1  7  1       -2 -.182447580337D-04 0.100000000000D+01
  </mgrwgt>
  </event>
  <event>
  7     66 0.27011060E-05 0.31238918E+03 0.75467711E-02 0.89184727E-01
       -2 -1    0    0    0  501 0.00000000E+00 0.00000000E+00 0.66003495E+03 0.66003502E+03 0.32000000E+00 0.0000E+00 0.9000E+01
        2 -1    0    0  501    0 0.00000000E+00 0.00000000E+00 -.82352557E+03 0.82352563E+03 0.32000000E+00 0.0000E+00 0.9000E+01
       25  2    1    2    0    0 -.10330433E+03 -.59002396E+03 -.38595572E+03 0.77338179E+03 0.30059528E+03 0.0000E+00 0.0000E+00
       24  1    3    3    0    0 -.97979337E+02 -.57303306E+03 -.32456668E+03 0.67065460E+03 0.80419002E+02 0.0000E+00 0.9000E+01
      -13  1    1    2    0    0 0.14351914E+03 0.31987017E+03 0.25724273E+03 0.43484308E+03 0.10565837E+00 0.0000E+00 0.9000E+01
       13  1    1    2    0    0 -.40214812E+02 0.27015379E+03 -.34777631E+02 0.27533579E+03 0.10565837E+00 0.0000E+00 0.9000E+01
      -24  1    3    3    0    0 -.53249944E+01 -.16990894E+02 -.61389039E+02 0.10272719E+03 0.80419002E+02 0.0000E+00 0.9000E+01
#aMCatNLO 1  0  0  1  2 0.33174533D+03 0.00000000D+00  -5  7  0 0.00000000D+00 0.00000000D+00 0.00000000D+00 0.00000000D+00 0.00000000D+00
  <mgrwgt>
 0.5668312705D-02    9    2    0
 0.737262341341910D+03 0.000000000000000D+00 0.000000000000000D+00 0.737262341341910D+03
 0.737262341341910D+03 0.000000000000000D+00 0.000000000000000D+00 -.737262341341910D+03
 0.638778135159263D+03 -.979794382282463D+02 -.573033641338859D+03 -.252195887320907D+03
 0.466029868783933D+03 0.143518407914555D+03 0.319871146928196D+03 0.307032171850576D+03
 0.273166550361397D+03 -.402139600391914D+02 0.270153475827426D+03 -.446107079882518D+01
 0.965501283792282D+02 -.532500964711724D+01 -.169909814167634D+02 -.503752137308439D+02
 0.000000000000000D+00 0.000000000000000D+00 -.000000000000000D+00 0.000000000000000D+00
 0.968497097902029D+03 0.000000000000000D+00 0.000000000000000D+00 0.968497097902029D+03
 0.884981840623147D+03 0.000000000000000D+00 0.000000000000000D+00 -.884981840623147D+03
 0.616059425086344D+03 -.222303623883635D+03 -.509941499105506D+03 -.252195887320907D+03
 0.481452873265545D+03 0.496456836196429D+02 0.367509755955275D+03 0.307032171850576D+03
 0.315568547689945D+03 -.985434314790265D+02 0.299754565020797D+03 -.446107079882518D+01
 0.983019651542627D+02 -.246301600659949D+02 -.719398745582754D+01 -.503752137308439D+02
 0.342096127329079D+03 0.295831531809013D+03 -.150128834414739D+03 0.835152572788823D+02
0.135829584070D-02 0.000000000000D+00 0.000000000000D+00 0.604115657972D-09 0.000000000000D+00  7 -2 2 24 -13 13 -24 21 0 0.10154385D+00 0.12669625D+00 0.41794601D+06 0.41794601D+06 0.41794601D+06 0.10740563D+01  1  2  2  1  7  1       -2 0.445994126607D-02 0.100000000000D+01
-.738769786985D-04 0.000000000000D+00 -.521621367580D-05 0.604115657972D-09 0.000000000000D+00  7 -2 2 24 -13 13 -24 21 2 0.10154385D+00 0.12669625D+00 0.41794601D+06 0.41794601D+06 0.41794601D+06 0.10740563D+01  1  2  3  1  7  1       -2 -.279832385299D-03 0.100000000000D+01
0.843643941158D-04 0.000000000000D+00 0.000000000000D+00 0.604115657972D-09 0.000000000000D+00  7 -2 2 24 -13 13 -24 21 2 0.10154385D+00 0.12669625D+00 0.41794601D+06 0.41794601D+06 0.41794601D+06 0.10740563D+01  1  2 15  1  7  1       -2 0.319556782853D-03 0.100000000000D+01
0.401612629339D-03 0.000000000000D+00 0.000000000000D+00 0.604115657972D-09 0.000000000000D+00  7 -2 2 24 -13 13 -24 21 2 0.14093892D+00 0.12669625D+00 0.69273734D+06 0.69273734D+06 0.69273734D+06 0.10586446D+01  1  2 12  1  7  1       -2 0.621844003820D-03 0.100000000000D+01
-.630277703309D-03 0.000000000000D+00 0.000000000000D+00 0.604115657972D-09 0.000000000000D+00  7 -2 2 24 -13 13 -24 21 2 0.10154385D+00 0.12669625D+00 0.41794601D+06 0.41794601D+06 0.41794601D+06 0.10740563D+01  1  2  4  1  7  1       -2 -.238737582702D-02 0.100000000000D+01
-.101426473890D-02 0.000000000000D+00 -.505292472348D-03 0.604115657972D-09 0.000000000000D+00  7 -2 2 24 -13 13 -24 21 2 0.15241929D+00 0.12669625D+00 0.41794601D+06 0.41794601D+06 0.41794601D+06 0.10740563D+01  1  2  5  1  7  1       -2 -.133530599235D-02 0.100000000000D+01
0.116136742879D-02 0.000000000000D+00 0.466301871136D-03 0.604115657972D-09 0.000000000000D+00  7 -2 2 24 -13 13 -24 21 2 0.10154385D+00 0.12669625D+00 0.41794601D+06 0.41794601D+06 0.41794601D+06 0.10740563D+01  1  2  6  1  7  1       -2 0.439904586695D-02 0.100000000000D+01
0.165501678519D-04 0.000000000000D+00 0.000000000000D+00 0.604115657972D-09 0.000000000000D+00  7 21 2 24 -13 13 -24 2 2 0.14093892D+00 0.12669625D+00 0.69273734D+06 0.69273734D+06 0.69273734D+06 0.10586446D+01  1  2 12  3  7  1       -2 0.215141439934D-03 0.100000000000D+01
-.312176643605D-04 0.000000000000D+00 -.243228668711D-04 0.604115657972D-09 0.000000000000D+00  7 21 2 24 -13 13 -24 2 2 0.15241929D+00 0.12669625D+00 0.41794601D+06 0.41794601D+06 0.41794601D+06 0.10740563D+01  1  2  5  3  7  1       -2 -.344702449460D-03 0.100000000000D+01
  </mgrwgt>
  </event>
  <event>
  8     66 0.27011060E-05 0.20306899E+03 0.75467711E-02 0.10264463E+00
       -2 -1    0    0    0  501 0.00000000E+00 0.00000000E+00 0.17246115E+03 0.17246145E+03 0.32000000E+00 0.0000E+00 0.9000E+01
        2 -1    0    0  501    0 0.00000000E+00 0.00000000E+00 -.35315261E+03 0.35315275E+03 0.32000000E+00 0.0000E+00 0.9000E+01
       25  2    1    2    0    0 0.10143442E+03 -.41643427E+02 -.38614142E+02 0.32190113E+03 0.30017690E+03 0.0000E+00 0.0000E+00
       23  2    1    2    0    0 -.10143442E+03 0.41643427E+02 -.14207731E+03 0.20371307E+03 0.96384313E+02 0.0000E+00 0.0000E+00
       24  1    3    3    0    0 0.11803918E+03 0.68993223E+02 0.39572179E+02 0.16348237E+03 0.80419002E+02 0.0000E+00 0.9000E+01
      -11  1    4    4    0    0 -.26507221E+02 0.88252789E+01 -.11377663E+03 0.11715647E+03 0.51099893E-03 0.0000E+00 0.9000E+01
       11  1    4    4    0    0 -.74927196E+02 0.32818148E+02 -.28300687E+02 0.86556597E+02 0.51099893E-03 0.0000E+00 0.9000E+01
      -24  1    3    3    0    0 -.16604761E+02 -.11063665E+03 -.78186321E+02 0.15841876E+03 0.80419002E+02 0.0000E+00 0.9000E+01
#aMCatNLO 1  0  0  2  2 0.97489265D+02 0.00000000D+00  -5  7  0 0.00000000D+00 0.00000000D+00 0.00000000D+00 0.00000000D+00 0.00000000D+00
  <mgrwgt>
 0.7338886180D-03    3    2    0
 0.246789832064697D+03 0.000000000000000D+00 0.000000000000000D+00 0.246789832064697D+03
 0.246789832064697D+03 0.000000000000000D+00 0.000000000000000D+00 -.246789832064697D+03
 0.188579508284654D+03 0.118039178256051D+03 0.689932227625632D+02 0.101988737613439D+03
 0.831084515774893D+02 -.265072213555995D+02 0.882527897797914D+01 -.782719387173589D+02
 0.818139137892486D+02 -.749271963693744D+02 0.328181478538132D+02 0.154948545816508D+01
 0.140077790478001D+03 -.166047605310774D+02 -.110636649594356D+03 -.252662843542449D+02
 0.000000000000000D+00 0.000000000000000D+00 -.000000000000000D+00 0.000000000000000D+00
 0.825710867579692D+03 0.000000000000000D+00 0.000000000000000D+00 0.825710867579692D+03
 0.255696004706797D+03 0.000000000000000D+00 0.000000000000000D+00 -.255696004706797D+03
 0.202350682803811D+03 0.112533015981371D+03 0.106832582066295D+03 0.101988737613439D+03
 0.871929237245100D+02 -.289058772522012D+02 0.253092832244398D+02 -.782719387173589D+02
 0.919400767066267D+02 -.773744815608294D+02 0.496363415536258D+02 0.154948545816508D+01
 0.121631653027799D+03 -.202908781490258D+02 -.853049717353933D+02 -.252662843542449D+02
 0.578291536023742D+03 0.140382209806849D+02 -.964732351089670D+02 0.570014862872895D+03
0.536928738343D-05 0.000000000000D+00 0.000000000000D+00 0.447219009083D-07 0.000000000000D+00  7 -2 2 24 -11 11 -24 21 0 0.26532519D-01 0.54331204D-01 0.41237013D+05 0.41237013D+05 0.41237013D+05 0.11547296D+01  1  2  2  2  7  2        2 0.723181797869D-03 0.100000000000D+01
-.284503996825D-06 0.000000000000D+00 -.206194773182D-07 0.447219009083D-07 0.000000000000D+00  7 -2 2 24 -11 11 -24 21 2 0.26532519D-01 0.54331204D-01 0.41237013D+05 0.41237013D+05 0.41237013D+05 0.11547296D+01  1  2  3  2  7  2        2 -.510951689849D-04 0.100000000000D+01
0.344120848566D-06 0.000000000000D+00 0.000000000000D+00 0.447219009083D-07 0.000000000000D+00  7 -2 2 24 -11 11 -24 21 2 0.26532519D-01 0.54331204D-01 0.41237013D+05 0.41237013D+05 0.41237013D+05 0.11547296D+01  1  2 15  2  7  2        2 0.618019890932D-04 0.100000000000D+01
  </mgrwgt>
  </event>
  <event>
  9     66 -.27011060E-05 0.37152711E+03 0.75467711E-02 0.97643602E-01
       -2 -1    0    0    0  501 0.00000000E+00 0.00000000E+00 0.79554949E+02 0.79555593E+02 0.32000000E+00 0.0000E+00 0.9000E+01
        2 -1    0    0  502    0 0.00000000E+00 0.00000000E+00 -.20939040E+04 0.20939040E+04 0.32000000E+00 0.0000E+00 0.9000E+01
       25  2    1    2    0    0 -.29162833E+03 0.14590836E+03 -.12834666E+04 0.13579810E+04 0.30081523E+03 0.0000E+00 0.0000E+00
       23  2    1    2    0    0 0.27126274E+03 -.16765149E+03 -.67564336E+03 0.75271356E+03 0.91614749E+02 0.0000E+00 0.0000E+00
       24  1    3    3    0    0 -.11934798E+02 0.95476100E+02 -.60741555E+03 0.62022495E+03 0.80419002E+02 0.0000E+00 0.9000E+01
      -13  1    4    4    0    0 0.50289448E+02 -.53848626E+02 -.24108565E+03 0.25209325E+03 0.10565837E+00 0.0000E+00 0.9000E+01
       13  1    4    4    0    0 0.22097329E+03 -.11380286E+03 -.43455771E+03 0.50062032E+03 0.10565837E+00 0.0000E+00 0.9000E+01
      -24  1    3    3    0    0 -.27969353E+03 0.50432259E+02 -.67605100E+03 0.73775610E+03 0.80419002E+02 0.0000E+00 0.9000E+01
       21  1    1    2  502  501 0.20365589E+02 0.21743129E+02 -.55239108E+02 0.62764977E+02 0.75000000E+00 0.0000E+00 0.9000E+01
#aMCatNLO 2  0  0  2  1 0.29791288D+02 0.00000000D+00  -5  7  0 0.00000000D+00 0.00000000D+00 0.00000000D+00 0.00000000D+00 0.00000000D+00
  <mgrwgt>
 -.5716477241D-03    3    2    0
 0.392438710050325D+03 0.000000000000000D+00 0.000000000000000D+00 0.392438710050325D+03
 0.392438710050325D+03 0.000000000000000D+00 0.000000000000000D+00 -.392438710050325D+03
 0.154093525173067D+03 -.796960127315809D+01 0.997095053562528D+02 -.852766002080904D+02
 0.759758257279431D+02 0.522616056299556D+02 -.517427491082433D+02 -.190719319090428D+02
 0.264163926347564D+03 0.227789520796228D+03 -.106525898387608D+03 0.809119717439822D+02
 0.290644142852075D+03 -.272081525153026D+03 0.585591421395985D+02 0.234365603731509D+02
 0.000000000000000D+00 0.000000000000000D+00 0.000000000000000D+00 0.000000000000000D+00
 0.412214499511880D+03 0.000000000000000D+00 0.000000000000000D+00 0.412214499511880D+03
 0.404103746053122D+03 0.000000000000000D+00 0.000000000000000D+00 -.404103746053122D+03
 0.151649067378043D+03 -.119347980470131D+02 0.954761003329439D+02 -.852766002080904D+02
 0.761078862042003D+02 0.502892214787078D+02 -.538485464872898D+02 -.190719319090428D+02
 0.261394627778403D+03 0.220973515653131D+03 -.113802942140378D+03 0.809119717439822D+02
 0.296291023451495D+03 -.279693527813401D+03 0.504322591278021D+02 0.234365603731509D+02
 0.308756407528601D+02 0.203655887285748D+02 0.217431291669223D+02 0.811075345875802D+01
-.314216080383D-04 0.000000000000D+00 0.000000000000D+00 0.791935261576D-06 0.000000000000D+00  7 -2 2 24 -13 13 -24 21 2 0.11651971D-01 0.32971474D+00 0.14930142D+06 0.14930142D+06 0.14930142D+06 0.11077119D+01  1  2 13  2  7  2        2 -.136253653946D-02 0.100000000000D+01
-.199233503013D-05 0.000000000000D+00 0.000000000000D+00 0.791935261576D-06 0.000000000000D+00  7 -2 2 24 -13 13 -24 21 2 0.11651971D-01 0.31283662D+00 0.13803239D+06 0.13803239D+06 0.13803239D+06 0.11104128D+01  1  2  8  2  7  2        2 -.998567492782D-04 0.100000000000D+01
0.208581908902D-04 0.000000000000D+00 0.000000000000D+00 0.791935261576D-06 0.584922729511D-08  7 -2 2 24 -13 13 -24 21 2 0.12239137D-01 0.32213552D+00 0.14930142D+06 0.14930142D+06 0.14930142D+06 0.11077119D+01  1  2  1  2  7  2        2 0.890745564647D-03 0.100000000000D+01
  </mgrwgt>
  </event>
  <event>
  8     66 0.27011060E-05 0.41899934E+03 0.75467711E-02 0.89332699E-01
       -2 -1    0    0    0  501 0.00000000E+00 0.00000000E+00 0.16609790E+03 0.16609821E+03 0.32000000E+00 0.0000E+00 0.9000E+01
        2 -1    0    0  501    0 0.00000000E+00 0.00000000E+00 -.36437406E+04 0.36437406E+04 0.32000000E+00 0.0000E+00 0.9000E+01
       25  2    1    2    0    0 -.17534090E+03 0.69759432E+03 -.13163719E+04 0.15302287E+04 0.30229558E+03 0.0000E+00 0.0000E+00
       23  2    1    2    0    0 0.17534090E+03 -.69759432E+03 -.21612708E+04 0.22796101E+04 0.90269610E+02 0.0000E+00 0.0000E+00
       24  1    3    3    0    0 -.20487519E+03 0.50319764E+03 -.10852131E+04 0.12162797E+04 0.80419002E+02 0.0000E+00 0.9000E+01
      -13  1    4    4    0    0 0.96867831E+02 -.37327573E+03 -.12987532E+04 0.13547981E+04 0.10565837E+00 0.0000E+00 0.9000E+01
       13  1    4    4    0    0 0.78473071E+02 -.32431859E+03 -.86251758E+03 0.92481196E+03 0.10565837E+00 0.0000E+00 0.9000E+01
      -24  1    3    3    0    0 0.29534290E+02 0.19439668E+03 -.23115881E+03 0.31394897E+03 0.80419002E+02 0.0000E+00 0.9000E+01
#aMCatNLO 1  0  0  2  1 0.15129581D+03 0.00000000D+00  -5  7  0 0.00000000D+00 0.00000000D+00 0.00000000D+00 0.00000000D+00 0.00000000D+00
  <mgrwgt>
 0.4941344272D-03    6    2    0
 0.777957759560687D+03 0.000000000000000D+00 0.000000000000000D+00 0.777957759560687D+03
 0.777957759560687D+03 0.000000000000000D+00 0.000000000000000D+00 -.777957759560687D+03
 0.552630483439150D+03 -.204875192894249D+03 0.503197641010053D+03 0.612496913484515D+02
 0.414523259903488D+03 0.968678564054395D+02 -.373275793829670D+03 -.152024120248265D+03
 0.336686898995349D+03 0.784730462059718D+02 -.324318523975935D+03 -.449170789380902D+02
 0.252074876783387D+03 0.295342902828376D+02 0.194396676795552D+03 0.135691507837904D+03
 0.000000000000000D+00 -.000000000000000D+00 -.000000000000000D+00 0.000000000000000D+00
 0.866939129778486D+03 0.000000000000000D+00 0.000000000000000D+00 0.866939129778486D+03
 0.848705583356419D+03 0.000000000000000D+00 0.000000000000000D+00 -.848705583356419D+03
 0.601359693310376D+03 -.198020782424583D+03 0.558750847714484D+03 0.612496913484515D+02
 0.381608028385531D+03 0.101596675374287D+03 -.334949951103035D+03 -.152024120248265D+03
 0.307910240508287D+03 0.823017905668430D+02 -.293287550876323D+03 -.449170789380902D+02
 0.272376183910374D+03 0.326493972514015D+02 0.219643805209716D+03 0.135691507837904D+03
 0.152390567020337D+03 -.185270807679488D+02 -.150157150944842D+03 0.182335464220668D+02
0.654782611467D-03 0.000000000000D+00 0.000000000000D+00 0.543593781078D-06 0.000000000000D+00  7 -2 2 24 -13 13 -24 21 0 0.25553548D-01 0.56057550D+00 0.54832559D+06 0.54832559D+06 0.54832559D+06 0.10656900D+01  1  2  2  2  7  2        2 0.677797798241D-03 0.100000000000D+01
-.362690521893D-04 0.000000000000D+00 -.251453763626D-05 0.543593781078D-06 0.000000000000D+00  7 -2 2 24 -13 13 -24 21 2 0.25553548D-01 0.56057550D+00 0.54832559D+06 0.54832559D+06 0.54832559D+06 0.10656900D+01  1  2  3  2  7  2        2 -.426384134588D-04 0.100000000000D+01
0.411987384861D-04 0.000000000000D+00 0.000000000000D+00 0.543593781078D-06 0.000000000000D+00  7 -2 2 24 -13 13 -24 21 2 0.25553548D-01 0.56057550D+00 0.54832559D+06 0.54832559D+06 0.54832559D+06 0.10656900D+01  1  2 15  2  7  2        2 0.484338227639D-04 0.100000000000D+01
0.440341637652D-03 0.000000000000D+00 0.000000000000D+00 0.543593781078D-06 0.000000000000D+00  7 -2 2 24 -13 13 -24 21 2 0.25553548D-01 0.64054753D+00 0.67267422D+06 0.67267422D+06 0.67267422D+06 0.10595224D+01  1  2 12  2  7  2        2 0.191668364745D-03 0.100000000000D+01
-.324246817931D-03 0.000000000000D+00 0.000000000000D+00 0.543593781078D-06 0.000000000000D+00  7 -2 2 24 -13 13 -24 21 2 0.25553548D-01 0.56057550D+00 0.54832559D+06 0.54832559D+06 0.54832559D+06 0.10656900D+01  1  2  4  2  7  2        2 -.381189169583D-03 0.100000000000D+01
0.912347042519D-05 0.000000000000D+00 0.000000000000D+00 0.543593781078D-06 0.000000000000D+00  7 -2 21 24 -13 13 -24 -2 2 0.25553548D-01 0.64054753D+00 0.67267422D+06 0.67267422D+06 0.67267422D+06 0.10595224D+01  1  2 12  4  7  2        2 0.620244953047D-07 0.100000000000D+01
  </mgrwgt>
  </event>
  <event>
  8     66 0.27011060E-05 0.20702226E+03 0.75467711E-02 0.10148058E+00
       -2 -1    0    0    0  501 0.00000000E+00 0.00000000E+00 0.89478142E+02 0.89478714E+02 0.32000000E+00 0.0000E+00 0.9000E+01
        2 -1    0    0  501    0 0.00000000E+00 0.00000000E+00 -.62428093E+03 0.62428101E+03 0.32000000E+00 0.0000E+00 0.9000E+01
       25  2    1    2    0    0 0.59110541E+02 0.10025194E+03 -.34577927E+03 0.47314419E+03 0.30126005E+03 0.0000E+00 0.0000E+00
       23  2    1    2    0    0 -.59110541E+02 -.10025194E+03 -.18902352E+03 0.24061553E+03 0.92851692E+02 0.0000E+00 0.0000E+00
       24  1    3    3    0    0 -.51015498E+02 0.12669997E+03 -.27460732E+03 0.31706759E+03 0.80419002E+02 0.0000E+00 0.9000E+01
      -11  1    4    4    0    0 -.24420140E+02 -.34095378E+02 -.52821187E+01 0.42269833E+02 0.51099893E-03 0.0000E+00 0.9000E+01
       11  1    4    4    0    0 -.34690401E+02 -.66156564E+02 -.18374140E+03 0.19834570E+03 0.51099893E-03 0.0000E+00 0.9000E+01
      -24  1    3    3    0    0 0.11012604E+03 -.26448025E+02 -.71171951E+02 0.15607660E+03 0.80419002E+02 0.0000E+00 0.9000E+01
#aMCatNLO 1  0  0  2  1 0.13142359D+03 0.00000000D+00  -5  7  0 0.00000000D+00 0.00000000D+00 0.00000000D+00 0.00000000D+00 0.00000000D+00
  <mgrwgt>
 0.1018141703D-02    3    2    0
 0.236346633781819D+03 0.000000000000000D+00 0.000000000000000D+00 0.236346633781819D+03
 0.236346633781819D+03 0.000000000000000D+00 0.000000000000000D+00 -.236346633781819D+03
 0.168077956590554D+03 -.510154976433765D+02 0.126699967305661D+03 -.559242418118356D+02
 0.578506505139889D+02 -.244201401584320D+02 -.340953780489552D+02 0.398479574788099D+02
 0.916149286868071D+02 -.346904012938670D+02 -.661565641554817D+02 -.530394215230602D+02
 0.155149731772288D+03 0.110126039095675D+03 -.264480251012244D+02 0.691157058560860D+02
 0.000000000000000D+00 0.000000000000000D+00 0.000000000000000D+00 0.000000000000000D+00
 0.506082134237362D+03 0.000000000000000D+00 0.000000000000000D+00 0.506082134237362D+03
 0.261870353090595D+03 0.000000000000000D+00 0.000000000000000D+00 -.261870353090595D+03
 0.154789241968404D+03 -.774517737200451D+02 0.914669087712764D+02 -.559242418118356D+02
 0.717023601696307D+02 -.350279045032833D+02 -.482329207572098D+02 0.398479574788099D+02
 0.115591211595632D+03 -.516563822102814D+02 -.887680468388861D+02 -.530394215230602D+02
 0.148540347449286D+03 0.852599801962893D+02 -.595883700643619D+02 0.691157058560860D+02
 0.277329326145003D+03 0.788760802373204D+02 0.105122428889181D+03 0.244211781146767D+03
0.480288311673D-05 0.000000000000D+00 0.000000000000D+00 0.574467782861D-07 0.000000000000D+00  7 -2 2 24 -11 11 -24 21 0 0.13765918D-01 0.96043271D-01 0.42858215D+05 0.42858215D+05 0.42858215D+05 0.11532300D+01  1  2  2  2  7  2        2 0.100874098998D-02 0.100000000000D+01
-.261133500529D-06 0.000000000000D+00 -.184443357964D-07 0.574467782861D-07 0.000000000000D+00  7 -2 2 24 -11 11 -24 21 2 0.13765918D-01 0.96043271D-01 0.42858215D+05 0.42858215D+05 0.42858215D+05 0.11532300D+01  1  2  3  2  7  2        2 -.729410651427D-04 0.100000000000D+01
0.294788631259D-06 0.000000000000D+00 0.000000000000D+00 0.574467782861D-07 0.000000000000D+00  7 -2 2 24 -11 11 -24 21 2 0.13765918D-01 0.96043271D-01 0.42858215D+05 0.42858215D+05 0.42858215D+05 0.11532300D+01  1  2 15  2  7  2        2 0.823417781036D-04 0.100000000000D+01
  </mgrwgt>
  </event>
  <event>
  9     66 -.27011060E-05 0.43414528E+03 0.75467711E-02 0.95474583E-01
       -2 -1    0    0    0  502 0.00000000E+00 0.00000000E+00 0.46873128E+03 0.46873139E+03 0.32000000E+00 0.0000E+00 0.9000E+01
        2 -1    0    0  501    0 0.00000000E+00 0.00000000E+00 -.74209962E+03 0.74209969E+03 0.32000000E+00 0.0000E+00 0.9000E+01
       25  2    1    2    0    0 0.13368574E+03 0.34735865E+03 0.22240105E+03 0.52762797E+03 0.30066450E+03 0.0000E+00 0.0000E+00
       23  2    1    2    0    0 -.88468848E+02 -.38214438E+03 -.47622380E+03 0.62289384E+03 0.85712124E+02 0.0000E+00 0.0000E+00
       24  1    3    3    0    0 0.19400244E+03 0.27577602E+03 0.20575594E+03 0.40310306E+03 0.80419002E+02 0.0000E+00 0.9000E+01
      -13  1    4    4    0    0 -.92446622E+02 -.21271356E+03 -.28183559E+03 0.36499966E+03 0.10565837E+00 0.0000E+00 0.9000E+01
       13  1    4    4    0    0 0.39777742E+01 -.16943082E+03 -.19438821E+03 0.25789419E+03 0.10565837E+00 0.0000E+00 0.9000E+01
      -24  1    3    3    0    0 -.60316698E+02 0.71582628E+02 0.16645112E+02 0.12452491E+03 0.80419002E+02 0.0000E+00 0.9000E+01
       21  1    1    2  501  502 -.45216892E+02 0.34785731E+02 -.19545591E+02 0.60309261E+02 0.75000000E+00 0.0000E+00 0.9000E+01
#aMCatNLO 2  0  0  1  2 0.57049228D+02 0.00000000D+00  -5  7  0 0.00000000D+00 0.00000000D+00 0.00000000D+00 0.00000000D+00 0.00000000D+00
  <mgrwgt>
 -.2569631213D-03    3    2    0
 0.560361454695204D+03 0.000000000000000D+00 0.000000000000000D+00 0.560361454695204D+03
 0.560361454695204D+03 0.000000000000000D+00 0.000000000000000D+00 -.560361454695204D+03
 0.461153497475078D+03 0.175435460820466D+03 0.290059750313745D+03 0.302130886560386D+03
 0.308001814692168D+03 -.104915231635239D+03 -.203121532705215D+03 -.206396596328712D+03
 0.215306514196173D+03 -.480675656508571D+01 -.162672628865691D+03 -.140965974492273D+03
 0.136261083026989D+03 -.657134726201415D+02 0.757344112571611D+02 0.452316842605984D+02
 0.000000000000000D+00 -.000000000000000D+00 0.000000000000000D+00 -.000000000000000D+00
 0.586591401229151D+03 0.000000000000000D+00 0.000000000000000D+00 0.586591401229151D+03
 0.592989461572304D+03 0.000000000000000D+00 0.000000000000000D+00 -.592989461572304D+03
 0.459825671165130D+03 0.194002437902476D+03 0.275776020317617D+03 0.302130886560386D+03
 0.310472295519728D+03 -.924467686980423D+02 -.212713625013780D+03 -.206396596328712D+03
 0.220440491419369D+03 0.397792059407691D+01 -.169430754116258D+03 -.140965974492273D+03
 0.131435527516535D+03 -.603166981846982D+02 0.715826277683685D+02 0.452316842605984D+02
 0.574068771806922D+02 -.452168916138127D+02 0.347857310440526D+02 -.639806034315303D+01
-.839531805387D-04 0.000000000000D+00 0.000000000000D+00 0.664608973014D-07 0.000000000000D+00  7 -2 2 24 -13 13 -24 21 2 0.74016321D-01 0.10788682D+00 0.21553012D+06 0.21553012D+06 0.21553012D+06 0.10953397D+01  1  2 13  1  7  1       -2 -.860729077840D-03 0.100000000000D+01
-.464544176395D-07 0.000000000000D+00 0.000000000000D+00 0.664608973014D-07 0.000000000000D+00  7 -2 2 24 -13 13 -24 21 2 0.68887657D-01 0.10788682D+00 0.18848213D+06 0.18848213D+06 0.18848213D+06 0.10998093D+01  1  2  8  1  7  1       -2 -.563364013430D-06 0.100000000000D+01
0.596947104058D-04 0.000000000000D+00 0.000000000000D+00 0.664608973014D-07 0.131326386465D-09  7 -2 2 24 -13 13 -24 21 2 0.72112218D-01 0.11416871D+00 0.21553012D+06 0.21553012D+06 0.21553012D+06 0.10953397D+01  1  2  1  1  7  1       -2 0.604329320526D-03 0.100000000000D+01
  </mgrwgt>
  </event>
  <event>
  8     66 0.27011060E-05 0.19682251E+03 0.75467711E-02 0.96124253E-01
       -2 -1    0    0    0  501 0.00000000E+00 0.00000000E+00 0.41952257E+03 0.41952269E+03 0.32000000E+00 0.0000E+00 0.9000E+01
        2 -1    0    0  501    0 0.00000000E+00 0.00000000E+00 -.85565685E+03 0.85565691E+03 0.32000000E+00 0.0000E+00 0.9000E+01
       25  2    1    2    0    0 0.13361246E+03 -.35502400E+03 -.66525305E+03 0.82212055E+03 0.29904220E+03 0.0000E+00 0.0000E+00
       23  2    1    2    0    0 -.13361246E+03 0.35502400E+03 0.22911877E+03 0.45305905E+03 0.94195354E+02 0.0000E+00 0.0000E+00
       24  1    3    3    0    0 -.43353679E+02 -.18694634E+02 -.10587349E+03 0.14108665E+03 0.80419002E+02 0.0000E+00 0.9000E+01
      -13  1    4    4    0    0 0.13161297E+02 0.34363828E+02 0.11025346E+02 0.38414344E+02 0.10565837E+00 0.0000E+00 0.9000E+01
       13  1    4    4    0    0 -.14677376E+03 0.32066017E+03 0.21809342E+03 0.41464471E+03 0.10565837E+00 0.0000E+00 0.9000E+01
      -24  1    3    3    0    0 0.17696614E+03 -.33632937E+03 -.55937956E+03 0.68103390E+03 0.80419002E+02 0.0000E+00 0.9000E+01
#aMCatNLO 1  0  0  2  1 0.67277438D+01 0.00000000D+00  -5  7  0 0.00000000D+00 0.00000000D+00 0.00000000D+00 0.00000000D+00 0.00000000D+00
  <mgrwgt>
 0.1400396534D-02   11    2    0
 0.599138943714297D+03 0.000000000000000D+00 0.000000000000000D+00 0.599138943714297D+03
 0.599138943714297D+03 0.000000000000000D+00 0.000000000000000D+00 -.599138943714297D+03
 0.111606631003657D+03 -.433536790246823D+02 -.186946336747721D+02 -.613171535249869D+02
 0.448919257729427D+02 0.131614982589741D+02 0.343634675442136D+02 0.257140440522335D+02
 0.520634833894112D+03 -.146773960490609D+03 0.320660532482270D+03 0.383007647043812D+03
 0.521144496757882D+03 0.176966141256317D+03 -.336329366351712D+03 -.347404537571059D+03
 0.000000000000000D+00 -.000000000000000D+00 -.000000000000000D+00 -.000000000000000D+00
 0.601989367636987D+03 0.000000000000000D+00 0.000000000000000D+00 0.601989367636987D+03
 0.603131389658264D+03 0.000000000000000D+00 0.000000000000000D+00 -.603131389658264D+03
 0.111377307597332D+03 -.429740235169483D+02 -.181969414907625D+02 -.613171535249869D+02
 0.450908488453726D+02 0.133147041633964D+02 0.345643058821854D+02 0.257140440522335D+02
 0.521574654079159D+03 -.144999480342827D+03 0.322986706822536D+03 0.383007647043812D+03
 0.520253963252119D+03 0.178739240536782D+03 -.334005002196883D+03 -.347404537571059D+03
 0.682398352126848D+01 -.408044084040253D+01 -.534906901707563D+01 -.114202202127649D+01
0.560652569836D-04 0.000000000000D+00 0.000000000000D+00 0.358013718904D-06 0.000000000000D+00  7 -2 2 24 -13 13 -24 21 0 0.64541947D-01 0.13163953D+00 0.18973314D+06 0.18973314D+06 0.18973314D+06 0.10995875D+01  1  2  2  2  7  2        2 0.502328012193D-03 0.100000000000D+01
-.272982806373D-05 0.000000000000D+00 -.215305349138D-06 0.358013718904D-06 0.000000000000D+00  7 -2 2 24 -13 13 -24 21 2 0.64541947D-01 0.13163953D+00 0.18973314D+06 0.18973314D+06 0.18973314D+06 0.10995875D+01  1  2  3  2  7  2        2 -.295725279712D-04 0.100000000000D+01
0.364316641066D-05 0.000000000000D+00 0.000000000000D+00 0.358013718904D-06 0.000000000000D+00  7 -2 2 24 -13 13 -24 21 2 0.64541947D-01 0.13163953D+00 0.18973314D+06 0.18973314D+06 0.18973314D+06 0.10995875D+01  1  2 15  2  7  2        2 0.394668228431D-04 0.100000000000D+01
0.156335145735D-04 0.000000000000D+00 0.000000000000D+00 0.358013718904D-06 0.000000000000D+00  7 -2 2 24 -13 13 -24 21 2 0.64541947D-01 0.13282808D+00 0.19274446D+06 0.19274446D+06 0.19274446D+06 0.10990600D+01  1  2 12  2  7  2        2 0.167124447481D-03 0.100000000000D+01
-.762982798461D-04 0.000000000000D+00 0.000000000000D+00 0.358013718904D-06 0.000000000000D+00  7 -2 2 24 -13 13 -24 21 2 0.64541947D-01 0.13163953D+00 0.18973314D+06 0.18973314D+06 0.18973314D+06 0.10995875D+01  1  2  4  2  7  2        2 -.826547666092D-03 0.100000000000D+01
-.628467662594D-02 0.000000000000D+00 -.694092806918D-03 0.358013718904D-06 0.000000000000D+00  7 -2 2 24 -13 13 -24 21 2 0.64541947D-01 0.13297903D+00 0.18973314D+06 0.18973314D+06 0.18973314D+06 0.10995875D+01  1  2  5  2  7  2        2 -.671821796660D-01 0.100000000000D+01
0.629141682223D-02 0.000000000000D+00 0.694057237180D-03 0.358013718904D-06 0.000000000000D+00  7 -2 2 24 -13 13 -24 21 2 0.64541947D-01 0.13163953D+00 0.18973314D+06 0.18973314D+06 0.18973314D+06 0.10995875D+01  1  2  6  2  7  2        2 0.681556111268D-01 0.100000000000D+01
0.630330455993D-04 0.000000000000D+00 0.000000000000D+00 0.358013718904D-06 0.509584729420D-07  7 -2 2 24 -13 13 -24 21 2 0.64849008D-01 0.13251673D+00 0.19274446D+06 0.19274446D+06 0.19274446D+06 0.10990600D+01  1  2 11  2  7  2        2 0.669185341642D-03 0.100000000000D+01
0.162034023129D-05 0.000000000000D+00 0.000000000000D+00 0.358013718904D-06 0.000000000000D+00  7 -2 21 24 -13 13 -24 -2 2 0.64541947D-01 0.13282808D+00 0.19274446D+06 0.19274446D+06 0.19274446D+06 0.10990600D+01  1  2 12  4  7  2        2 0.154464229463D-04 0.100000000000D+01
-.117245097718D-04 0.000000000000D+00 -.129778860997D-05 0.358013718904D-06 0.000000000000D+00  7 -2 21 24 -13 13 -24 -2 2 0.64541947D-01 0.13297903D+00 0.18973314D+06 0.18973314D+06 0.18973314D+06 0.10995875D+01  1  2  5  4  7  2        2 -.111651090797D-03 0.100000000000D+01
0.124760731425D-06 0.000000000000D+00 0.000000000000D+00 0.358013718904D-06 0.628767280832D-10  7 -2 21 24 -13 13 -24 -2 2 0.64849008D-01 0.13251673D+00 0.19274446D+06 0.19274446D+06 0.19274446D+06 0.10990600D+01  1  2 11  4  7  2        2 0.118531101194D-05 0.100000000000D+01
  </mgrwgt>
  </event>
  <event>
  8     66 0.27011060E-05 0.21600358E+03 0.75467711E-02 0.10079033E+00
       -2 -1    0    0    0  501 0.00000000E+00 0.00000000E+00 0.22934639E+02 0.22936871E+02 0.32000000E+00 0.0000E+00 0.9000E+01
        2 -1    0    0  501    0 0.00000000E+00 0.00000000E+00 -.29480092E+04 0.29480092E+04 0.32000000E+00 0.0000E+00 0.9000E+01
       25  2    1    2    0    0 0.90434277E+02 -.21876618E+02 -.11763845E+04 0.12175647E+04 0.29987731E+03 0.0000E+00 0.0000E+00
       23  2    1    2    0    0 -.90434277E+02 0.21876618E+02 -.17486900E+04 0.17533813E+04 0.88161000E+02 0.0000E+00 0.0000E+00
       24  1    3    3    0    0 -.65520739E+02 -.77933341E+02 -.49441257E+03 0.51115319E+03 0.80419002E+02 0.0000E+00 0.9000E+01
      -11  1    4    4    0    0 0.12201558E+02 -.27507223E+01 -.54941581E+02 0.56347332E+02 0.51099893E-03 0.0000E+00 0.9000E+01
       11  1    4    4    0    0 -.10263583E+03 0.24627340E+02 -.16937484E+04 0.16970340E+04 0.51099893E-03 0.0000E+00 0.9000E+01
      -24  1    3    3    0    0 0.15595502E+03 0.56056723E+02 -.68197196E+03 0.70641156E+03 0.80419002E+02 0.0000E+00 0.9000E+01
#aMCatNLO 1  0  0  1  1 0.15606396D+03 0.00000000D+00  -5  7  0 0.00000000D+00 0.00000000D+00 0.00000000D+00 0.00000000D+00 0.00000000D+00
  <mgrwgt>
 0.2225161457D-02    3    2    0
 0.260028588325113D+03 0.000000000000000D+00 0.000000000000000D+00 0.260028588325113D+03
 0.260028588325113D+03 0.000000000000000D+00 0.000000000000000D+00 -.260028588325113D+03
 0.139244156298754D+03 -.655207393641779D+02 -.779333410629131D+02 0.505484537144761D+02
 0.128767846074055D+02 0.122015578475255D+02 -.275072225283532D+01 0.306057102625623D+01
 0.168166218630571D+03 -.102635834627493D+03 0.246273403516688D+02 -.130916983795175D+03
 0.199770017113495D+03 0.155955016144145D+03 0.560567229640797D+02 0.773079590544425D+02
 0.000000000000000D+00 -.000000000000000D+00 -.000000000000000D+00 -.000000000000000D+00
 0.293631593887113D+03 0.000000000000000D+00 0.000000000000000D+00 0.293631593887113D+03
 0.546419094334481D+03 0.000000000000000D+00 0.000000000000000D+00 -.546419094334481D+03
 0.116944121648654D+03 -.324607726670644D+02 -.599988641453919D+02 0.505484537144761D+02
 0.162689620696500D+02 0.159626878345258D+02 -.710372377300125D+00 0.306057102625623D+01
 0.152026150121517D+03 -.613164224653681D+02 0.470424277731534D+02 -.130916983795175D+03
 0.257729850154259D+03 0.214993355044689D+03 0.880840306731659D+02 0.773079590544425D+02
 0.297081604227514D+03 -.137178847746782D+03 -.744172219236273D+02 -.252787500447368D+03
0.289687174313D-04 0.000000000000D+00 0.000000000000D+00 0.228949863585D-06 0.000000000000D+00  7 -2 2 24 -11 11 -24 21 0 0.35285790D-02 0.45354005D+00 0.46657547D+05 0.46657547D+05 0.46657547D+05 0.11499478D+01  1  2  2  1  7  1       -2 0.220659755225D-02 0.100000000000D+01
-.154204295352D-05 0.000000000000D+00 -.111247502574D-06 0.228949863585D-06 0.000000000000D+00  7 -2 2 24 -11 11 -24 21 2 0.35285790D-02 0.45354005D+00 0.46657547D+05 0.46657547D+05 0.46657547D+05 0.11499478D+01  1  2  3  1  7  1       -2 -.155326874687D-03 0.100000000000D+01
0.172634035119D-05 0.000000000000D+00 0.000000000000D+00 0.228949863585D-06 0.000000000000D+00  7 -2 2 24 -11 11 -24 21 2 0.35285790D-02 0.45354005D+00 0.46657547D+05 0.46657547D+05 0.46657547D+05 0.11499478D+01  1  2 15  1  7  1       -2 0.173890779620D-03 0.100000000000D+01
  </mgrwgt>
  </event>
  <event>
  8     66 0.27011060E-05 0.58448016E+03 0.75467711E-02 0.80839572E-01
       -2 -1    0    0    0  501 0.00000000E+00 0.00000000E+00 0.10578643E+04 0.10578644E+04 0.32000000E+00 0.0000E+00 0.9000E+01
        2 -1    0    0  501    0 0.00000000E+00 0.00000000E+00 -.25387855E+04 0.25387855E+04 0.32000000E+00 0.0000E+00 0.9000E+01
       25  2    1    2    0    0 -.54755450E+03 -.84178005E+01 -.24234437E+04 0.25028900E+04 0.30247639E+03 0.0000E+00 0.0000E+00
       23  2    1    2    0    0 0.54755450E+03 0.84178005E+01 0.94252261E+03 0.10937599E+04 0.89860973E+02 0.0000E+00 0.0000E+00
       24  1    3    3    0    0 -.95431870E+02 -.82244962E+02 -.81306780E+03 0.82669095E+03 0.80419002E+02 0.0000E+00 0.9000E+01
      -11  1    4    4    0    0 0.34180791E+03 0.47082230E+02 0.61018152E+03 0.70097851E+03 0.51099893E-03 0.0000E+00 0.9000E+01
       11  1    4    4    0    0 0.20574659E+03 -.38664429E+02 0.33234110E+03 0.39278137E+03 0.51099893E-03 0.0000E+00 0.9000E+01
      -24  1    3    3    0    0 -.45212263E+03 0.73827162E+02 -.16103759E+04 0.16761990E+04 0.80419002E+02 0.0000E+00 0.9000E+01
#aMCatNLO 1  0  0  1  1 0.20041755D+04 0.00000000D+00  -5  7  0 0.00000000D+00 0.00000000D+00 0.00000000D+00 0.00000000D+00 0.00000000D+00
  <mgrwgt>
 0.6104221395D-03    5    2    0
 0.163880770953600D+04 0.000000000000000D+00 0.000000000000000D+00 0.163880770953600D+04
 0.163880770953600D+04 0.000000000000000D+00 0.000000000000000D+00 -.163880770953600D+04
 0.539791404358895D+03 -.954318697813591D+02 -.822449623825943D+02 -.518686869563995D+03
 0.104490750069270D+04 0.341807905243024D+03 0.470822299585665D+02 0.986297269863084D+03
 0.581174955917254D+03 0.205746592287840D+03 -.386644294276671D+02 0.542160244802583D+03
 0.111174155810315D+04 -.452122627749504D+03 0.738271618516950D+02 -.100977064510167D+04
 0.000000000000000D+00 0.000000000000000D+00 0.000000000000000D+00 0.000000000000000D+00
 0.474401437623291D+04 0.000000000000000D+00 0.000000000000000D+00 0.474401437623291D+04
 0.227660336376346D+04 0.000000000000000D+00 0.000000000000000D+00 -.227660336376346D+04
 0.709505406726560D+03 -.379032996519798D+03 -.290221682703028D+03 -.518686869563995D+03
 0.103920405618446D+04 -.131303352653667D+03 -.299870297683463D+03 0.986297269863084D+03
 0.593744436731834D+03 -.609702204226752D+02 -.234259167007862D+03 0.542160244802583D+03
 0.149935327315891D+04 -.104486362380106D+04 -.360854920606908D+03 -.100977064510167D+04
 0.317881056719460D+04 0.161617019339721D+04 0.118520606800126D+04 0.246741101246945D+04
0.563175692927D-02 0.000000000000D+00 0.000000000000D+00 0.171337039601D-05 0.000000000000D+00  7 -2 2 24 -11 11 -24 21 0 0.16274836D+00 0.39058238D+00 0.34161706D+06 0.34161706D+06 0.34161706D+06 0.10804023D+01  1  2  2  1  7  1       -2 0.562437565253D-03 0.100000000000D+01
0.914876247122D-04 0.000000000000D+00 -.216274294841D-04 0.171337039601D-05 0.000000000000D+00  7 -2 2 24 -11 11 -24 21 2 0.16274836D+00 0.39058238D+00 0.34161706D+06 0.34161706D+06 0.34161706D+06 0.10804023D+01  1  2  3  1  7  1       -2 0.106650716759D-04 0.100000000000D+01
0.307587588607D-03 0.000000000000D+00 0.000000000000D+00 0.171337039601D-05 0.000000000000D+00  7 -2 2 24 -11 11 -24 21 2 0.16274836D+00 0.39058238D+00 0.34161706D+06 0.34161706D+06 0.34161706D+06 0.10804023D+01  1  2 15  1  7  1       -2 0.358566930710D-04 0.100000000000D+01
0.177583022347D-02 0.000000000000D+00 -.152852169373D-02 0.171337039601D-05 0.000000000000D+00  7 -2 2 24 -11 11 -24 21 2 0.51357515D+00 0.39058238D+00 0.34161706D+06 0.34161706D+06 0.34161706D+06 0.10804023D+01  1  2  5  1  7  1       -2 0.526606116189D-06 0.100000000000D+01
0.302906321269D-03 0.000000000000D+00 -.201771073424D-03 0.171337039601D-05 0.000000000000D+00  7 21 2 24 -11 11 -24 2 2 0.51357515D+00 0.39058238D+00 0.34161706D+06 0.34161706D+06 0.34161706D+06 0.10804023D+01  1  2  5  3  7  1       -2 0.936203353914D-06 0.100000000000D+01
  </mgrwgt>
  </event>
  <event>
  8     66 0.27011060E-05 0.12186604E+03 0.75467711E-02 0.10031835E+00
       -2 -1    0    0    0  501 0.00000000E+00 0.00000000E+00 0.54517584E+02 0.54518523E+02 0.32000000E+00 0.0000E+00 0.9000E+01
        2 -1    0    0  501    0 0.00000000E+00 0.00000000E+00 -.32282253E+04 0.32282253E+04 0.32000000E+00 0.0000E+00 0.9000E+01
       25  2    1    2    0    0 0.11741192E+03 0.20260493E+03 -.28339685E+04 0.28595941E+04 0.30177277E+03 0.0000E+00 0.0000E+00
       23  2    1    2    0    0 -.11741192E+03 -.20260493E+03 -.33973916E+03 0.42314966E+03 0.93800948E+02 0.0000E+00 0.0000E+00
       24  1    3    3    0    0 0.96439732E+02 -.66001410E+01 -.53259909E+03 0.54724144E+03 0.80419002E+02 0.0000E+00 0.9000E+01
      -13  1    4    4    0    0 -.35162422E+02 -.14454806E+03 -.17093982E+03 0.22660753E+03 0.10565837E+00 0.0000E+00 0.9000E+01
       13  1    4    4    0    0 -.82249497E+02 -.58056865E+02 -.16879934E+03 0.19654213E+03 0.10565837E+00 0.0000E+00 0.9000E+01
      -24  1    3    3    0    0 0.20972187E+02 0.20920507E+03 -.23013694E+04 0.23123527E+04 0.80419002E+02 0.0000E+00 0.9000E+01
#aMCatNLO 1  0  0  2  1 0.21844878D+02 0.00000000D+00  -5  7  0 0.00000000D+00 0.00000000D+00 0.00000000D+00 0.00000000D+00 0.00000000D+00
  <mgrwgt>
 0.7506494450D-03    9    2    0
 0.419519499226334D+03 0.000000000000000D+00 0.000000000000000D+00 0.419519499226334D+03
 0.419519499226334D+03 0.000000000000000D+00 0.000000000000000D+00 -.419519499226334D+03
 0.126501407310548D+03 0.964397320398665D+02 -.660014094481043D+01 -.138277373697196D+02
 0.240014534619512D+03 -.351623641403938D+02 -.144548172632029D+03 0.188351827082777D+03
 0.130479716718867D+03 -.822495550858673D+02 -.580567562935117D+02 0.830022904014605D+02
 0.342043339803741D+03 0.209721871863945D+02 0.209205069870351D+03 -.257526380114518D+03
 0.000000000000000D+00 0.000000000000000D+00 -.000000000000000D+00 -.000000000000000D+00
 0.420907364344733D+03 0.000000000000000D+00 0.000000000000000D+00 0.420907364344733D+03
 0.515430608746930D+03 0.000000000000000D+00 0.000000000000000D+00 -.515430608746930D+03
 0.124715766106853D+03 0.942230850367637D+02 -.419646120411847D+01 -.138277373697196D+02
 0.237949911000019D+03 -.393797448296188D+02 -.139974944460251D+03 0.188351827082777D+03
 0.130864479203253D+03 -.845555591730423D+02 -.555561798379297D+02 0.830022904014605D+02
 0.345793166152026D+03 0.149029734108766D+02 0.215786382173898D+03 -.257526380114518D+03
 0.970146506295116D+02 0.148092455550206D+02 -.160587966715983D+02 -.945232444021975D+02
0.371396511781D-04 0.000000000000D+00 0.000000000000D+00 0.545102064878D-07 0.000000000000D+00  7 -2 2 24 -13 13 -24 21 0 0.83873941D-02 0.49665011D+00 0.90087287D+05 0.90087287D+05 0.90087287D+05 0.11254615D+01  1  2  2  2  7  2        2 0.506518769946D-03 0.100000000000D+01
-.178204042975D-05 0.000000000000D+00 -.142626039619D-06 0.545102064878D-07 0.000000000000D+00  7 -2 2 24 -13 13 -24 21 2 0.83873941D-02 0.49665011D+00 0.90087287D+05 0.90087287D+05 0.90087287D+05 0.11254615D+01  1  2  3  2  7  2        2 -.307848171676D-04 0.100000000000D+01
0.217256439817D-05 0.000000000000D+00 0.000000000000D+00 0.545102064878D-07 0.000000000000D+00  7 -2 2 24 -13 13 -24 21 2 0.83873941D-02 0.49665011D+00 0.90087287D+05 0.90087287D+05 0.90087287D+05 0.11254615D+01  1  2 15  2  7  2        2 0.375311337869D-04 0.100000000000D+01
0.471775710170D-03 0.000000000000D+00 0.000000000000D+00 0.545102064878D-07 0.000000000000D+00  7 -2 2 24 -13 13 -24 21 2 0.83873941D-02 0.61089282D+00 0.97076071D+05 0.97076071D+05 0.97076071D+05 0.11227812D+01  1  2 12  2  7  2        2 0.235267530716D-02 0.100000000000D+01
-.465282307794D-03 0.000000000000D+00 0.000000000000D+00 0.545102064878D-07 0.000000000000D+00  7 -2 2 24 -13 13 -24 21 2 0.83873941D-02 0.49665011D+00 0.90087287D+05 0.90087287D+05 0.90087287D+05 0.11254615D+01  1  2  4  2  7  2        2 -.803776981579D-02 0.100000000000D+01
-.494708335625D-03 0.000000000000D+00 -.146980027946D-04 0.545102064878D-07 0.000000000000D+00  7 -2 2 24 -13 13 -24 21 2 0.83873941D-02 0.61055014D+00 0.90087287D+05 0.90087287D+05 0.90087287D+05 0.11254615D+01  1  2  5  2  7  2        2 -.250109590130D-02 0.100000000000D+01
0.487619900471D-03 0.000000000000D+00 0.143901721937D-04 0.545102064878D-07 0.000000000000D+00  7 -2 2 24 -13 13 -24 21 2 0.83873941D-02 0.49665011D+00 0.90087287D+05 0.90087287D+05 0.90087287D+05 0.11254615D+01  1  2  6  2  7  2        2 0.842365259097D-02 0.100000000000D+01
0.138623221636D-04 0.000000000000D+00 0.000000000000D+00 0.545102064878D-07 0.000000000000D+00  7 -2 21 24 -13 13 -24 -2 2 0.83873941D-02 0.61089282D+00 0.97076071D+05 0.97076071D+05 0.97076071D+05 0.11227812D+01  1  2 12  4  7  2        2 0.143213570729D-05 0.100000000000D+01
-.143273438105D-04 0.000000000000D+00 -.430983230901D-06 0.545102064878D-07 0.000000000000D+00  7 -2 21 24 -13 13 -24 -2 2 0.83873941D-02 0.61055014D+00 0.90087287D+05 0.90087287D+05 0.90087287D+05 0.11254615D+01  1  2  5  4  7  2        2 -.150995827231D-05 0.100000000000D+01
  </mgrwgt>
  </event>
  <event>
  8     66 0.27011060E-05 0.23538980E+03 0.75467711E-02 0.98624793E-01
       -2 -1    0    0    0  501 0.00000000E+00 0.00000000E+00 0.20555192E+03 0.20555217E+03 0.32000000E+00 0.0000E+00 0.9000E+01
        2 -1    0    0  501    0 0.00000000E+00 0.00000000E+00 -.80531913E+03 0.80531919E+03 0.32000000E+00 0.0000E+00 0.9000E+01
       25  2    1    2    0    0 0.10930319E+03 -.16491956E+03 0.12941453E+02 0.36070582E+03 0.30132301E+03 0.0000E+00 0.0000E+00
       23  2    1    2    0    0 -.10930319E+03 0.16491956E+03 -.61270866E+03 0.65016554E+03 0.90319912E+02 0.0000E+00 0.0000E+00
       24  1    3    3    0    0 0.45415474E+02 -.13132050E+03 -.11182125E+03 0.19564981E+03 0.80419002E+02 0.0000E+00 0.9000E+01
      -13  1    4    4    0    0 -.19665070E+02 0.65123263E+02 -.33397351E+03 0.34083144E+03 0.10565837E+00 0.0000E+00 0.9000E+01
       13  1    4    4    0    0 -.89638123E+02 0.99796300E+02 -.27873515E+03 0.30933411E+03 0.10565837E+00 0.0000E+00 0.9000E+01
      -24  1    3    3    0    0 0.63887719E+02 -.33599059E+02 0.12476271E+03 0.16505601E+03 0.80419002E+02 0.0000E+00 0.9000E+01
#aMCatNLO 1  0  0  1  1 0.19842459D+03 0.00000000D+00  -5  7  0 0.00000000D+00 0.00000000D+00 0.00000000D+00 0.00000000D+00 0.00000000D+00
  <mgrwgt>
 0.8035997434D-03    3    2    0
 0.406859993007037D+03 0.000000000000000D+00 0.000000000000000D+00 0.406859993007037D+03
 0.406859993007037D+03 0.000000000000000D+00 0.000000000000000D+00 -.406859993007037D+03
 0.160632740103073D+03 0.454154738587117D+02 -.131320503650844D+03 0.529351430791057D+01
 0.177248174512939D+03 -.196649747966182D+02 0.651232154670532D+02 -.163673977594636D+03
 0.178833988766807D+03 -.896382187208177D+02 0.997963478156739D+02 -.118267807308067D+03
 0.297005082631256D+03 0.638877196587243D+02 -.335990596318827D+02 0.276648270594793D+03
 0.000000000000000D+00 0.000000000000000D+00 -.000000000000000D+00 -.000000000000000D+00
 0.432829604200227D+03 0.000000000000000D+00 0.000000000000000D+00 0.432829604200227D+03
 0.111946256994355D+04 0.000000000000000D+00 0.000000000000000D+00 -.111946256994355D+04
 0.132143071741520D+03 0.274896197949579D+02 -.101048874138778D+03 0.529351430791057D+01
 0.198549375049927D+03 -.426740204842995D+02 0.103978898661087D+03 -.163673977594636D+03
 0.216150852861897D+03 -.113822049290091D+03 0.140635905951757D+03 -.118267807308067D+03
 0.290720151098306D+03 0.279029273938019D+02 0.271689403550754D+02 0.276648270594793D+03
 0.714728723392125D+03 0.101103522585631D+03 -.170734870829141D+03 -.686632965743322D+03
0.197838643723D-04 0.000000000000D+00 0.000000000000D+00 0.327037733122D-06 0.000000000000D+00  7 -2 2 24 -13 13 -24 21 0 0.31623397D-01 0.12389527D+00 0.55408356D+05 0.55408356D+05 0.55408356D+05 0.11433925D+01  1  2  2  1  7  1       -2 0.775349609521D-03 0.100000000000D+01
-.698924826713D-06 0.000000000000D+00 -.759752484006D-07 0.327037733122D-06 0.000000000000D+00  7 -2 2 24 -13 13 -24 21 2 0.31623397D-01 0.12389527D+00 0.55408356D+05 0.55408356D+05 0.55408356D+05 0.11433925D+01  1  2  3  1  7  1       -2 -.358102683722D-04 0.100000000000D+01
0.125029516911D-05 0.000000000000D+00 0.000000000000D+00 0.327037733122D-06 0.000000000000D+00  7 -2 2 24 -13 13 -24 21 2 0.31623397D-01 0.12389527D+00 0.55408356D+05 0.55408356D+05 0.55408356D+05 0.11433925D+01  1  2 15  1  7  1       -2 0.640604022624D-04 0.100000000000D+01
  </mgrwgt>
  </event>
  <event>
  8     66 0.27011060E-05 0.19624180E+03 0.75467711E-02 0.10279934E+00
       -2 -1    0    0    0  501 0.00000000E+00 0.00000000E+00 0.50807991E+02 0.50808999E+02 0.32000000E+00 0.0000E+00 0.9000E+01
        2 -1    0    0  501    0 0.00000000E+00 0.00000000E+00 -.12565616E+04 0.12565616E+04 0.32000000E+00 0.0000E+00 0.9000E+01
       25  2    1    2    0    0 0.42989549E+01 0.41752806E+02 -.11569213E+04 0.11960665E+04 0.30057674E+03 0.0000E+00 0.0000E+00
       23  2    1    2    0    0 -.42989549E+01 -.41752806E+02 -.48832259E+02 0.11130410E+03 0.90786760E+02 0.0000E+00 0.0000E+00
       24  1    3    3    0    0 0.84265613E+02 -.70523309E+02 -.40116342E+03 0.42364317E+03 0.80419002E+02 0.0000E+00 0.9000E+01
      -13  1    4    4    0    0 0.83432590E+01 0.26259312E+02 -.27461164E+02 0.38901004E+02 0.10565837E+00 0.0000E+00 0.9000E+01
       13  1    4    4    0    0 -.12642214E+02 -.68012118E+02 -.21371095E+02 0.72403098E+02 0.10565837E+00 0.0000E+00 0.9000E+01
      -24  1    3    3    0    0 -.79966658E+02 0.11227612E+03 -.75575792E+03 0.77242336E+03 0.80419002E+02 0.0000E+00 0.9000E+01
#aMCatNLO 1  0  0  1  2 0.10603930D+03 0.00000000D+00  -5  7  0 0.00000000D+00 0.00000000D+00 0.00000000D+00 0.00000000D+00 0.00000000D+00
  <mgrwgt>
 0.8936581759D-03    4    2    0
 0.252673812932788D+03 0.000000000000000D+00 0.000000000000000D+00 0.252673812932788D+03
 0.252673812932788D+03 0.000000000000000D+00 0.000000000000000D+00 -.252673812932788D+03
 0.138824042632447D+03 0.842656103903080D+02 -.705233056037561D+02 -.270308921553286D+02
 0.351175365587245D+02 0.834328724739353D+01 0.262594387178496D+02 0.217732131318355D+02
 0.136320974724158D+03 -.126422423142524D+02 -.680122462536383D+02 0.117464531747020D+03
 0.195085071950247D+03 -.799666553234491D+02 0.112276113139545D+03 -.112206852723527D+03
 0.000000000000000D+00 -.000000000000000D+00 0.000000000000000D+00 -.000000000000000D+00
 0.274072701671929D+03 0.000000000000000D+00 0.000000000000000D+00 0.274072701671929D+03
 0.435017233362981D+03 0.000000000000000D+00 0.000000000000000D+00 -.435017233362981D+03
 0.157034840782066D+03 0.849479508033970D+02 -.101222042009973D+03 -.270308921553286D+02
 0.304124605909976D+02 0.849441931687483D+01 0.194599534835969D+02 0.217732131318355D+02
 0.153498619149345D+03 -.119738303364790D+02 -.980843374310200D+02 0.117464531747020D+03
 0.175407210775728D+03 -.791121876315416D+02 0.738333096087570D+02 -.112206852723527D+03
 0.192736803736774D+03 -.235635215225126D+01 0.106013116348639D+03 -.160944531691052D+03
0.480355168810D-05 0.000000000000D+00 0.000000000000D+00 0.427419446014D-06 0.000000000000D+00  7 -2 2 24 -13 13 -24 21 0 0.78166947D-02 0.19331725D+00 0.38510845D+05 0.38510845D+05 0.38510845D+05 0.11574044D+01  1  2  2  1  7  1       -2 0.954198489369D-03 0.100000000000D+01
-.246135860371D-06 0.000000000000D+00 -.184469032865D-07 0.427419446014D-06 0.000000000000D+00  7 -2 2 24 -13 13 -24 21 2 0.78166947D-02 0.19331725D+00 0.38510845D+05 0.38510845D+05 0.38510845D+05 0.11574044D+01  1  2  3  1  7  1       -2 -.654970044523D-04 0.100000000000D+01
0.285113537630D-06 0.000000000000D+00 0.000000000000D+00 0.427419446014D-06 0.000000000000D+00  7 -2 2 24 -13 13 -24 21 2 0.78166947D-02 0.19331725D+00 0.38510845D+05 0.38510845D+05 0.38510845D+05 0.11574044D+01  1  2 15  1  7  1       -2 0.758690042786D-04 0.100000000000D+01
-.266486435352D-06 0.000000000000D+00 0.000000000000D+00 0.427419446014D-06 0.000000000000D+00  7 -2 2 24 -13 13 -24 21 2 0.78166947D-02 0.19331725D+00 0.38510845D+05 0.38510845D+05 0.38510845D+05 0.11574044D+01  1  2  4  1  7  1       -2 -.709123132909D-04 0.100000000000D+01
  </mgrwgt>
  </event>
  <event>
  8     66 0.27011060E-05 0.35769589E+03 0.75467711E-02 0.91072762E-01
       -2 -1    0    0    0  501 0.00000000E+00 0.00000000E+00 0.85632407E+03 0.85632413E+03 0.32000000E+00 0.0000E+00 0.9000E+01
        2 -1    0    0  501    0 0.00000000E+00 0.00000000E+00 -.36429991E+03 0.36430005E+03 0.32000000E+00 0.0000E+00 0.9000E+01
       25  2    1    2    0    0 0.48220230E+03 -.17518908E+03 0.20138255E+03 0.62739225E+03 0.29975961E+03 0.0000E+00 0.0000E+00
       23  2    1    2    0    0 -.48220230E+03 0.17518908E+03 0.29064161E+03 0.59323194E+03 0.65125378E+02 0.0000E+00 0.0000E+00
       24  1    3    3    0    0 0.47088878E+03 -.12068932E+03 0.14117337E+03 0.51254199E+03 0.80419002E+02 0.0000E+00 0.9000E+01
      -11  1    4    4    0    0 -.24947027E+03 0.96829654E+02 0.11474820E+03 0.29116756E+03 0.51099893E-03 0.0000E+00 0.9000E+01
       11  1    4    4    0    0 -.23273203E+03 0.78359427E+02 0.17589342E+03 0.30206438E+03 0.51099893E-03 0.0000E+00 0.9000E+01
      -24  1    3    3    0    0 0.11313523E+02 -.54499763E+02 0.60209176E+02 0.11485025E+03 0.80419002E+02 0.0000E+00 0.9000E+01
#aMCatNLO 1  0  0  1  2 0.25299251D+03 0.00000000D+00  -5  7  0 0.00000000D+00 0.00000000D+00 0.00000000D+00 0.00000000D+00 0.00000000D+00
  <mgrwgt>
 0.2636627636D-02    9    2    0
 0.558532817975506D+03 0.000000000000000D+00 0.000000000000000D+00 0.558532817975506D+03
 0.558532817975506D+03 0.000000000000000D+00 0.000000000000000D+00 -.558532817975506D+03
 0.497876243378206D+03 0.470888781630006D+03 -.120689317096370D+03 -.714939286921959D+02
 0.267618366388637D+03 -.249470273049275D+03 0.968296535891743D+02 -.286200612215625D+01
 0.252593289169147D+03 -.232732031670496D+03 0.783594267532478D+02 0.591521039922842D+02
 0.989777370150226D+02 0.113135230897651D+02 -.544997632460521D+02 0.152038308220679D+02
 0.000000000000000D+00 -.000000000000000D+00 0.000000000000000D+00 0.000000000000000D+00
 0.759481006795322D+03 0.000000000000000D+00 0.000000000000000D+00 0.759481006795322D+03
 0.658336849557909D+03 0.000000000000000D+00 0.000000000000000D+00 -.658336849557909D+03
 0.554207002126698D+03 0.489340453079670D+03 -.236881245335779D+03 -.714939286921959D+02
 0.243876138109152D+03 -.240499567940505D+03 0.403402711991548D+02 -.286200612215625D+01
 0.233196450963687D+03 -.224212142472710D+03 0.247088749873871D+02 0.591521039922842D+02
 0.114076617187887D+03 0.150501180421786D+02 -.780294566808696D+02 0.152038308220679D+02
 0.272461647965807D+03 -.396788607086327D+02 0.249861555830107D+03 0.101144157237413D+03
0.444709897124D-03 0.000000000000D+00 0.000000000000D+00 0.980039013986D-08 0.000000000000D+00  7 -2 2 24 -11 11 -24 21 0 0.13174218D+00 0.56046156D-01 0.30453399D+06 0.30453399D+06 0.30453399D+06 0.10840702D+01  1  2  2  1  7  1       -2 0.198606862144D-02 0.100000000000D+01
-.247017477185D-04 0.000000000000D+00 -.170780309976D-05 0.980039013986D-08 0.000000000000D+00  7 -2 2 24 -11 11 -24 21 2 0.13174218D+00 0.56046156D-01 0.30453399D+06 0.30453399D+06 0.30453399D+06 0.10840702D+01  1  2  3  1  7  1       -2 -.129646252413D-03 0.100000000000D+01
0.259985365442D-04 0.000000000000D+00 0.000000000000D+00 0.980039013986D-08 0.000000000000D+00  7 -2 2 24 -11 11 -24 21 2 0.13174218D+00 0.56046156D-01 0.30453399D+06 0.30453399D+06 0.30453399D+06 0.10840702D+01  1  2 15  1  7  1       -2 0.136452402867D-03 0.100000000000D+01
0.172073311780D-03 0.000000000000D+00 0.000000000000D+00 0.980039013986D-08 0.000000000000D+00  7 -2 2 24 -11 11 -24 21 2 0.18751458D+00 0.56046156D-01 0.47959539D+06 0.47959539D+06 0.47959539D+06 0.10697916D+01  1  2 12  1  7  1       -2 0.319208962465D-03 0.100000000000D+01
-.233082585861D-03 0.000000000000D+00 0.000000000000D+00 0.980039013986D-08 0.000000000000D+00  7 -2 2 24 -11 11 -24 21 2 0.13174218D+00 0.56046156D-01 0.30453399D+06 0.30453399D+06 0.30453399D+06 0.10840702D+01  1  2  4  1  7  1       -2 -.122332573809D-02 0.100000000000D+01
-.382564548740D-03 0.000000000000D+00 -.158591467119D-03 0.980039013986D-08 0.000000000000D+00  7 -2 2 24 -11 11 -24 21 2 0.19874934D+00 0.56046156D-01 0.30453399D+06 0.30453399D+06 0.30453399D+06 0.10840702D+01  1  2  5  1  7  1       -2 -.620610599589D-03 0.100000000000D+01
0.423951323334D-03 0.000000000000D+00 0.146067670009D-03 0.980039013986D-08 0.000000000000D+00  7 -2 2 24 -11 11 -24 21 2 0.13174218D+00 0.56046156D-01 0.30453399D+06 0.30453399D+06 0.30453399D+06 0.10840702D+01  1  2  6  1  7  1       -2 0.222509358051D-02 0.100000000000D+01
0.747942360106D-05 0.000000000000D+00 0.000000000000D+00 0.980039013986D-08 0.000000000000D+00  7 21 2 24 -11 11 -24 2 2 0.18751458D+00 0.56046156D-01 0.47959539D+06 0.47959539D+06 0.47959539D+06 0.10697916D+01  1  2 12  3  7  1       -2 0.109818396331D-03 0.100000000000D+01
-.129661468637D-04 0.000000000000D+00 -.770391581630D-05 0.980039013986D-08 0.000000000000D+00  7 21 2 24 -11 11 -24 2 2 0.19874934D+00 0.56046156D-01 0.30453399D+06 0.30453399D+06 0.30453399D+06 0.10840702D+01  1  2  5  3  7  1       -2 -.166431737507D-03 0.100000000000D+01
  </mgrwgt>
  </event>
  <event>
  8     66 0.27011060E-05 0.60645024E+03 0.75467711E-02 0.89168832E-01
       -2 -1    0    0    0  501 0.00000000E+00 0.00000000E+00 0.18179745E+04 0.18179746E+04 0.32000000E+00 0.0000E+00 0.9000E+01
        2 -1    0    0  501    0 0.00000000E+00 0.00000000E+00 -.69531695E+03 0.69531702E+03 0.32000000E+00 0.0000E+00 0.9000E+01
       25  2    1    2    0    0 0.28499236E+03 -.50927246E+03 0.16152001E+04 0.17439440E+04 0.30313351E+03 0.0000E+00 0.0000E+00
       23  2    1    2    0    0 -.28499236E+03 0.50927246E+03 -.49254257E+03 0.76934762E+03 0.93372908E+02 0.0000E+00 0.0000E+00
       24  1    3    3    0    0 0.65871253E+02 -.70331248E+02 0.14401396E+03 0.19103074E+03 0.80419002E+02 0.0000E+00 0.9000E+01
      -11  1    4    4    0    0 -.86490336E+02 0.82303591E+02 -.11574787E+03 0.16628899E+03 0.51099893E-03 0.0000E+00 0.9000E+01
       11  1    4    4    0    0 -.19850202E+03 0.42696887E+03 -.37679470E+03 0.60305863E+03 0.51099893E-03 0.0000E+00 0.9000E+01
      -24  1    3    3    0    0 0.21912110E+03 -.43894121E+03 0.14711862E+04 0.15529132E+04 0.80419002E+02 0.0000E+00 0.9000E+01
#aMCatNLO 1  0  0  1  2 0.41376164D+03 0.00000000D+00  -5  7  0 0.00000000D+00 0.00000000D+00 0.00000000D+00 0.00000000D+00 0.00000000D+00
  <mgrwgt>
 0.1201663687D-02    4    2    0
 0.112430806651105D+04 0.000000000000000D+00 0.000000000000000D+00 0.112430806651105D+04
 0.112430806651105D+04 0.000000000000000D+00 0.000000000000000D+00 -.112430806651105D+04
 0.141614913761765D+03 0.658712531346673D+02 -.703312482993419D+02 0.655901011472511D+02
 0.243651165480363D+03 -.864903359354185D+02 0.823035912170090D+02 -.212394517590500D+03
 0.862162987363945D+03 -.198502019211221D+03 0.426968865238431D+03 -.722232340224666D+03
 0.100118706641603D+04 0.219121102011973D+03 -.438941208156098D+03 0.869036756667914D+03
 0.000000000000000D+00 0.000000000000000D+00 0.000000000000000D+00 -.000000000000000D+00
 0.129252397315385D+04 0.000000000000000D+00 0.000000000000000D+00 0.129252397315385D+04
 0.142977448517882D+04 0.000000000000000D+00 0.000000000000000D+00 -.142977448517882D+04
 0.155806523059040D+03 0.634618025650638D+02 -.973601300331037D+02 0.655901011472511D+02
 0.234070143378651D+03 -.903604197197139D+02 0.388895290133228D+02 -.212394517590500D+03
 0.801625463075961D+03 -.211980590468435D+03 0.275768125514907D+03 -.722232340224666D+03
 0.109486468467116D+04 0.202140708333698D+03 -.629424905274788D+03 0.869036756667914D+03
 0.435931644147862D+03 0.367384992893867D+02 0.412127380779662D+03 -.137250512024974D+03
0.844140961560D-02 0.000000000000D+00 0.000000000000D+00 0.312813663762D-06 0.000000000000D+00  7 -2 2 24 -11 11 -24 21 0 0.27968840D+00 0.10697185D+00 0.36778189D+06 0.36778189D+06 0.36778189D+06 0.10780666D+01  1  2  2  1  7  1       -2 0.162223505487D-02 0.100000000000D+01
-.251688538862D-03 0.000000000000D+00 -.324172355981D-04 0.312813663762D-06 0.000000000000D+00  7 -2 2 24 -11 11 -24 21 2 0.27968840D+00 0.10697185D+00 0.36778189D+06 0.36778189D+06 0.36778189D+06 0.10780666D+01  1  2  3  1  7  1       -2 -.562151565029D-04 0.100000000000D+01
0.498260975176D-03 0.000000000000D+00 0.000000000000D+00 0.312813663762D-06 0.000000000000D+00  7 -2 2 24 -11 11 -24 21 2 0.27968840D+00 0.10697185D+00 0.36778189D+06 0.36778189D+06 0.36778189D+06 0.10780666D+01  1  2 15  1  7  1       -2 0.111287620904D-03 0.100000000000D+01
-.212956982966D-02 0.000000000000D+00 0.000000000000D+00 0.312813663762D-06 0.000000000000D+00  7 -2 2 24 -11 11 -24 21 2 0.27968840D+00 0.10697185D+00 0.36778189D+06 0.36778189D+06 0.36778189D+06 0.10780666D+01  1  2  4  1  7  1       -2 -.475643832649D-03 0.100000000000D+01
  </mgrwgt>
  </event>
  <event>
  8     66 0.27011060E-05 0.36219423E+03 0.75467711E-02 0.96867331E-01
       -2 -1    0    0    0  501 0.00000000E+00 0.00000000E+00 0.13641778E+03 0.13641816E+03 0.32000000E+00 0.0000E+00 0.9000E+01
        2 -1    0    0  501    0 0.00000000E+00 0.00000000E+00 -.12593039E+04 0.12593040E+04 0.32000000E+00 0.0000E+00 0.9000E+01
       25  2    1    2    0    0 0.73024466E+02 0.28437262E+03 -.95924005E+03 0.10469938E+04 0.29975691E+03 0.0000E+00 0.0000E+00
       23  2    1    2    0    0 -.73024466E+02 -.28437262E+03 -.16364610E+03 0.34872832E+03 0.92903344E+02 0.0000E+00 0.0000E+00
       24  1    3    3    0    0 -.41331211E+02 -.11009748E+02 -.25030998E+03 0.26636777E+03 0.80419002E+02 0.0000E+00 0.9000E+01
      -13  1    4    4    0    0 -.88620141E+02 -.27348918E+03 -.14457289E+03 0.32179371E+03 0.10565837E+00 0.0000E+00 0.9000E+01
       13  1    4    4    0    0 0.15595675E+02 -.10883445E+02 -.19073215E+02 0.26934609E+02 0.10565837E+00 0.0000E+00 0.9000E+01
      -24  1    3    3    0    0 0.11435568E+03 0.29538237E+03 -.70893006E+03 0.78062604E+03 0.80419002E+02 0.0000E+00 0.9000E+01
#aMCatNLO 1  0  0  2  2 0.92771622D+02 0.00000000D+00  -5  7  0 0.00000000D+00 0.00000000D+00 0.00000000D+00 0.00000000D+00 0.00000000D+00
  <mgrwgt>
 0.1579890097D-02    4    2    0
 0.414477668260005D+03 0.000000000000000D+00 0.000000000000000D+00 0.414477668260005D+03
 0.414477668260005D+03 0.000000000000000D+00 0.000000000000000D+00 -.414477668260005D+03
 0.109421784994864D+03 -.413312110503742D+02 -.110097477387874D+02 -.606335511489266D+02
 0.345972869892408D+03 -.886202757378890D+02 -.273489518403650D+03 0.192476379727667D+03
 0.195135129075655D+02 0.155958100759908D+02 -.108831053314644D+02 0.437103104674414D+01
 0.354047168725171D+03 0.114355676712272D+03 0.295382371473902D+03 -.136213859625485D+03
 0.000000000000000D+00 0.000000000000000D+00 -.000000000000000D+00 0.000000000000000D+00
 0.573467816843152D+03 0.000000000000000D+00 0.000000000000000D+00 0.573467816843152D+03
 0.430822281000032D+03 0.000000000000000D+00 0.000000000000000D+00 -.430822281000032D+03
 0.114614217189947D+03 -.537867414205999D+02 -.998808040205221D+01 -.606335511489266D+02
 0.355515213667868D+03 -.127620284861105D+03 -.270290534958609D+03 0.192476379727667D+03
 0.177962176567679D+02 0.135215341666856D+02 -.107129624406422D+02 0.437103104674414D+01
 0.346204751293717D+03 0.754243934741029D+02 0.298575717664660D+03 -.136213859625485D+03
 0.170159698034884D+03 0.924610986409161D+02 -.758413986335656D+01 0.142645535843120D+03
0.430489624896D-04 0.000000000000D+00 0.000000000000D+00 0.153519555679D-05 0.000000000000D+00  7 -2 2 24 -13 13 -24 21 0 0.20987383D-01 0.19373910D+00 0.13118466D+06 0.13118466D+06 0.13118466D+06 0.11121749D+01  1  2  2  2  7  2        2 0.178211993056D-02 0.100000000000D+01
-.233874022410D-05 0.000000000000D+00 -.165319351012D-06 0.153519555679D-05 0.000000000000D+00  7 -2 2 24 -13 13 -24 21 2 0.20987383D-01 0.19373910D+00 0.13118466D+06 0.13118466D+06 0.13118466D+06 0.11121749D+01  1  2  3  2  7  2        2 -.119757401959D-03 0.100000000000D+01
0.253554171901D-05 0.000000000000D+00 0.000000000000D+00 0.153519555679D-05 0.000000000000D+00  7 -2 2 24 -13 13 -24 21 2 0.20987383D-01 0.19373910D+00 0.13118466D+06 0.13118466D+06 0.13118466D+06 0.11121749D+01  1  2 15  2  7  2        2 0.129834808372D-03 0.100000000000D+01
-.414614439812D-05 0.000000000000D+00 0.000000000000D+00 0.153519555679D-05 0.000000000000D+00  7 -2 2 24 -13 13 -24 21 2 0.20987383D-01 0.19373910D+00 0.13118466D+06 0.13118466D+06 0.13118466D+06 0.11121749D+01  1  2  4  2  7  2        2 -.212307239662D-03 0.100000000000D+01
  </mgrwgt>
  </event>
  <event>
  8     66 0.27011060E-05 0.19706433E+03 0.75467711E-02 0.10526446E+00
       -2 -1    0    0    0  501 0.00000000E+00 0.00000000E+00 0.16657235E+03 0.16657266E+03 0.32000000E+00 0.0000E+00 0.9000E+01
        2 -1    0    0  501    0 0.00000000E+00 0.00000000E+00 -.40718900E+03 0.40718913E+03 0.32000000E+00 0.0000E+00 0.9000E+01
       25  2    1    2    0    0 -.20982560E+02 0.12733514E+03 -.25642193E+03 0.41459372E+03 0.29913416E+03 0.0000E+00 0.0000E+00
       23  2    1    2    0    0 0.20982560E+02 -.12733514E+03 0.15805281E+02 0.15916806E+03 0.91815901E+02 0.0000E+00 0.0000E+00
       24  1    3    3    0    0 0.25774881E+02 -.23446708E+02 -.21567143E+03 0.23279921E+03 0.80419002E+02 0.0000E+00 0.9000E+01
      -13  1    4    4    0    0 0.78161093E+01 -.72654493E+02 -.37099758E+02 0.81952243E+02 0.10565837E+00 0.0000E+00 0.9000E+01
       13  1    4    4    0    0 0.13166451E+02 -.54680648E+02 0.52905039E+02 0.77215821E+02 0.10565837E+00 0.0000E+00 0.9000E+01
      -24  1    3    3    0    0 -.46757441E+02 0.15078185E+03 -.40750501E+02 0.18179451E+03 0.80419002E+02 0.0000E+00 0.9000E+01
#aMCatNLO 1  0  0  2  2 0.39762016D+02 0.00000000D+00  -5  7  0 0.00000000D+00 0.00000000D+00 0.00000000D+00 0.00000000D+00 0.00000000D+00
  <mgrwgt>
 0.8140797192D-03    4    2    0
 0.260435316815279D+03 0.000000000000000D+00 0.000000000000000D+00 0.260435316815279D+03
 0.260435316815279D+03 0.000000000000000D+00 0.000000000000000D+00 -.260435316815279D+03
 0.156808909398957D+03 0.257748801828375D+02 -.234467064997949D+02 -.130029710521836D+03
 0.731356668421198D+02 0.781610235927238D+01 -.726545173384368D+02 -.300922226990770D+01
 0.109496182915197D+03 0.131664577821855D+02 -.546806260718744D+02 0.939472596452716D+02
 0.181429874474285D+03 -.467574403242955D+02 0.150781849910106D+03 0.390916731464721D+02
 0.000000000000000D+00 -.000000000000000D+00 -.000000000000000D+00 0.000000000000000D+00
 0.362075446958100D+03 0.000000000000000D+00 0.000000000000000D+00 0.362075446958100D+03
 0.265111021341277D+03 0.000000000000000D+00 0.000000000000000D+00 -.265111021341277D+03
 0.155794043415554D+03 0.275799911108625D+02 -.116698963718262D+02 -.130029710521836D+03
 0.679566062251941D+02 0.863083299978816D+01 -.673390943858480D+02 -.300922226990770D+01
 0.105841037836414D+03 0.144099123525584D+02 -.465681449214452D+02 0.939472596452716D+02
 0.192794410024358D+03 -.445964999384199D+02 0.164880143941355D+03 0.390916731464721D+02
 0.104800370797857D+03 -.602423652478919D+01 -.393030082622351D+02 0.969644256168226D+02
0.710370175818D-05 0.000000000000D+00 0.000000000000D+00 0.242915139642D-06 0.000000000000D+00  7 -2 2 24 -13 13 -24 21 0 0.25626549D-01 0.62644495D-01 0.38834350D+05 0.38834350D+05 0.38834350D+05 0.11570763D+01  1  2  2  2  7  2        2 0.870480771098D-03 0.100000000000D+01
-.357346134811D-06 0.000000000000D+00 -.272800851991D-07 0.242915139642D-06 0.000000000000D+00  7 -2 2 24 -13 13 -24 21 2 0.25626549D-01 0.62644495D-01 0.38834350D+05 0.38834350D+05 0.38834350D+05 0.11570763D+01  1  2  3  2  7  2        2 -.586256305887D-04 0.100000000000D+01
0.447625863377D-06 0.000000000000D+00 0.000000000000D+00 0.242915139642D-06 0.000000000000D+00  7 -2 2 24 -13 13 -24 21 2 0.25626549D-01 0.62644495D-01 0.38834350D+05 0.38834350D+05 0.38834350D+05 0.11570763D+01  1  2 15  2  7  2        2 0.734367772641D-04 0.100000000000D+01
-.434066186557D-06 0.000000000000D+00 0.000000000000D+00 0.242915139642D-06 0.000000000000D+00  7 -2 2 24 -13 13 -24 21 2 0.25626549D-01 0.62644495D-01 0.38834350D+05 0.38834350D+05 0.38834350D+05 0.11570763D+01  1  2  4  2  7  2        2 -.712121985526D-04 0.100000000000D+01
  </mgrwgt>
  </event>
  <event>
  8     66 0.27011060E-05 0.39259075E+03 0.75467711E-02 0.96719381E-01
       -2 -1    0    0    0  501 0.00000000E+00 0.00000000E+00 0.24382779E+03 0.24382800E+03 0.32000000E+00 0.0000E+00 0.9000E+01
        2 -1    0    0  501    0 0.00000000E+00 0.00000000E+00 -.64150980E+03 0.64150988E+03 0.32000000E+00 0.0000E+00 0.9000E+01
       25  2    1    2    0    0 -.19312114E+03 0.26852027E+03 -.19615887E+03 0.48730188E+03 0.29930905E+03 0.0000E+00 0.0000E+00
       23  2    1    2    0    0 0.19312114E+03 -.26852027E+03 -.20152314E+03 0.39803601E+03 0.91772391E+02 0.0000E+00 0.0000E+00
       24  1    3    3    0    0 0.44501696E+02 0.32388497E+02 -.16775522E+02 0.98884022E+02 0.80419002E+02 0.0000E+00 0.9000E+01
      -11  1    4    4    0    0 0.16669646E+03 -.26937101E+03 -.18748007E+03 0.36809948E+03 0.51099893E-03 0.0000E+00 0.9000E+01
       11  1    4    4    0    0 0.26424680E+02 0.85073913E+00 -.14043074E+02 0.29936523E+02 0.51099893E-03 0.0000E+00 0.9000E+01
      -24  1    3    3    0    0 -.23762284E+03 0.23613178E+03 -.17938335E+03 0.38841786E+03 0.80419002E+02 0.0000E+00 0.9000E+01
#aMCatNLO 1  0  0  1  2 0.48284486D+02 0.00000000D+00  -5  7  0 0.00000000D+00 0.00000000D+00 0.00000000D+00 0.00000000D+00 0.00000000D+00
  <mgrwgt>
 0.6673946265D-03    4    2    0
 0.395497214305574D+03 0.000000000000000D+00 0.000000000000000D+00 0.395497214305574D+03
 0.395497214305574D+03 0.000000000000000D+00 0.000000000000000D+00 -.395497214305574D+03
 0.102244016494125D+03 0.445016964892152D+02 0.323884965906675D+02 0.309387661786708D+02
 0.317745558169022D+03 0.166696462392122D+03 -.269371012671756D+03 -.247747188538641D+02
 0.264467855741998D+02 0.264246802704617D+02 0.850739134963000D+00 -.667070263026916D+00
 0.344558068373800D+03 -.237622839151798D+03 0.236131776946126D+03 -.549697706177981D+01
 0.000000000000000D+00 0.000000000000000D+00 0.000000000000000D+00 -.000000000000000D+00
 0.406830722547086D+03 0.000000000000000D+00 0.000000000000000D+00 0.406830722547086D+03
 0.451232843394217D+03 0.000000000000000D+00 0.000000000000000D+00 -.451232843394217D+03
 0.992252380233230D+02 0.408279535666683D+02 0.274645746610804D+02 0.309387661786708D+02
 0.325431150586499D+03 0.154968291325042D+03 -.285090294050080D+03 -.247747188538641D+02
 0.254897979198888D+02 0.254776292849916D+02 -.418594406906175D+00 -.667070263026916D+00
 0.342320581047208D+03 -.250147904492428D+03 0.219344417242284D+03 -.549697706177981D+01
 0.655967983643847D+02 0.288740303157265D+02 0.386998965536223D+02 -.444021208471306D+02
0.255710145898D-04 0.000000000000D+00 0.000000000000D+00 0.841899754217D-06 0.000000000000D+00  7 -2 2 24 -11 11 -24 21 0 0.37511990D-01 0.98693838D-01 0.15412749D+06 0.15412749D+06 0.15412749D+06 0.11066228D+01  1  2  2  1  7  1       -2 0.956797137779D-03 0.100000000000D+01
-.142051794870D-05 0.000000000000D+00 -.981994290275D-07 0.841899754217D-06 0.000000000000D+00  7 -2 2 24 -11 11 -24 21 2 0.37511990D-01 0.98693838D-01 0.15412749D+06 0.15412749D+06 0.15412749D+06 0.11066228D+01  1  2  3  1  7  1       -2 -.650905367997D-04 0.100000000000D+01
0.167053772202D-05 0.000000000000D+00 0.000000000000D+00 0.841899754217D-06 0.000000000000D+00  7 -2 2 24 -11 11 -24 21 2 0.37511990D-01 0.98693838D-01 0.15412749D+06 0.15412749D+06 0.15412749D+06 0.11066228D+01  1  2 15  1  7  1       -2 0.765468660005D-04 0.100000000000D+01
-.656586047519D-05 0.000000000000D+00 0.000000000000D+00 0.841899754217D-06 0.000000000000D+00  7 -2 2 24 -11 11 -24 21 2 0.37511990D-01 0.98693838D-01 0.15412749D+06 0.15412749D+06 0.15412749D+06 0.11066228D+01  1  2  4  1  7  1       -2 -.300858840448D-03 0.100000000000D+01
  </mgrwgt>
  </event>
  <event>
  8     66 0.27011060E-05 0.41530384E+03 0.75467711E-02 0.86317895E-01
       -2 -1    0    0    0  501 0.00000000E+00 0.00000000E+00 0.10986684E+03 0.10986730E+03 0.32000000E+00 0.0000E+00 0.9000E+01
        2 -1    0    0  501    0 0.00000000E+00 0.00000000E+00 -.19088873E+04 0.19088873E+04 0.32000000E+00 0.0000E+00 0.9000E+01
       25  2    1    2    0    0 0.20550166E+03 0.33881059E+03 -.83260550E+03 0.97015446E+03 0.30156956E+03 0.0000E+00 0.0000E+00
       23  2    1    2    0    0 -.20550166E+03 -.33881059E+03 -.96641495E+03 0.10486002E+04 0.92633133E+02 0.0000E+00 0.0000E+00
       24  1    3    3    0    0 0.10775915E+03 0.15038314E+03 -.15168144E+03 0.25239176E+03 0.80419002E+02 0.0000E+00 0.9000E+01
      -13  1    4    4    0    0 -.16044991E+03 -.20272476E+03 -.69732358E+03 0.74370807E+03 0.10565837E+00 0.0000E+00 0.9000E+01
       13  1    4    4    0    0 -.45051753E+02 -.13608583E+03 -.26909137E+03 0.30489210E+03 0.10565837E+00 0.0000E+00 0.9000E+01
      -24  1    3    3    0    0 0.97742513E+02 0.18842745E+03 -.68092406E+03 0.71776270E+03 0.80419002E+02 0.0000E+00 0.9000E+01
#aMCatNLO 1  0  0  2  2 0.99221795D+03 0.00000000D+00  -5  7  0 0.00000000D+00 0.00000000D+00 0.00000000D+00 0.00000000D+00 0.00000000D+00
  <mgrwgt>
 0.7484705643D-03    3    2    0
 0.457956228815638D+03 0.000000000000000D+00 0.000000000000000D+00 0.457956228815638D+03
 0.457956228815638D+03 0.000000000000000D+00 0.000000000000000D+00 -.457956228815638D+03
 0.258364221702957D+03 0.107759148364337D+03 0.150383140727753D+03 0.161424075126525D+03
 0.269528882730418D+03 -.160450058406713D+03 -.202724843404524D+03 -.761855317616221D+02
 0.143464914159334D+03 -.450516028454804D+02 -.136085746747752D+03 0.576230925106761D+01
 0.244554439038566D+03 0.977425128878560D+02 0.188427449424522D+03 -.910008526159703D+02
 0.000000000000000D+00 0.000000000000000D+00 0.000000000000000D+00 0.000000000000000D+00
 0.162617139144502D+04 0.000000000000000D+00 0.000000000000000D+00 0.162617139144502D+04
 0.933969080314628D+03 0.000000000000000D+00 0.000000000000000D+00 -.933969080314628D+03
 0.215543188206970D+03 0.103335732881646D+03 -.570582536309517D+02 0.161424075126525D+03
 0.620636320182850D+03 -.168758792261429D+03 -.592372920308459D+03 -.761855317616221D+02
 0.359940552579819D+03 -.497503509323030D+02 -.356439195046888D+03 0.576230925106761D+01
 0.154210302133329D+03 0.940204733223924D+02 0.138779230824291D+02 -.910008526159703D+02
 0.120981010865668D+04 0.211529369896934D+02 0.991992445903869D+03 0.692202311130389D+03
0.284288553752D-04 0.000000000000D+00 0.000000000000D+00 0.122816132683D-06 0.000000000000D+00  7 -2 2 24 -13 13 -24 21 0 0.16902628D-01 0.29367501D+00 0.17247728D+06 0.17247728D+06 0.17247728D+06 0.11027981D+01  1  2  2  2  7  2        2 0.740208857109D-03 0.100000000000D+01
-.156102734126D-05 0.000000000000D+00 -.109174290130D-06 0.122816132683D-06 0.000000000000D+00  7 -2 2 24 -13 13 -24 21 2 0.16902628D-01 0.29367501D+00 0.17247728D+06 0.17247728D+06 0.17247728D+06 0.11027981D+01  1  2  3  2  7  2        2 -.494307721764D-04 0.100000000000D+01
0.182193264767D-05 0.000000000000D+00 0.000000000000D+00 0.122816132683D-06 0.000000000000D+00  7 -2 2 24 -13 13 -24 21 2 0.16902628D-01 0.29367501D+00 0.17247728D+06 0.17247728D+06 0.17247728D+06 0.11027981D+01  1  2 15  2  7  2        2 0.576924793354D-04 0.100000000000D+01
  </mgrwgt>
  </event>
  <event>
  8     66 0.27011060E-05 0.31103093E+03 0.75467711E-02 0.81593893E-01
       -2 -1    0    0    0  501 0.00000000E+00 0.00000000E+00 0.42615699E+03 0.42615711E+03 0.32000000E+00 0.0000E+00 0.9000E+01
        2 -1    0    0  501    0 0.00000000E+00 0.00000000E+00 -.83425565E+03 0.83425571E+03 0.32000000E+00 0.0000E+00 0.9000E+01
       25  2    1    2    0    0 0.60710079E+02 0.27991313E+03 -.71886223E+03 0.82980941E+03 0.29963924E+03 0.0000E+00 0.0000E+00
       23  2    1    2    0    0 -.60710079E+02 -.27991313E+03 0.31076357E+03 0.43060342E+03 0.82512013E+02 0.0000E+00 0.0000E+00
       24  1    3    3    0    0 0.47166560E+02 0.98298920E+02 -.72864358E+02 0.15383040E+03 0.80419002E+02 0.0000E+00 0.9000E+01
      -13  1    4    4    0    0 -.27807352E+02 -.18422857E+03 0.25264742E+03 0.31391742E+03 0.10565837E+00 0.0000E+00 0.9000E+01
       13  1    4    4    0    0 -.32902727E+02 -.95684554E+02 0.58116146E+02 0.11668599E+03 0.10565837E+00 0.0000E+00 0.9000E+01
      -24  1    3    3    0    0 0.13543518E+02 0.18161421E+03 -.64599787E+03 0.67597900E+03 0.80419002E+02 0.0000E+00 0.9000E+01
#aMCatNLO 1  0  0  2  1 0.18432639D+04 0.00000000D+00  -5  7  0 0.00000000D+00 0.00000000D+00 0.00000000D+00 0.00000000D+00 0.00000000D+00
  <mgrwgt>
 0.1839721387D-02    3    2    0
 0.596258325858826D+03 0.000000000000000D+00 0.000000000000000D+00 0.596258325858826D+03
 0.596258325858826D+03 0.000000000000000D+00 0.000000000000000D+00 -.596258325858826D+03
 0.137653393934129D+03 0.471665603267693D+02 0.982989195968443D+02 -.243696306957718D+02
 0.418250895141625D+03 -.278073435532468D+02 -.184228716858988D+03 0.374460068386167D+03
 0.143217375563989D+03 -.329027352046363D+02 -.956844090271867D+02 0.101356403589552D+03
 0.493394987077909D+03 0.135435184311138D+02 0.181614206289331D+03 -.451446841279948D+03
 0.000000000000000D+00 0.000000000000000D+00 -.000000000000000D+00 0.000000000000000D+00
 0.215325722162181D+04 0.000000000000000D+00 0.000000000000000D+00 0.215325722162181D+04
 0.190238583036784D+04 0.000000000000000D+00 0.000000000000000D+00 -.190238583036784D+04
 0.207963549474399D+03 -.138025077216530D+03 0.130907681649103D+03 -.243696306957718D+02
 0.762935730119452D+03 -.660721584443861D+03 -.727844305268787D+02 0.374460068386167D+03
 0.288098030073125D+03 -.264014108043711D+03 -.549900458018597D+02 0.101356403589552D+03
 0.936388212006336D+03 -.752576016563234D+03 0.316513437980483D+03 -.451446841279948D+03
 0.186025753031633D+04 0.181533678626734D+04 -.319646643300847D+03 0.250871391253971D+03
0.193735883180D-03 0.000000000000D+00 0.000000000000D+00 0.154089217690D-06 0.000000000000D+00  7 -2 2 24 -13 13 -24 21 0 0.65562628D-01 0.12834704D+00 0.96740240D+05 0.96740240D+05 0.96740240D+05 0.11229051D+01  1  2  2  2  7  2        2 0.177318399535D-02 0.100000000000D+01
-.522080948539D-05 0.000000000000D+00 -.743996803242D-06 0.154089217690D-06 0.000000000000D+00  7 -2 2 24 -13 13 -24 21 2 0.65562628D-01 0.12834704D+00 0.96740240D+05 0.96740240D+05 0.96740240D+05 0.11229051D+01  1  2  3  2  7  2        2 -.602514715761D-04 0.100000000000D+01
0.109862959353D-04 0.000000000000D+00 0.000000000000D+00 0.154089217690D-06 0.000000000000D+00  7 -2 2 24 -13 13 -24 21 2 0.65562628D-01 0.12834704D+00 0.96740240D+05 0.96740240D+05 0.96740240D+05 0.11229051D+01  1  2 15  2  7  2        2 0.126788862747D-03 0.100000000000D+01
  </mgrwgt>
  </event>
  <event>
  8     66 0.27011060E-05 0.23456664E+03 0.75467711E-02 0.91130231E-01
       -2 -1    0    0    0  501 0.00000000E+00 0.00000000E+00 0.10652297E+03 0.10652345E+03 0.32000000E+00 0.0000E+00 0.9000E+01
        2 -1    0    0  501    0 0.00000000E+00 0.00000000E+00 -.20378587E+04 0.20378588E+04 0.32000000E+00 0.0000E+00 0.9000E+01
       25  2    1    2    0    0 0.61923260E+02 0.11415594E+03 -.19561857E+04 0.19833324E+04 0.30013120E+03 0.0000E+00 0.0000E+00
       23  2    1    2    0    0 -.61923260E+02 -.11415594E+03 0.24849958E+02 0.16104981E+03 0.91942643E+02 0.0000E+00 0.0000E+00
       24  1    3    3    0    0 -.55986203E+02 -.48801209E+02 -.72931114E+03 0.73748082E+03 0.80419002E+02 0.0000E+00 0.9000E+01
      -11  1    4    4    0    0 -.44383393E+01 0.73725215E+01 0.25181186E+02 0.26610995E+02 0.51099893E-03 0.0000E+00 0.9000E+01
       11  1    4    4    0    0 -.57484921E+02 -.12152847E+03 -.33122764E+00 0.13443881E+03 0.51099893E-03 0.0000E+00 0.9000E+01
      -24  1    3    3    0    0 0.11790946E+03 0.16295715E+03 -.12268746E+04 0.12458516E+04 0.80419002E+02 0.0000E+00 0.9000E+01
#aMCatNLO 1  0  0  1  1 0.60302641D+03 0.00000000D+00  -5  7  0 0.00000000D+00 0.00000000D+00 0.00000000D+00 0.00000000D+00 0.00000000D+00
  <mgrwgt>
 0.1189622723D-02    3    2    0
 0.465917694941175D+03 0.000000000000000D+00 0.000000000000000D+00 0.465917694941175D+03
 0.465917694941175D+03 0.000000000000000D+00 0.000000000000000D+00 -.465917694941175D+03
 0.185543571835192D+03 -.559862026754603D+02 -.488012093969113D+02 -.149810507529918D+03
 0.113429334664867D+03 -.443833929615329D+01 0.737252153300333D+01 0.113102436017321D+03
 0.308690234517284D+03 -.574849211933296D+02 -.121528466380923D+03 0.277877628787985D+03
 0.324172248865006D+03 0.117909463164943D+03 0.162957154244831D+03 -.241169557275387D+03
 0.000000000000000D+00 -.000000000000000D+00 0.000000000000000D+00 -.000000000000000D+00
 0.682021158468043D+03 0.000000000000000D+00 0.000000000000000D+00 0.682021158468043D+03
 0.127049712949993D+04 0.000000000000000D+00 0.000000000000000D+00 -.127049712949993D+04
 0.204422703641078D+03 0.450016993186158D+02 -.104178139269342D+03 -.149810507529918D+03
 0.130296562964461D+03 0.586783161970641D+02 -.272376301387812D+02 0.113102436017321D+03
 0.372884920690465D+03 0.119019687805624D+03 -.218315142425240D+03 0.277877628787985D+03
 0.402331867314652D+03 0.306049133431145D+03 0.597903677205908D+02 -.241169557275387D+03
 0.842582233357314D+03 -.528748836752449D+03 0.289940544112773D+03 -.588475971031885D+03
0.469785963263D-04 0.000000000000D+00 0.000000000000D+00 0.388676628556D-05 0.000000000000D+00  7 -2 2 24 -11 11 -24 21 0 0.16388187D-01 0.31351677D+00 0.55021509D+05 0.55021509D+05 0.55021509D+05 0.11436574D+01  1  2  2  1  7  1       -2 0.113648436350D-02 0.100000000000D+01
-.111541438071D-05 0.000000000000D+00 -.180410179642D-06 0.388676628556D-05 0.000000000000D+00  7 -2 2 24 -11 11 -24 21 2 0.16388187D-01 0.31351677D+00 0.55021509D+05 0.55021509D+05 0.55021509D+05 0.11436574D+01  1  2  3  1  7  1       -2 -.352932433517D-04 0.100000000000D+01
0.279480919495D-05 0.000000000000D+00 0.000000000000D+00 0.388676628556D-05 0.000000000000D+00  7 -2 2 24 -11 11 -24 21 2 0.16388187D-01 0.31351677D+00 0.55021509D+05 0.55021509D+05 0.55021509D+05 0.11436574D+01  1  2 15  1  7  1       -2 0.884316024116D-04 0.100000000000D+01
  </mgrwgt>
  </event>
  <event>
  8     66 0.27011060E-05 0.32463110E+03 0.75467711E-02 0.92259304E-01
       -2 -1    0    0    0  501 0.00000000E+00 0.00000000E+00 0.21883115E+03 0.21883138E+03 0.32000000E+00 0.0000E+00 0.9000E+01
        2 -1    0    0  501    0 0.00000000E+00 0.00000000E+00 -.62977053E+03 0.62977061E+03 0.32000000E+00 0.0000E+00 0.9000E+01
       25  2    1    2    0    0 -.25832154E+03 -.48882434E+02 -.40820650E+03 0.57044134E+03 0.29941821E+03 0.0000E+00 0.0000E+00
       23  2    1    2    0    0 0.25832154E+03 0.48882434E+02 -.27328768E+01 0.27816065E+03 0.90809520E+02 0.0000E+00 0.0000E+00
       24  1    3    3    0    0 0.86867123E+01 0.24194759E+02 -.19312606E+03 0.21077414E+03 0.80419002E+02 0.0000E+00 0.9000E+01
      -13  1    4    4    0    0 -.57593714E+01 0.71858803E+01 -.56267359E+01 0.10792523E+02 0.10565837E+00 0.0000E+00 0.9000E+01
       13  1    4    4    0    0 0.26408091E+03 0.41696554E+02 0.28938591E+01 0.26736813E+03 0.10565837E+00 0.0000E+00 0.9000E+01
      -24  1    3    3    0    0 -.26700826E+03 -.73077193E+02 -.21508044E+03 0.35966720E+03 0.80419002E+02 0.0000E+00 0.9000E+01
#aMCatNLO 1  0  0  1  1 0.44095221D+03 0.00000000D+00  -5  7  0 0.00000000D+00 0.00000000D+00 0.00000000D+00 0.00000000D+00 0.00000000D+00
  <mgrwgt>
 0.9664005852D-03    5    2    0
 0.371232464868662D+03 0.000000000000000D+00 0.000000000000000D+00 0.371232464868662D+03
 0.371232464868662D+03 0.000000000000000D+00 0.000000000000000D+00 -.371232464868662D+03
 0.134013399604452D+03 0.868671226832946D+01 0.241947586174855D+02 -.104074636701652D+03
 0.922065057218717D+01 -.575973656001882D+01 0.718583351267134D+01 -.457852008544098D+00
 0.307191115359115D+03 0.264081280292523D+03 0.416966009153961D+02 0.151290621740877D+03
 0.292039764201571D+03 -.267008256000833D+03 -.730771930455529D+02 -.467581330306807D+02
 0.000000000000000D+00 -.000000000000000D+00 -.000000000000000D+00 0.000000000000000D+00
 0.908120936138487D+03 0.000000000000000D+00 0.000000000000000D+00 0.908120936138487D+03
 0.533813089198492D+03 0.000000000000000D+00 0.000000000000000D+00 -.533813089198492D+03
 0.170507943318325D+03 0.580811588025265D+02 0.916558332450773D+02 -.104074636701652D+03
 0.121467342958338D+02 -.229387062330280D+01 0.119193826667074D+02 -.457852008544098D+00
 0.469918536183041D+03 0.390131233855355D+03 0.213850879802185D+03 0.151290621740877D+03
 0.210961974801847D+03 -.185419582230559D+03 0.383535445409519D+02 -.467581330306807D+02
 0.578398836737933D+03 -.260498939804020D+03 -.355779640254921D+03 0.374307846939995D+03
0.201761789696D-04 0.000000000000D+00 0.000000000000D+00 0.132469903142D-05 0.000000000000D+00  7 -2 2 24 -13 13 -24 21 0 0.33666355D-01 0.96887798D-01 0.10538535D+06 0.10538535D+06 0.10538535D+06 0.11198574D+01  1  2  2  1  7  1       -2 0.943620412395D-03 0.100000000000D+01
-.109637671653D-05 0.000000000000D+00 -.774818397534D-07 0.132469903142D-05 0.000000000000D+00  7 -2 2 24 -13 13 -24 21 2 0.33666355D-01 0.96887798D-01 0.10538535D+06 0.10538535D+06 0.10538535D+06 0.11198574D+01  1  2  3  1  7  1       -2 -.643048440818D-04 0.100000000000D+01
0.129795668448D-05 0.000000000000D+00 0.000000000000D+00 0.132469903142D-05 0.000000000000D+00  7 -2 2 24 -13 13 -24 21 2 0.33666355D-01 0.96887798D-01 0.10538535D+06 0.10538535D+06 0.10538535D+06 0.11198574D+01  1  2 15  1  7  1       -2 0.761279412103D-04 0.100000000000D+01
-.105557514779D-06 0.000000000000D+00 -.640291236870D-05 0.132469903142D-05 0.000000000000D+00  7 -2 2 24 -13 13 -24 21 2 0.11002436D+00 0.96887798D-01 0.10538535D+06 0.10538535D+06 0.10538535D+06 0.11198574D+01  1  2  5  1  7  1       -2 -.524125994103D-06 0.100000000000D+01
0.246651676357D-06 0.000000000000D+00 -.876563251882D-06 0.132469903142D-05 0.000000000000D+00  7 21 2 24 -13 13 -24 2 2 0.11002436D+00 0.96887798D-01 0.10538535D+06 0.10538535D+06 0.10538535D+06 0.11198574D+01  1  2  5  3  7  1       -2 0.114812016696D-04 0.100000000000D+01
  </mgrwgt>
  </event>
  <event>
  8     66 0.27011060E-05 0.28631285E+03 0.75467711E-02 0.10002583E+00
       -2 -1    0    0    0  501 0.00000000E+00 0.00000000E+00 0.62928677E+02 0.62929491E+02 0.32000000E+00 0.0000E+00 0.9000E+01
        2 -1    0    0  501    0 0.00000000E+00 0.00000000E+00 -.14858726E+04 0.14858727E+04 0.32000000E+00 0.0000E+00 0.9000E+01
       25  2    1    2    0    0 0.74548767E+02 -.20423418E+03 -.76702865E+03 0.85191579E+03 0.30026395E+03 0.0000E+00 0.0000E+00
       23  2    1    2    0    0 -.74548767E+02 0.20423418E+03 -.65591530E+03 0.69688637E+03 0.90313944E+02 0.0000E+00 0.0000E+00
       24  1    3    3    0    0 -.71760068E+02 -.10633580E+03 -.49797372E+03 0.52048232E+03 0.80419002E+02 0.0000E+00 0.9000E+01
      -11  1    4    4    0    0 -.67326193E+02 0.85973585E+02 -.22686775E+03 0.25178016E+03 0.51099893E-03 0.0000E+00 0.9000E+01
       11  1    4    4    0    0 -.72225740E+01 0.11826059E+03 -.42904755E+03 0.44510621E+03 0.51099893E-03 0.0000E+00 0.9000E+01
      -24  1    3    3    0    0 0.14630883E+03 -.97898379E+02 -.26905493E+03 0.33143346E+03 0.80419002E+02 0.0000E+00 0.9000E+01
#aMCatNLO 1  0  0  1  1 0.62517248D+02 0.00000000D+00  -5  7  0 0.00000000D+00 0.00000000D+00 0.00000000D+00 0.00000000D+00 0.00000000D+00
  <mgrwgt>
 0.4049273067D-03    4    2    0
 0.305785310771570D+03 0.000000000000000D+00 0.000000000000000D+00 0.305785310771570D+03
 0.305785310771570D+03 0.000000000000000D+00 0.000000000000000D+00 -.305785310771570D+03
 0.159483551130256D+03 -.717600676094713D+02 -.106335799700222D+03 -.501096550132280D+02
 0.109778922265089D+03 -.673261931040997D+02 0.859735853219436D+02 0.112755542074190D+02
 0.128964392293374D+03 -.722257398530013D+01 0.118260593862382D+03 -.509321199631718D+02
 0.213343755854422D+03 0.146308834698871D+03 -.978983794841034D+02 0.897662207689808D+02
 0.000000000000000D+00 0.000000000000000D+00 0.000000000000000D+00 -.000000000000000D+00
 0.328053265575605D+03 0.000000000000000D+00 0.000000000000000D+00 0.328053265575605D+03
 0.354640240101979D+03 0.000000000000000D+00 0.000000000000000D+00 -.354640240101979D+03
 0.170741910518113D+03 -.877102163876831D+02 -.111720743233679D+03 -.501096550132280D+02
 0.114060549907685D+03 -.781378151570165D+02 0.823234642434762D+02 0.112755542074190D+02
 0.126469024845577D+03 -.195602083577568D+02 0.114095274443990D+03 -.509321199631718D+02
 0.203486216123080D+03 0.126175620151840D+03 -.104695571472108D+03 0.897662207689808D+02
 0.679358042831301D+02 0.592326197506163D+02 0.199975760183218D+02 -.265869745263746D+02
0.640779160956D-05 0.000000000000D+00 0.000000000000D+00 0.599279825752D-06 0.000000000000D+00  7 -2 2 24 -11 11 -24 21 0 0.96814002D-02 0.22859585D+00 0.81975049D+05 0.81975049D+05 0.81975049D+05 0.11288750D+01  1  2  2  1  7  1       -2 0.689239795637D-03 0.100000000000D+01
-.354114529636D-06 0.000000000000D+00 -.246076069910D-07 0.599279825752D-06 0.000000000000D+00  7 -2 2 24 -11 11 -24 21 2 0.96814002D-02 0.22859585D+00 0.81975049D+05 0.81975049D+05 0.81975049D+05 0.11288750D+01  1  2  3  1  7  1       -2 -.485397410423D-04 0.100000000000D+01
0.398502032835D-06 0.000000000000D+00 0.000000000000D+00 0.599279825752D-06 0.000000000000D+00  7 -2 2 24 -11 11 -24 21 2 0.96814002D-02 0.22859585D+00 0.81975049D+05 0.81975049D+05 0.81975049D+05 0.11288750D+01  1  2 15  1  7  1       -2 0.546240943532D-04 0.100000000000D+01
-.211854737977D-05 0.000000000000D+00 0.000000000000D+00 0.599279825752D-06 0.000000000000D+00  7 -2 2 24 -11 11 -24 21 2 0.96814002D-02 0.22859585D+00 0.81975049D+05 0.81975049D+05 0.81975049D+05 0.11288750D+01  1  2  4  1  7  1       -2 -.290396842247D-03 0.100000000000D+01
  </mgrwgt>
  </event>
  <event>
  8     66 0.27011060E-05 0.26192998E+03 0.75467711E-02 0.94443745E-01
       -2 -1    0    0    0  501 0.00000000E+00 0.00000000E+00 0.44643575E+03 0.44643587E+03 0.32000000E+00 0.0000E+00 0.9000E+01
        2 -1    0    0  501    0 0.00000000E+00 0.00000000E+00 -.44696130E+03 0.44696142E+03 0.32000000E+00 0.0000E+00 0.9000E+01
       25  2    1    2    0    0 -.19722945E+03 -.33296421E+03 0.50320317E+02 0.49175953E+03 0.29921677E+03 0.0000E+00 0.0000E+00
       23  2    1    2    0    0 0.19722945E+03 0.33296421E+03 -.50845868E+02 0.40163776E+03 0.94672922E+02 0.0000E+00 0.0000E+00
       24  1    3    3    0    0 -.22692479E+03 -.32052811E+03 0.56870611E+02 0.40488840E+03 0.80419002E+02 0.0000E+00 0.9000E+01
      -13  1    4    4    0    0 0.16549435E+03 0.27312660E+03 -.41705720E+01 0.31938053E+03 0.10565837E+00 0.0000E+00 0.9000E+01
       13  1    4    4    0    0 0.31735097E+02 0.59837611E+02 -.46675296E+02 0.82257221E+02 0.10565837E+00 0.0000E+00 0.9000E+01
      -24  1    3    3    0    0 0.29695347E+02 -.12436099E+02 -.65502941E+01 0.86871126E+02 0.80419002E+02 0.0000E+00 0.9000E+01
#aMCatNLO 1  0  0  1  2 0.13327392D+03 0.00000000D+00  -5  7  0 0.00000000D+00 0.00000000D+00 0.00000000D+00 0.00000000D+00 0.00000000D+00
  <mgrwgt>
 0.7897146103D-03    7    2    0
 0.446698563071273D+03 0.000000000000000D+00 0.000000000000000D+00 0.446698563071273D+03
 0.446698563071273D+03 0.000000000000000D+00 0.000000000000000D+00 -.446698563071273D+03
 0.404921924723415D+03 -.226924794890111D+03 -.320528113435387D+03 0.571088008014247D+02
 0.319378431149903D+03 0.165494517580529D+03 0.273126867044549D+03 -.398264145892812D+01
 0.822294827761626D+02 0.317349306655171D+02 0.598373458335908D+02 -.466269670564287D+02
 0.868672874930663D+02 0.296953466440649D+02 -.124360994427525D+02 -.649919228606792D+01
 0.000000000000000D+00 0.000000000000000D+00 0.000000000000000D+00 0.000000000000000D+00
 0.891661516684552D+03 0.000000000000000D+00 0.000000000000000D+00 0.891661516684552D+03
 0.461733103522453D+03 0.000000000000000D+00 0.000000000000000D+00 -.461733103522453D+03
 0.458264977213840D+03 -.228950544374907D+03 -.384525430222616D+03 0.571088008014247D+02
 0.281407740753176D+03 0.164084576957619D+03 0.228584134898849D+03 -.398264145892812D+01
 0.740677629609422D+02 0.313681282217863D+02 0.482493521720097D+02 -.466269670564287D+02
 0.895426214487068D+02 0.292813432789192D+02 -.255152608637786D+02 -.649919228606792D+01
 0.450111517830339D+03 0.421649591658277D+01 0.133207204015536D+03 0.429928413162099D+03
0.481533111552D-04 0.000000000000D+00 0.000000000000D+00 0.179617959887D-06 0.000000000000D+00  7 -2 2 24 -13 13 -24 21 0 0.68682441D-01 0.68763295D-01 0.19122422D+06 0.19122422D+06 0.19122422D+06 0.10993252D+01  1  2  2  1  7  1       -2 0.816804200553D-03 0.100000000000D+01
-.267371061384D-05 0.000000000000D+00 -.184921393894D-06 0.179617959887D-06 0.000000000000D+00  7 -2 2 24 -13 13 -24 21 2 0.68682441D-01 0.68763295D-01 0.19122422D+06 0.19122422D+06 0.19122422D+06 0.10993252D+01  1  2  3  1  7  1       -2 -.548098436329D-04 0.100000000000D+01
0.304555575665D-05 0.000000000000D+00 0.000000000000D+00 0.179617959887D-06 0.000000000000D+00  7 -2 2 24 -13 13 -24 21 2 0.68682441D-01 0.68763295D-01 0.19122422D+06 0.19122422D+06 0.19122422D+06 0.10993252D+01  1  2 15  1  7  1       -2 0.624324988400D-04 0.100000000000D+01
0.154830908984D-03 0.000000000000D+00 0.000000000000D+00 0.179617959887D-06 0.000000000000D+00  7 -2 2 24 -13 13 -24 21 2 0.13712888D+00 0.68763295D-01 0.25816671D+06 0.25816671D+06 0.25816671D+06 0.10894104D+01  1  2 12  1  7  1       -2 0.591255194059D-03 0.100000000000D+01
-.163918170842D-03 0.000000000000D+00 -.142408717804D-04 0.179617959887D-06 0.000000000000D+00  7 -2 2 24 -13 13 -24 21 2 0.13882349D+00 0.68763295D-01 0.19122422D+06 0.19122422D+06 0.19122422D+06 0.10993252D+01  1  2  5  1  7  1       -2 -.623459751546D-03 0.100000000000D+01
0.115843857002D-04 0.000000000000D+00 0.000000000000D+00 0.179617959887D-06 0.000000000000D+00  7 21 2 24 -13 13 -24 2 2 0.13712888D+00 0.68763295D-01 0.25816671D+06 0.25816671D+06 0.25816671D+06 0.10894104D+01  1  2 12  3  7  1       -2 0.385975455139D-03 0.100000000000D+01
-.116151635081D-04 0.000000000000D+00 -.108393825657D-05 0.179617959887D-06 0.000000000000D+00  7 21 2 24 -13 13 -24 2 2 0.13882349D+00 0.68763295D-01 0.19122422D+06 0.19122422D+06 0.19122422D+06 0.10993252D+01  1  2  5  3  7  1       -2 -.388483143148D-03 0.100000000000D+01
  </mgrwgt>
  </event>
  <event>
  8     66 0.27011060E-05 0.26627222E+03 0.75467711E-02 0.91136840E-01
       -2 -1    0    0    0  501 0.00000000E+00 0.00000000E+00 0.37943816E+03 0.37943829E+03 0.32000000E+00 0.0000E+00 0.9000E+01
        2 -1    0    0  501    0 0.00000000E+00 0.00000000E+00 -.10478860E+04 0.10478860E+04 0.32000000E+00 0.0000E+00 0.9000E+01
       25  2    1    2    0    0 0.19334050E+03 -.36419100E+02 0.27946977E+03 0.45491383E+03 0.30022715E+03 0.0000E+00 0.0000E+00
       23  2    1    2    0    0 -.19334050E+03 0.36419100E+02 -.94791758E+03 0.97241047E+03 0.91255080E+02 0.0000E+00 0.0000E+00
       24  1    3    3    0    0 0.31642823E+02 -.10681023E+03 0.32891755E+02 0.14127553E+03 0.80419002E+02 0.0000E+00 0.9000E+01
      -13  1    4    4    0    0 -.60254215E+02 0.31865960E+02 -.51455252E+03 0.51904751E+03 0.10565837E+00 0.0000E+00 0.9000E+01
       13  1    4    4    0    0 -.13308629E+03 0.45531397E+01 -.43336506E+03 0.45336296E+03 0.10565837E+00 0.0000E+00 0.9000E+01
      -24  1    3    3    0    0 0.16169768E+03 0.70391126E+02 0.24657802E+03 0.31363830E+03 0.80419002E+02 0.0000E+00 0.9000E+01
#aMCatNLO 1  0  0  1  2 0.57576965D+03 0.00000000D+00  -5  7  0 0.00000000D+00 0.00000000D+00 0.00000000D+00 0.00000000D+00 0.00000000D+00
  <mgrwgt>
 0.1346247281D-02    3    2    0
 0.630561696566860D+03 0.000000000000000D+00 0.000000000000000D+00 0.630561696566860D+03
 0.630561696566860D+03 0.000000000000000D+00 0.000000000000000D+00 -.630561696566860D+03
 0.177327947531891D+03 0.316428229616950D+02 -.106810225646650D+03 0.112108396089807D+03
 0.314717561156736D+03 -.602541171601362D+02 0.318659964491445D+02 -.307247689879028D+03
 0.283409223072865D+03 -.133086383083502D+03 0.455310311984803D+01 -.250176081215803D+03
 0.485668661372228D+03 0.161697677281943D+03 0.703911260776577D+02 0.445315375005025D+03
 0.000000000000000D+00 -.000000000000000D+00 -.000000000000000D+00 -.000000000000000D+00
 0.863864929773742D+03 0.000000000000000D+00 0.000000000000000D+00 0.863864929773742D+03
 0.117870393230983D+04 0.000000000000000D+00 0.000000000000000D+00 -.117870393230983D+04
 0.161138889684313D+03 0.704907193966293D+02 -.442864744525846D+02 0.112108396089807D+03
 0.343805494383866D+03 0.153285770620350D+02 0.153512571986103D+03 -.307247689879028D+03
 0.281247917075083D+03 -.682772505784417D+02 0.108860168565115D+03 -.250176081215803D+03
 0.600149250584761D+03 0.286323599684962D+03 0.270970330609571D+03 0.445315375005025D+03
 0.656227310355546D+03 -.303865645565184D+03 -.489056596708204D+03 -.314839002536085D+03
0.145235254987D-03 0.000000000000D+00 0.000000000000D+00 0.881748570640D-05 0.000000000000D+00  7 -2 2 24 -13 13 -24 21 0 0.58375116D-01 0.16121324D+00 0.70900893D+05 0.70900893D+05 0.70900893D+05 0.11341878D+01  1  2  2  1  7  1       -2 0.125487146557D-02 0.100000000000D+01
-.777607966767D-06 0.000000000000D+00 -.557741620469D-06 0.881748570640D-05 0.000000000000D+00  7 -2 2 24 -13 13 -24 21 2 0.58375116D-01 0.16121324D+00 0.70900893D+05 0.70900893D+05 0.70900893D+05 0.11341878D+01  1  2  3  1  7  1       -2 -.864286722897D-05 0.100000000000D+01
0.899878736211D-05 0.000000000000D+00 0.000000000000D+00 0.881748570640D-05 0.000000000000D+00  7 -2 2 24 -13 13 -24 21 2 0.58375116D-01 0.16121324D+00 0.70900893D+05 0.70900893D+05 0.70900893D+05 0.11341878D+01  1  2 15  1  7  1       -2 0.100018682571D-03 0.100000000000D+01
  </mgrwgt>
  </event>
  <event>
  8     66 0.27011060E-05 0.83884027E+03 0.75467711E-02 0.86930671E-01
       -2 -1    0    0    0  501 0.00000000E+00 0.00000000E+00 0.26253037E+03 0.26253057E+03 0.32000000E+00 0.0000E+00 0.9000E+01
        2 -1    0    0  501    0 0.00000000E+00 0.00000000E+00 -.29736294E+04 0.29736294E+04 0.32000000E+00 0.0000E+00 0.9000E+01
       25  2    1    2    0    0 0.78229886E+03 -.21670090E+03 -.89207151E+03 0.12421526E+04 0.29698620E+03 0.0000E+00 0.0000E+00
       23  2    1    2    0    0 -.78229886E+03 0.21670090E+03 -.18190275E+04 0.19940073E+04 0.90848229E+02 0.0000E+00 0.0000E+00
       24  1    3    3    0    0 0.15793303E+03 0.43346887E+02 -.21086109E+03 0.27883940E+03 0.80419002E+02 0.0000E+00 0.9000E+01
      -13  1    4    4    0    0 -.47404479E+03 0.16250765E+03 -.10392275E+04 0.11537422E+04 0.10565837E+00 0.0000E+00 0.9000E+01
       13  1    4    4    0    0 -.30825408E+03 0.54193242E+02 -.77979997E+03 0.84026513E+03 0.10565837E+00 0.0000E+00 0.9000E+01
      -24  1    3    3    0    0 0.62436583E+03 -.26004778E+03 -.68121042E+03 0.96331323E+03 0.80419002E+02 0.0000E+00 0.9000E+01
#aMCatNLO 1  0  0  1  2 0.37715288D+03 0.00000000D+00  -5  7  0 0.00000000D+00 0.00000000D+00 0.00000000D+00 0.00000000D+00 0.00000000D+00
  <mgrwgt>
 0.1661966469D-02    4    2    0
 0.883554397943673D+03 0.000000000000000D+00 0.000000000000000D+00 0.883554397943673D+03
 0.883554397943673D+03 0.000000000000000D+00 0.000000000000000D+00 -.883554397943673D+03
 0.187143887986758D+03 0.157933033118024D+03 0.433468868751991D+02 0.416392039405133D+02
 0.518500060720568D+03 -.474045010450008D+03 0.162507801003680D+03 -.133097166189342D+03
 0.342433375191390D+03 -.308253853074365D+03 0.541930955995007D+02 -.138936269199652D+03
 0.719031471988629D+03 0.624365830406349D+03 -.260047783478380D+03 0.230394231448481D+03
 0.000000000000000D+00 0.000000000000000D+00 -.000000000000000D+00 -.000000000000000D+00
 0.966842280023184D+03 0.000000000000000D+00 0.000000000000000D+00 0.966842280023184D+03
 0.146445966818457D+04 0.000000000000000D+00 0.000000000000000D+00 -.146445966818457D+04
 0.190661691753128D+03 0.146616144700078D+03 0.815754102427955D+02 0.416392039405133D+02
 0.592154363311409D+03 -.507313847284873D+03 0.274890150231192D+03 -.133097166189342D+03
 0.379911433973459D+03 -.329891160840516D+03 0.127284063275606D+03 -.138936269199652D+03
 0.644180863365030D+03 0.583531806992014D+03 -.122110184322373D+03 0.230394231448481D+03
 0.624393595804723D+03 0.107057056433296D+03 -.361639439427221D+03 -.497617388161381D+03
0.136334434138D-02 0.000000000000D+00 0.000000000000D+00 0.365288197980D-06 0.000000000000D+00  7 -2 2 24 -13 13 -24 21 0 0.40389305D-01 0.45748146D+00 0.70365299D+06 0.70365299D+06 0.70365299D+06 0.10581785D+01  1  2  2  1  7  1       -2 0.173924045930D-02 0.100000000000D+01
-.754929852387D-04 0.000000000000D+00 -.523560124769D-05 0.365288197980D-06 0.000000000000D+00  7 -2 2 24 -13 13 -24 21 2 0.40389305D-01 0.45748146D+00 0.70365299D+06 0.70365299D+06 0.70365299D+06 0.10581785D+01  1  2  3  1  7  1       -2 -.107839663431D-03 0.100000000000D+01
0.835436884266D-04 0.000000000000D+00 0.000000000000D+00 0.365288197980D-06 0.000000000000D+00  7 -2 2 24 -13 13 -24 21 2 0.40389305D-01 0.45748146D+00 0.70365299D+06 0.70365299D+06 0.70365299D+06 0.10581785D+01  1  2 15  1  7  1       -2 0.119339872615D-03 0.100000000000D+01
-.621462373596D-04 0.000000000000D+00 0.000000000000D+00 0.365288197980D-06 0.000000000000D+00  7 -2 2 24 -13 13 -24 21 2 0.40389305D-01 0.45748146D+00 0.70365299D+06 0.70365299D+06 0.70365299D+06 0.10581785D+01  1  2  4  1  7  1       -2 -.887741993404D-04 0.100000000000D+01
  </mgrwgt>
  </event>
  <event>
  8     66 0.27011060E-05 0.17651460E+03 0.75467711E-02 0.10778286E+00
       -2 -1    0    0    0  501 0.00000000E+00 0.00000000E+00 0.98673571E+02 0.98674090E+02 0.32000000E+00 0.0000E+00 0.9000E+01
        2 -1    0    0  501    0 0.00000000E+00 0.00000000E+00 -.70053462E+03 0.70053469E+03 0.32000000E+00 0.0000E+00 0.9000E+01
       25  2    1    2    0    0 -.42334907E+01 0.76576539E+02 -.17324483E+03 0.35459712E+03 0.29973898E+03 0.0000E+00 0.0000E+00
       23  2    1    2    0    0 0.42334907E+01 -.76576539E+02 -.42861621E+03 0.44461166E+03 0.89920990E+02 0.0000E+00 0.0000E+00
       24  1    3    3    0    0 0.90111739E+02 0.61022645E+01 -.17411753E+03 0.21199409E+03 0.80419002E+02 0.0000E+00 0.9000E+01
      -11  1    4    4    0    0 0.45583014E+01 0.56556377E+01 0.87727566E+00 0.73166906E+01 0.51099893E-03 0.0000E+00 0.9000E+01
       11  1    4    4    0    0 -.32481066E+00 -.82232177E+02 -.42949349E+03 0.43729497E+03 0.51099893E-03 0.0000E+00 0.9000E+01
      -24  1    3    3    0    0 -.94345230E+02 0.70474275E+02 0.87269808E+00 0.14260303E+03 0.80419002E+02 0.0000E+00 0.9000E+01
#aMCatNLO 1  0  0  2  2 0.88544211D+01 0.00000000D+00  -5  7  0 0.00000000D+00 0.00000000D+00 0.00000000D+00 0.00000000D+00 0.00000000D+00
  <mgrwgt>
 0.2575268857D-03    6    2    0
 0.262915364268158D+03 0.000000000000000D+00 0.000000000000000D+00 0.262915364268158D+03
 0.262915364268158D+03 0.000000000000000D+00 0.000000000000000D+00 -.262915364268158D+03
 0.122915938911235D+03 0.901117389645750D+02 0.610226447366809D+01 -.219942936493451D+02
 0.121247410690713D+02 0.455830135064115D+01 0.565563767223193D+01 0.970798626437012D+01
 0.173049189559993D+03 -.324810659868470D+00 -.822321771454476D+02 -.152262226265497D+03
 0.217740858996017D+03 -.943452296553476D+02 0.704742749995476D+02 0.164548533650472D+03
 0.000000000000000D+00 -.000000000000000D+00 0.000000000000000D+00 0.000000000000000D+00
 0.272379748489602D+03 0.000000000000000D+00 0.000000000000000D+00 0.272379748489602D+03
 0.265031766499864D+03 0.000000000000000D+00 0.000000000000000D+00 -.265031766499864D+03
 0.123944608180380D+03 0.915953470315544D+02 0.464686901611771D+01 -.219942936493451D+02
 0.121145620294771D+02 0.470397722326902D+01 0.551273200326442D+01 0.970798626437012D+01
 0.174039505080156D+03 0.176115890226809D+01 -.842784794626781D+02 -.152262226265497D+03
 0.215806597402241D+03 -.917396512779645D+02 0.679182448598251D+02 0.164548533650472D+03
 0.115062422972128D+02 -.632083187912697D+01 0.620063358347086D+01 0.734798198973801D+01
0.326841037697D-05 0.000000000000D+00 0.000000000000D+00 0.810061840382D-06 0.000000000000D+00  7 -2 2 24 -11 11 -24 21 0 0.15180595D-01 0.10777460D+00 0.31157406D+05 0.31157406D+05 0.31157406D+05 0.11658137D+01  1  2  2  2  7  2        2 0.513520322514D-03 0.100000000000D+01
-.146531706152D-06 0.000000000000D+00 -.125515564398D-07 0.810061840382D-06 0.000000000000D+00  7 -2 2 24 -11 11 -24 21 2 0.15180595D-01 0.10777460D+00 0.31157406D+05 0.31157406D+05 0.31157406D+05 0.11658137D+01  1  2  3  2  7  2        2 -.312903870409D-04 0.100000000000D+01
0.203730938333D-06 0.000000000000D+00 0.000000000000D+00 0.810061840382D-06 0.000000000000D+00  7 -2 2 24 -11 11 -24 21 2 0.15180595D-01 0.10777460D+00 0.31157406D+05 0.31157406D+05 0.31157406D+05 0.11658137D+01  1  2 15  2  7  2        2 0.435047136217D-04 0.100000000000D+01
-.125720794712D-05 0.000000000000D+00 0.000000000000D+00 0.810061840382D-06 0.000000000000D+00  7 -2 2 24 -11 11 -24 21 2 0.15180595D-01 0.10777460D+00 0.31157406D+05 0.31157406D+05 0.31157406D+05 0.11658137D+01  1  2  4  2  7  2        2 -.268464240876D-03 0.100000000000D+01
0.126066037978D-08 0.000000000000D+00 0.000000000000D+00 0.810061840382D-06 0.746891567464D-07  7 -2 2 24 -11 11 -24 21 2 0.15727063D-01 0.10864216D+00 0.32761863D+05 0.32761863D+05 0.32761863D+05 0.11638038D+01  1  2 11  2  7  2        2 0.251384518876D-06 0.100000000000D+01
0.196862508536D-10 0.000000000000D+00 0.000000000000D+00 0.810061840382D-06 0.113602273386D-09  7 -2 21 24 -11 11 -24 -2 2 0.15727063D-01 0.10864216D+00 0.32761863D+05 0.32761863D+05 0.32761863D+05 0.11638038D+01  1  2 11  4  7  2        2 0.509297551048D-08 0.100000000000D+01
  </mgrwgt>
  </event>
  <event>
  8     66 0.27011060E-05 0.65900339E+03 0.75467711E-02 0.89532524E-01
       -2 -1    0    0    0  501 0.00000000E+00 0.00000000E+00 0.21287832E+03 0.21287856E+03 0.32000000E+00 0.0000E+00 0.9000E+01
        2 -1    0    0  501    0 0.00000000E+00 0.00000000E+00 -.21027355E+04 0.21027356E+04 0.32000000E+00 0.0000E+00 0.9000E+01
       25  2    1    2    0    0 -.56689086E+03 -.25999990E+03 -.11666624E+04 0.13564453E+04 0.29979558E+03 0.0000E+00 0.0000E+00
       23  2    1    2    0    0 0.56689086E+03 0.25999990E+03 -.72319479E+03 0.95916883E+03 0.89604423E+02 0.0000E+00 0.0000E+00
       24  1    3    3    0    0 -.10064809E+03 -.15940178E+03 -.41027342E+03 0.45861799E+03 0.80419002E+02 0.0000E+00 0.9000E+01
      -11  1    4    4    0    0 0.27078198E+02 0.35658974E+02 -.64036880E+02 0.78137784E+02 0.51099893E-03 0.0000E+00 0.9000E+01
       11  1    4    4    0    0 0.53981266E+03 0.22434093E+03 -.65915791E+03 0.88103105E+03 0.51099893E-03 0.0000E+00 0.9000E+01
      -24  1    3    3    0    0 -.46624276E+03 -.10059812E+03 -.75638903E+03 0.89782731E+03 0.80419002E+02 0.0000E+00 0.9000E+01
#aMCatNLO 1  0  0  2  1 0.26421669D+03 0.00000000D+00  -5  7  0 0.00000000D+00 0.00000000D+00 0.00000000D+00 0.00000000D+00 0.00000000D+00
  <mgrwgt>
 0.7808934007D-03    4    2    0
 0.669049407511971D+03 0.000000000000000D+00 0.000000000000000D+00 0.669049407511971D+03
 0.669049407511971D+03 0.000000000000000D+00 0.000000000000000D+00 -.669049407511971D+03
 0.214202500538422D+03 -.100648094140217D+03 -.159401783870091D+03 -.622617677834245D+02
 0.447772573661195D+02 0.270781977473406D+02 0.356589741386811D+02 -.459942783936448D+00
 0.593688296634481D+03 0.539812661339182D+03 0.224340928645939D+03 0.103630265622257D+03
 0.485430760484919D+03 -.466242764946305D+03 -.100598118914530D+03 -.409085550548958D+02
 0.000000000000000D+00 -.000000000000000D+00 -.000000000000000D+00 0.000000000000000D+00
 0.854154306103867D+03 0.000000000000000D+00 0.000000000000000D+00 0.854154306103867D+03
 0.783326166405820D+03 0.000000000000000D+00 0.000000000000000D+00 -.783326166405820D+03
 0.193209341732347D+03 -.614381092700289D+02 -.152353092453298D+03 -.622617677834245D+02
 0.521500377936641D+02 0.364066398356722D+02 0.373359273407229D+02 -.459942783936448D+00
 0.717897015529658D+03 0.666041786048173D+03 0.247032856501338D+03 0.103630265622257D+03
 0.400678682716538D+03 -.380962136706322D+03 -.852674108236187D+02 -.409085550548958D+02
 0.273545394737480D+03 -.260048179907494D+03 -.467482805651440D+02 0.708281396980469D+02
0.182608599113D-03 0.000000000000D+00 0.000000000000D+00 0.298249229918D-05 0.000000000000D+00  7 -2 2 24 -11 11 -24 21 0 0.32750531D-01 0.32349780D+00 0.43428547D+06 0.43428547D+06 0.43428547D+06 0.10728624D+01  1  2  2  2  7  2        2 0.115560193892D-02 0.100000000000D+01
-.101420988271D-04 0.000000000000D+00 -.701265102541D-06 0.298249229918D-05 0.000000000000D+00  7 -2 2 24 -11 11 -24 21 2 0.32750531D-01 0.32349780D+00 0.43428547D+06 0.43428547D+06 0.43428547D+06 0.10728624D+01  1  2  3  2  7  2        2 -.738759196718D-04 0.100000000000D+01
0.111685287172D-04 0.000000000000D+00 0.000000000000D+00 0.298249229918D-05 0.000000000000D+00  7 -2 2 24 -11 11 -24 21 2 0.32750531D-01 0.32349780D+00 0.43428547D+06 0.43428547D+06 0.43428547D+06 0.10728624D+01  1  2 15  2  7  2        2 0.813525232236D-04 0.100000000000D+01
-.524685106560D-04 0.000000000000D+00 0.000000000000D+00 0.298249229918D-05 0.000000000000D+00  7 -2 2 24 -11 11 -24 21 2 0.32750531D-01 0.32349780D+00 0.43428547D+06 0.43428547D+06 0.43428547D+06 0.10728624D+01  1  2  4  2  7  2        2 -.382185141814D-03 0.100000000000D+01
  </mgrwgt>
  </event>
  <event>
  8     66 0.27011060E-05 0.10820443E+04 0.75467711E-02 0.81436563E-01
       -2 -1    0    0    0  501 0.00000000E+00 0.00000000E+00 0.33560586E+03 0.33560601E+03 0.32000000E+00 0.0000E+00 0.9000E+01
        2 -1    0    0  501    0 0.00000000E+00 0.00000000E+00 -.36404680E+04 0.36404680E+04 0.32000000E+00 0.0000E+00 0.9000E+01
       25  2    1    2    0    0 -.68476947E+02 -.10582848E+04 -.12847935E+04 0.16927780E+04 0.30024506E+03 0.0000E+00 0.0000E+00
       23  2    1    2    0    0 0.68476947E+02 0.10582848E+04 -.20200687E+04 0.22832961E+04 0.90042862E+02 0.0000E+00 0.0000E+00
       24  1    3    3    0    0 0.94314366E+02 -.47768046E+03 -.59666104E+03 0.77430320E+03 0.80419002E+02 0.0000E+00 0.9000E+01
      -11  1    4    4    0    0 0.42295623E+02 0.25036502E+03 -.42433361E+03 0.49450033E+03 0.51099893E-03 0.0000E+00 0.9000E+01
       11  1    4    4    0    0 0.26181324E+02 0.80791979E+03 -.15957351E+04 0.17887958E+04 0.51099893E-03 0.0000E+00 0.9000E+01
      -24  1    3    3    0    0 -.16279131E+03 -.58060434E+03 -.68813246E+03 0.91847477E+03 0.80419002E+02 0.0000E+00 0.9000E+01
#aMCatNLO 1  0  0  1  2 0.13415974D+04 0.00000000D+00  -5  7  0 0.00000000D+00 0.00000000D+00 0.00000000D+00 0.00000000D+00 0.00000000D+00
  <mgrwgt>
 0.4097279307D-03    5    2    0
 0.110533376014122D+04 0.000000000000000D+00 0.000000000000000D+00 0.110533376014122D+04
 0.110533376014122D+04 0.000000000000000D+00 0.000000000000000D+00 -.110533376014122D+04
 0.500665221332700D+03 0.943143660168118D+02 -.477680464930987D+03 0.844074740998318D+02
 0.255038729199236D+03 0.422956230191248D+02 0.250365021966893D+03 -.239413750754294D+02
 0.831739690241859D+03 0.261813238854702D+02 0.807919786655343D+03 -.195885346399398D+03
 0.623223879508642D+03 -.162791312921407D+03 -.580604343691249D+03 0.135419247374996D+03
 0.000000000000000D+00 -.000000000000000D+00 -.000000000000000D+00 0.000000000000000D+00
 0.267797077002897D+04 0.000000000000000D+00 0.000000000000000D+00 0.267797077002897D+04
 0.161784047613054D+04 0.000000000000000D+00 0.000000000000000D+00 -.161784047613054D+04
 0.339218256703403D+03 0.183535535078497D+03 -.260368768107968D+03 0.844074740998318D+02
 0.448633198271795D+03 0.117046982757333D+03 0.432433302346711D+03 -.239413750754294D+02
 0.143252140529468D+04 0.266714716061542D+03 0.139377536494574D+04 -.195885346399398D+03
 0.365537883327551D+03 -.577547421223017D+02 -.324771835903287D+03 0.135419247374996D+03
 0.170990050256208D+04 -.509542491775071D+03 -.124106806328120D+04 0.106013029389843D+04
0.152668961153D-02 0.000000000000D+00 0.000000000000D+00 0.115704088896D-04 0.000000000000D+00  7 -2 2 24 -11 11 -24 21 0 0.51631683D-01 0.56007202D+00 0.11708199D+07 0.11708199D+07 0.11708199D+07 0.10433350D+01  1  2  2  1  7  1       -2 0.401720206907D-03 0.100000000000D+01
-.847693243638D-04 0.000000000000D+00 -.586289009487D-05 0.115704088896D-04 0.000000000000D+00  7 -2 2 24 -11 11 -24 21 2 0.51631683D-01 0.56007202D+00 0.11708199D+07 0.11708199D+07 0.11708199D+07 0.10433350D+01  1  2  3  1  7  1       -2 -.242805882636D-04 0.100000000000D+01
0.100869056615D-03 0.000000000000D+00 0.000000000000D+00 0.115704088896D-04 0.000000000000D+00  7 -2 2 24 -11 11 -24 21 2 0.51631683D-01 0.56007202D+00 0.11708199D+07 0.11708199D+07 0.11708199D+07 0.10433350D+01  1  2 15  1  7  1       -2 0.288920555944D-04 0.100000000000D+01
0.534358859236D-03 0.000000000000D+00 -.628713538984D-03 0.115704088896D-04 0.000000000000D+00  7 -2 2 24 -11 11 -24 21 2 0.27620998D+00 0.56007202D+00 0.11708199D+07 0.11708199D+07 0.11708199D+07 0.10433350D+01  1  2  5  1  7  1       -2 0.162758848907D-05 0.100000000000D+01
0.835258691925D-04 0.000000000000D+00 -.128920574532D-03 0.115704088896D-04 0.000000000000D+00  7 21 2 24 -11 11 -24 2 2 0.27620998D+00 0.56007202D+00 0.11708199D+07 0.11708199D+07 0.11708199D+07 0.10433350D+01  1  2  5  3  7  1       -2 0.176866795082D-05 0.100000000000D+01
  </mgrwgt>
  </event>
  <event>
  8     66 0.27011060E-05 0.34568952E+03 0.75467711E-02 0.89848622E-01
       -2 -1    0    0    0  501 0.00000000E+00 0.00000000E+00 0.16182895E+03 0.16182927E+03 0.32000000E+00 0.0000E+00 0.9000E+01
        2 -1    0    0  501    0 0.00000000E+00 0.00000000E+00 -.13294894E+04 0.13294895E+04 0.32000000E+00 0.0000E+00 0.9000E+01
       25  2    1    2    0    0 0.27845864E+03 -.28795516E+02 -.11178580E+04 0.11912654E+04 0.30189121E+03 0.0000E+00 0.0000E+00
       23  2    1    2    0    0 -.27845864E+03 0.28795516E+02 -.49802444E+02 0.30005333E+03 0.95829627E+02 0.0000E+00 0.0000E+00
       24  1    3    3    0    0 0.18451721E+03 -.12961219E+03 -.51962611E+03 0.57212275E+03 0.80419002E+02 0.0000E+00 0.9000E+01
      -11  1    4    4    0    0 -.28448810E+03 0.30611734E+02 -.40737372E+02 0.28901573E+03 0.51099893E-03 0.0000E+00 0.9000E+01
       11  1    4    4    0    0 0.60294579E+01 -.18162189E+01 -.90650730E+01 0.11037598E+02 0.51099893E-03 0.0000E+00 0.9000E+01
      -24  1    3    3    0    0 0.93941431E+02 0.10081668E+03 -.59823193E+03 0.61914268E+03 0.80419002E+02 0.0000E+00 0.9000E+01
#aMCatNLO 1  0  0  1  2 0.61806378D+03 0.00000000D+00  -5  7  0 0.00000000D+00 0.00000000D+00 0.00000000D+00 0.00000000D+00 0.00000000D+00
  <mgrwgt>
 0.9144268155D-03    5    2    0
 0.463842805585554D+03 0.000000000000000D+00 0.000000000000000D+00 0.463842805585554D+03
 0.463842805585554D+03 0.000000000000000D+00 0.000000000000000D+00 -.463842805585554D+03
 0.265683215008241D+03 0.184517211692989D+03 -.129612194693166D+03 -.115214722837881D+03
 0.413337396644681D+03 -.284488100990035D+03 0.306117344919873D+02 0.298290538856796D+03
 0.633366379144874D+01 0.602945789341068D+01 -.181621892902775D+01 -.679914212631502D+00
 0.242331335726738D+03 0.939414314036354D+02 0.100816679130207D+03 -.182395901806284D+03
 0.000000000000000D+00 0.000000000000000D+00 -.000000000000000D+00 0.000000000000000D+00
 0.903846872634678D+03 0.000000000000000D+00 0.000000000000000D+00 0.903846872634678D+03
 0.832986870759150D+03 0.000000000000000D+00 0.000000000000000D+00 -.832986870759150D+03
 0.211843894625008D+03 0.158054279817641D+03 0.124511850134142D+02 -.115214722837881D+03
 0.551431772129107D+03 -.337952334273682D+03 0.317628672353330D+03 0.298290538856796D+03
 0.568541679699139D+01 0.536340123526515D+01 0.175943400232297D+01 -.679914212631502D+00
 0.345760149908230D+03 0.613513970225861D+02 0.275772744117037D+03 -.182395901806284D+03
 0.622112509934491D+03 0.113183256198190D+03 -.607612035486104D+03 0.708600018755284D+02
0.283168460509D-04 0.000000000000D+00 0.000000000000D+00 0.470773987812D-07 0.000000000000D+00  7 -2 2 24 -11 11 -24 21 0 0.24896789D-01 0.20453686D+00 0.11950124D+06 0.11950124D+06 0.11950124D+06 0.11154275D+01  1  2  2  1  7  1       -2 0.804489639139D-03 0.100000000000D+01
-.140782402807D-05 0.000000000000D+00 -.108744144832D-06 0.470773987812D-07 0.000000000000D+00  7 -2 2 24 -11 11 -24 21 2 0.24896789D-01 0.20453686D+00 0.11950124D+06 0.11950124D+06 0.11950124D+06 0.11154275D+01  1  2  3  1  7  1       -2 -.497630107621D-04 0.100000000000D+01
0.182950019575D-05 0.000000000000D+00 0.000000000000D+00 0.470773987812D-07 0.000000000000D+00  7 -2 2 24 -11 11 -24 21 2 0.24896789D-01 0.20453686D+00 0.11950124D+06 0.11950124D+06 0.11950124D+06 0.11154275D+01  1  2 15  1  7  1       -2 0.646681944017D-04 0.100000000000D+01
0.125021793262D-04 0.000000000000D+00 -.946389249744D-05 0.470773987812D-07 0.000000000000D+00  7 -2 2 24 -11 11 -24 21 2 0.89824183D-01 0.20453686D+00 0.11950124D+06 0.11950124D+06 0.11950124D+06 0.11154275D+01  1  2  5  1  7  1       -2 0.357112489828D-04 0.100000000000D+01
0.214789116320D-05 0.000000000000D+00 -.142770390386D-05 0.470773987812D-07 0.000000000000D+00  7 21 2 24 -11 11 -24 2 2 0.89824183D-01 0.20453686D+00 0.11950124D+06 0.11950124D+06 0.11950124D+06 0.11154275D+01  1  2  5  3  7  1       -2 0.593207437614D-04 0.100000000000D+01
  </mgrwgt>
  </event>
  <event>
  8     66 0.27011060E-05 0.27898727E+03 0.75467711E-02 0.10015415E+00
       -2 -1    0    0    0  501 0.00000000E+00 0.00000000E+00 0.74514281E+02 0.74514968E+02 0.32000000E+00 0.0000E+00 0.9000E+01
        2 -1    0    0  501    0 0.00000000E+00 0.00000000E+00 -.14801099E+04 0.14801099E+04 0.32000000E+00 0.0000E+00 0.9000E+01
       25  2    1    2    0    0 -.16098025E+03 -.11941795E+03 -.47032107E+03 0.59326260E+03 0.30097063E+03 0.0000E+00 0.0000E+00
       23  2    1    2    0    0 0.16098025E+03 0.11941795E+03 -.93527452E+03 0.96136227E+03 0.96455669E+02 0.0000E+00 0.0000E+00
       24  1    3    3    0    0 -.17334652E+03 0.14722690E+02 -.33558742E+03 0.38646075E+03 0.80419002E+02 0.0000E+00 0.9000E+01
      -11  1    4    4    0    0 0.15974069E+03 0.96811240E+02 -.90185872E+03 0.92099872E+03 0.51099893E-03 0.0000E+00 0.9000E+01
       11  1    4    4    0    0 0.12395686E+01 0.22606712E+02 -.33415800E+02 0.40363543E+02 0.51099893E-03 0.0000E+00 0.9000E+01
      -24  1    3    3    0    0 0.12366265E+02 -.13414064E+03 -.13473364E+03 0.20680185E+03 0.80419002E+02 0.0000E+00 0.9000E+01
#aMCatNLO 1  0  0  2  2 0.69451819D+02 0.00000000D+00  -5  7  0 0.00000000D+00 0.00000000D+00 0.00000000D+00 0.00000000D+00 0.00000000D+00
  <mgrwgt>
 0.1028355758D-02    4    2    0
 0.332099206326983D+03 0.000000000000000D+00 0.000000000000000D+00 0.332099206326983D+03
 0.332099206326983D+03 0.000000000000000D+00 0.000000000000000D+00 -.332099206326983D+03
 0.194371564695200D+03 -.173346518718677D+03 0.147226898015499D+02 0.323622629124190D+02
 0.247153387676435D+03 0.159740685510991D+03 0.968112404111389D+02 -.161849603528936D+03
 0.237595680462719D+02 0.123956864156531D+01 0.226067117589792D+02 0.720535403534787D+01
 0.198913892236058D+03 0.123662645661212D+02 -.134140641971668D+03 0.122281986581169D+03
 0.000000000000000D+00 0.000000000000000D+00 0.000000000000000D+00 0.000000000000000D+00
 0.489974207171929D+03 0.000000000000000D+00 0.000000000000000D+00 0.489974207171929D+03
 0.341636693182547D+03 0.000000000000000D+00 0.000000000000000D+00 -.341636693182547D+03
 0.194947834337411D+03 -.174526243827121D+03 -.554222998980261D+01 0.323622629124190D+02
 0.237424194861440D+03 0.158272306738884D+03 0.715879253972498D+02 -.161849603528936D+03
 0.215217010119103D+02 0.110235623914490D+01 0.202497234152316D+02 0.720535403534787D+01
 0.213925921041061D+03 0.111152673265836D+02 -.155629850378766D+03 0.122281986581169D+03
 0.163791249102655D+03 0.403631352250866D+01 0.693344315560869D+02 0.148337513989382D+03
0.132416853198D-04 0.000000000000D+00 0.000000000000D+00 0.316258066886D-07 0.000000000000D+00  7 -2 2 24 -11 11 -24 21 0 0.11463791D-01 0.22770927D+00 0.77833896D+05 0.77833896D+05 0.77833896D+05 0.11307638D+01  1  2  2  2  7  2        2 0.110530164438D-02 0.100000000000D+01
-.708485697945D-06 0.000000000000D+00 -.508515582440D-07 0.316258066886D-07 0.000000000000D+00  7 -2 2 24 -11 11 -24 21 2 0.11463791D-01 0.22770927D+00 0.77833896D+05 0.77833896D+05 0.77833896D+05 0.11307638D+01  1  2  3  2  7  2        2 -.756157847184D-04 0.100000000000D+01
0.820375007147D-06 0.000000000000D+00 0.000000000000D+00 0.316258066886D-07 0.000000000000D+00  7 -2 2 24 -11 11 -24 21 2 0.11463791D-01 0.22770927D+00 0.77833896D+05 0.77833896D+05 0.77833896D+05 0.11307638D+01  1  2 15  2  7  2        2 0.875575895303D-04 0.100000000000D+01
-.832837455782D-06 0.000000000000D+00 0.000000000000D+00 0.316258066886D-07 0.000000000000D+00  7 -2 2 24 -11 11 -24 21 2 0.11463791D-01 0.22770927D+00 0.77833896D+05 0.77833896D+05 0.77833896D+05 0.11307638D+01  1  2  4  2  7  2        2 -.888876909505D-04 0.100000000000D+01
  </mgrwgt>
  </event>
  <event>
  8     66 0.27011060E-05 0.22269318E+03 0.75467711E-02 0.10230354E+00
       -2 -1    0    0    0  501 0.00000000E+00 0.00000000E+00 0.57548891E+02 0.57549780E+02 0.32000000E+00 0.0000E+00 0.9000E+01
        2 -1    0    0  501    0 0.00000000E+00 0.00000000E+00 -.10364237E+04 0.10364237E+04 0.32000000E+00 0.0000E+00 0.9000E+01
       25  2    1    2    0    0 -.10980558E+03 -.10781603E+02 -.80641369E+03 0.86924274E+03 0.30513339E+03 0.0000E+00 0.0000E+00
       23  2    1    2    0    0 0.10980558E+03 0.10781603E+02 -.17246107E+03 0.22473074E+03 0.92669193E+02 0.0000E+00 0.0000E+00
       24  1    3    3    0    0 0.66450650E+02 0.17380166E+02 -.45346846E+03 0.46563786E+03 0.80419002E+02 0.0000E+00 0.9000E+01
      -13  1    4    4    0    0 0.11914500E+03 0.29670346E+02 -.15151274E+03 0.19501790E+03 0.10565837E+00 0.0000E+00 0.9000E+01
       13  1    4    4    0    0 -.93394211E+01 -.18888743E+02 -.20948324E+02 0.29712840E+02 0.10565837E+00 0.0000E+00 0.9000E+01
      -24  1    3    3    0    0 -.17625623E+03 -.28161769E+02 -.35294524E+03 0.40360488E+03 0.80419002E+02 0.0000E+00 0.9000E+01
#aMCatNLO 1  0  0  1  2 0.81055185D+02 0.00000000D+00  -5  7  0 0.00000000D+00 0.00000000D+00 0.00000000D+00 0.00000000D+00 0.00000000D+00
  <mgrwgt>
 0.6150118463D-03    4    2    0
 0.244224374752776D+03 0.000000000000000D+00 0.000000000000000D+00 0.244224374752776D+03
 0.244224374752776D+03 0.000000000000000D+00 0.000000000000000D+00 -.244224374752776D+03
 0.134111598239485D+03 0.664506394630763D+02 0.173801646635614D+02 -.824678556723424D+02
 0.133140859060947D+03 0.119145168982931D+03 0.296703978347858D+02 0.514838280612585D+02
 0.245659237001893D+02 -.933956600729883D+01 -.188887917812634D+02 0.126281692688571D+02
 0.196630368504931D+03 -.176256242438709D+03 -.281617707170838D+02 0.183558583422268D+02
 0.000000000000000D+00 -.000000000000000D+00 -.000000000000000D+00 -.000000000000000D+00
 0.282048060459955D+03 0.000000000000000D+00 0.000000000000000D+00 0.282048060459955D+03
 0.295194755274631D+03 0.000000000000000D+00 0.000000000000000D+00 -.295194755274631D+03
 0.141192396301041D+03 0.714579606740490D+02 0.395080935502030D+02 -.824678556723424D+02
 0.144127537245132D+03 0.124188219390801D+03 0.519562181557507D+02 0.514838280612585D+02
 0.215026166980364D+02 -.850165597304893D+01 -.151859708776123D+02 0.126281692688571D+02
 0.188305841175224D+03 -.169254893799290D+03 0.277799493329054D+01 0.183558583422268D+02
 0.821144243151521D+02 -.178896302925112D+02 -.790563357616319D+02 -.131466948146759D+02
0.513308716638D-05 0.000000000000D+00 0.000000000000D+00 0.377116223279D-08 0.000000000000D+00  7 -2 2 24 -13 13 -24 21 0 0.88537477D-02 0.15944987D+00 0.49592253D+05 0.49592253D+05 0.49592253D+05 0.11476083D+01  1  2  2  1  7  1       -2 0.112843065443D-02 0.100000000000D+01
-.282218126688D-06 0.000000000000D+00 -.197124062918D-07 0.377116223279D-08 0.000000000000D+00  7 -2 2 24 -13 13 -24 21 2 0.88537477D-02 0.15944987D+00 0.49592253D+05 0.49592253D+05 0.49592253D+05 0.11476083D+01  1  2  3  1  7  1       -2 -.817087404930D-04 0.100000000000D+01
0.317613407502D-06 0.000000000000D+00 0.000000000000D+00 0.377116223279D-08 0.000000000000D+00  7 -2 2 24 -13 13 -24 21 2 0.88537477D-02 0.15944987D+00 0.49592253D+05 0.49592253D+05 0.49592253D+05 0.11476083D+01  1  2 15  1  7  1       -2 0.919565011476D-04 0.100000000000D+01
-.180871957105D-05 0.000000000000D+00 0.000000000000D+00 0.377116223279D-08 0.000000000000D+00  7 -2 2 24 -13 13 -24 21 2 0.88537477D-02 0.15944987D+00 0.49592253D+05 0.49592253D+05 0.49592253D+05 0.11476083D+01  1  2  4  1  7  1       -2 -.523666568798D-03 0.100000000000D+01
  </mgrwgt>
  </event>
  <event>
  8     66 0.27011060E-05 0.11452830E+03 0.75467711E-02 0.10253378E+00
       -2 -1    0    0    0  501 0.00000000E+00 0.00000000E+00 0.57615711E+02 0.57616599E+02 0.32000000E+00 0.0000E+00 0.9000E+01
        2 -1    0    0  501    0 0.00000000E+00 0.00000000E+00 -.16482447E+04 0.16482447E+04 0.32000000E+00 0.0000E+00 0.9000E+01
       25  2    1    2    0    0 0.11591115E+02 -.12433600E+03 -.44570189E+03 0.55064754E+03 0.29827629E+03 0.0000E+00 0.0000E+00
       23  2    1    2    0    0 -.11591115E+02 0.12433600E+03 -.11449271E+04 0.11552137E+04 0.89816668E+02 0.0000E+00 0.0000E+00
       24  1    3    3    0    0 -.35845466E+02 -.18963690E+03 -.27620389E+03 0.34641428E+03 0.80419002E+02 0.0000E+00 0.9000E+01
      -11  1    4    4    0    0 -.25110210E+02 0.73568233E+01 -.89757994E+02 0.93494079E+02 0.51099893E-03 0.0000E+00 0.9000E+01
       11  1    4    4    0    0 0.13519095E+02 0.11697918E+03 -.10551691E+04 0.10617197E+04 0.51099893E-03 0.0000E+00 0.9000E+01
      -24  1    3    3    0    0 0.47436580E+02 0.65300897E+02 -.16949800E+03 0.20423326E+03 0.80419002E+02 0.0000E+00 0.9000E+01
#aMCatNLO 1  0  0  2  1 0.63791785D+02 0.00000000D+00  -5  7  0 0.00000000D+00 0.00000000D+00 0.00000000D+00 0.00000000D+00 0.00000000D+00
  <mgrwgt>
 0.8833324064D-03    6    2    0
 0.308164845490464D+03 0.000000000000000D+00 0.000000000000000D+00 0.308164845490464D+03
 0.308164845490464D+03 0.000000000000000D+00 0.000000000000000D+00 -.308164845490464D+03
 0.245967080874486D+03 -.358454657073318D+02 -.189636900798902D+03 0.129559011122953D+03
 0.271222825913366D+02 -.251102098078707D+02 0.735682330990164D+01 -.713951869217538D+01
 0.215410714786120D+03 0.135190952544119D+02 0.116979180198463D+03 -.180374281726262D+03
 0.127829612728985D+03 0.474365802607906D+02 0.653008972905371D+02 0.579547892954843D+02
 0.000000000000000D+00 0.000000000000000D+00 0.000000000000000D+00 0.000000000000000D+00
 0.343428082863614D+03 0.000000000000000D+00 0.000000000000000D+00 0.343428082863614D+03
 0.340074023770355D+03 0.000000000000000D+00 0.000000000000000D+00 -.340074023770355D+03
 0.267125067882418D+03 -.377508349552993D+02 -.216050741803486D+03 0.129559011122953D+03
 0.266946876563236D+02 -.253100592898344D+02 0.458634066089976D+01 -.713951869217538D+01
 0.204384511378367D+03 0.119601844109791D+02 0.953682388007898D+02 -.180374281726262D+03
 0.121417940406182D+03 0.465109987175426D+02 0.524697026303885D+02 0.579547892954843D+02
 0.638798993106783D+02 0.458971111661197D+01 0.636264597114075D+02 0.335405909325923D+01
0.943481519135D-05 0.000000000000D+00 0.000000000000D+00 0.108963604655D-06 0.000000000000D+00  7 -2 2 24 -11 11 -24 21 0 0.88640263D-02 0.25357617D+00 0.54508273D+05 0.54508273D+05 0.54508273D+05 0.11440121D+01  1  2  2  2  7  2        2 0.955527664050D-03 0.100000000000D+01
-.475051845134D-06 0.000000000000D+00 -.362321745787D-07 0.108963604655D-06 0.000000000000D+00  7 -2 2 24 -11 11 -24 21 2 0.88640263D-02 0.25357617D+00 0.54508273D+05 0.54508273D+05 0.54508273D+05 0.11440121D+01  1  2  3  2  7  2        2 -.629668714304D-04 0.100000000000D+01
0.602120672112D-06 0.000000000000D+00 0.000000000000D+00 0.108963604655D-06 0.000000000000D+00  7 -2 2 24 -11 11 -24 21 2 0.88640263D-02 0.25357617D+00 0.54508273D+05 0.54508273D+05 0.54508273D+05 0.11440121D+01  1  2 15  2  7  2        2 0.798095099194D-04 0.100000000000D+01
0.785569496269D-05 0.000000000000D+00 0.000000000000D+00 0.108963604655D-06 0.000000000000D+00  7 -2 2 24 -11 11 -24 21 2 0.88640263D-02 0.29285303D+00 0.69149502D+05 0.69149502D+05 0.69149502D+05 0.11351112D+01  1  2 12  2  7  2        2 0.748614002065D-03 0.100000000000D+01
-.634937806334D-05 0.000000000000D+00 0.000000000000D+00 0.108963604655D-06 0.000000000000D+00  7 -2 2 24 -11 11 -24 21 2 0.88640263D-02 0.25357617D+00 0.54508273D+05 0.54508273D+05 0.54508273D+05 0.11440121D+01  1  2  4  2  7  2        2 -.841593346647D-03 0.100000000000D+01
0.173356538547D-06 0.000000000000D+00 0.000000000000D+00 0.108963604655D-06 0.000000000000D+00  7 -2 21 24 -11 11 -24 -2 2 0.88640263D-02 0.29285303D+00 0.69149502D+05 0.69149502D+05 0.69149502D+05 0.11351112D+01  1  2 12  4  7  2        2 0.394144841400D-05 0.100000000000D+01
  </mgrwgt>
  </event>
  <event>
  8     66 0.27011060E-05 0.34143363E+03 0.75467711E-02 0.94638932E-01
       -2 -1    0    0    0  501 0.00000000E+00 0.00000000E+00 0.58862235E+03 0.58862244E+03 0.32000000E+00 0.0000E+00 0.9000E+01
        2 -1    0    0  501    0 0.00000000E+00 0.00000000E+00 -.59683213E+03 0.59683221E+03 0.32000000E+00 0.0000E+00 0.9000E+01
       25  2    1    2    0    0 -.43784953E+03 -.13809180E+03 -.30856803E+03 0.62913953E+03 0.29970113E+03 0.0000E+00 0.0000E+00
       23  2    1    2    0    0 0.43784953E+03 0.13809180E+03 0.30035825E+03 0.55631513E+03 0.92140602E+02 0.0000E+00 0.0000E+00
       24  1    3    3    0    0 -.19240490E+03 -.27758105E+02 0.20317785E+01 0.21038417E+03 0.80419002E+02 0.0000E+00 0.9000E+01
      -11  1    4    4    0    0 0.89033161E+02 0.81266452E+01 0.97893834E+02 0.13257507E+03 0.51099893E-03 0.0000E+00 0.9000E+01
       11  1    4    4    0    0 0.34881637E+03 0.12996515E+03 0.20246441E+03 0.42374006E+03 0.51099893E-03 0.0000E+00 0.9000E+01
      -24  1    3    3    0    0 -.24544463E+03 -.11033369E+03 -.31059981E+03 0.41875535E+03 0.80419002E+02 0.0000E+00 0.9000E+01
#aMCatNLO 1  0  0  1  2 0.45146014D+02 0.00000000D+00  -5  7  0 0.00000000D+00 0.00000000D+00 0.00000000D+00 0.00000000D+00 0.00000000D+00
  <mgrwgt>
 0.9684354172D-03    9    2    0
 0.592713111936999D+03 0.000000000000000D+00 0.000000000000000D+00 0.592713111936999D+03
 0.592713111936999D+03 0.000000000000000D+00 0.000000000000000D+00 -.592713111936999D+03
 0.210403291422077D+03 -.192404897369303D+03 -.277581050517703D+02 0.348886215200748D+01
 0.133256221020033D+03 0.890331608334914D+02 0.812664515889937D+01 0.988143428404942D+02
 0.425152405168079D+03 0.348816365076619D+03 0.129965150928274D+03 0.205403920651794D+03
 0.416614306263810D+03 -.245444628540807D+03 -.110333691035403D+03 -.307707125644295D+03
 0.000000000000000D+00 -.000000000000000D+00 0.000000000000000D+00 0.000000000000000D+00
 0.619875559992212D+03 0.000000000000000D+00 0.000000000000000D+00 0.619875559992212D+03
 0.612203322254669D+03 0.000000000000000D+00 0.000000000000000D+00 -.612203322254669D+03
 0.205033846278187D+03 -.185814945716733D+03 -.321293628076967D+02 0.348886215200748D+01
 0.136007378822748D+03 0.933044065737825D+02 0.529343528816648D+01 0.988143428404942D+02
 0.433794964582332D+03 0.362441583250642D+03 0.120927248412532D+03 0.205403920651794D+03
 0.411449397715206D+03 -.232309308466444D+03 -.119046633524023D+03 -.307707125644295D+03
 0.457932948484086D+02 -.376217356412470D+02 0.249553126310218D+02 0.767223773754247D+01
0.717177009702D-04 0.000000000000D+00 0.000000000000D+00 0.390430148312D-05 0.000000000000D+00  7 -2 2 24 -11 11 -24 21 0 0.90557298D-01 0.91820341D-01 0.22699595D+06 0.22699595D+06 0.22699595D+06 0.10936270D+01  1  2  2  1  7  1       -2 0.469916439858D-03 0.100000000000D+01
-.375331859807D-05 0.000000000000D+00 -.275414855430D-06 0.390430148312D-05 0.000000000000D+00  7 -2 2 24 -11 11 -24 21 2 0.90557298D-01 0.91820341D-01 0.22699595D+06 0.22699595D+06 0.22699595D+06 0.10936270D+01  1  2  3  1  7  1       -2 -.294135963131D-04 0.100000000000D+01
0.455189638434D-05 0.000000000000D+00 0.000000000000D+00 0.390430148312D-05 0.000000000000D+00  7 -2 2 24 -11 11 -24 21 2 0.90557298D-01 0.91820341D-01 0.22699595D+06 0.22699595D+06 0.22699595D+06 0.10936270D+01  1  2 15  1  7  1       -2 0.356718032881D-04 0.100000000000D+01
0.161070731798D-03 0.000000000000D+00 0.000000000000D+00 0.390430148312D-05 0.000000000000D+00  7 -2 2 24 -11 11 -24 21 2 0.96137747D-01 0.91820341D-01 0.24941542D+06 0.24941542D+06 0.24941542D+06 0.10905356D+01  1  2 12  1  7  1       -2 0.108691374893D-02 0.100000000000D+01
-.138381132168D-03 0.000000000000D+00 0.000000000000D+00 0.390430148312D-05 0.000000000000D+00  7 -2 2 24 -11 11 -24 21 2 0.90557298D-01 0.91820341D-01 0.22699595D+06 0.22699595D+06 0.22699595D+06 0.10936270D+01  1  2  4  1  7  1       -2 -.108445010798D-02 0.100000000000D+01
-.654025385342D-03 0.000000000000D+00 -.122088551306D-03 0.390430148312D-05 0.000000000000D+00  7 -2 2 24 -11 11 -24 21 2 0.97196364D-01 0.91820341D-01 0.22699595D+06 0.22699595D+06 0.22699595D+06 0.10936270D+01  1  2  5  1  7  1       -2 -.433758871714D-02 0.100000000000D+01
0.661312308574D-03 0.000000000000D+00 0.121783621869D-03 0.390430148312D-05 0.000000000000D+00  7 -2 2 24 -11 11 -24 21 2 0.90557298D-01 0.91820341D-01 0.22699595D+06 0.22699595D+06 0.22699595D+06 0.10936270D+01  1  2  6  1  7  1       -2 0.518249990589D-02 0.100000000000D+01
0.185338407442D-05 0.000000000000D+00 0.000000000000D+00 0.390430148312D-05 0.000000000000D+00  7 21 2 24 -11 11 -24 2 2 0.96137747D-01 0.91820341D-01 0.24941542D+06 0.24941542D+06 0.24941542D+06 0.10905356D+01  1  2 12  3  7  1       -2 0.116679182118D-03 0.100000000000D+01
-.761708478960D-05 0.000000000000D+00 -.146099445000D-05 0.390430148312D-05 0.000000000000D+00  7 21 2 24 -11 11 -24 2 2 0.97196364D-01 0.91820341D-01 0.22699595D+06 0.22699595D+06 0.22699595D+06 0.10936270D+01  1  2  5  3  7  1       -2 -.471793241457D-03 0.100000000000D+01
  </mgrwgt>
  </event>
  <event>
  8     66 0.27011060E-05 0.26372079E+03 0.75467711E-02 0.91277790E-01
       -2 -1    0    0    0  501 0.00000000E+00 0.00000000E+00 0.89429511E+03 0.89429517E+03 0.32000000E+00 0.0000E+00 0.9000E+01
        2 -1    0    0  501    0 0.00000000E+00 0.00000000E+00 -.52071989E+03 0.52071999E+03 0.32000000E+00 0.0000E+00 0.9000E+01
       25  2    1    2    0    0 -.30043483E+03 0.37216926E+03 0.64523013E+03 0.85749397E+03 0.30033805E+03 0.0000E+00 0.0000E+00
       23  2    1    2    0    0 0.30043483E+03 -.37216926E+03 -.27165491E+03 0.55752119E+03 0.90897976E+02 0.0000E+00 0.0000E+00
       24  1    3    3    0    0 -.19411363E+03 0.51700801E+02 0.27649300E+03 0.35109639E+03 0.80419002E+02 0.0000E+00 0.9000E+01
      -13  1    4    4    0    0 0.28196589E+03 -.33335495E+03 -.21577311E+03 0.48701984E+03 0.10565837E+00 0.0000E+00 0.9000E+01
       13  1    4    4    0    0 0.18468941E+02 -.38814310E+02 -.55881804E+02 0.70501345E+02 0.10565837E+00 0.0000E+00 0.9000E+01
      -24  1    3    3    0    0 -.10632120E+03 0.32046845E+03 0.36873713E+03 0.50639758E+03 0.80419002E+02 0.0000E+00 0.9000E+01
#aMCatNLO 1  0  0  1  2 0.28189834D+03 0.00000000D+00  -5  7  0 0.00000000D+00 0.00000000D+00 0.00000000D+00 0.00000000D+00 0.00000000D+00
  <mgrwgt>
 0.3020796847D-02    8    2    0
 0.682405568796809D+03 0.000000000000000D+00 0.000000000000000D+00 0.682405568796809D+03
 0.682405568796809D+03 0.000000000000000D+00 0.000000000000000D+00 -.682405568796809D+03
 0.288329835596752D+03 -.194113631551516D+03 0.517008011136609D+02 0.190561809791383D+03
 0.563996582676441D+03 0.281966241861069D+03 -.333355343355940D+03 -.357017364812262D+03
 0.883899969869442D+02 0.184685851414004D+02 -.388139119830299D+02 -.772345982497511D+02
 0.424094722333482D+03 -.106321195450954D+03 0.320468454225309D+03 0.243690153270631D+03
 0.000000000000000D+00 -.000000000000000D+00 -.000000000000000D+00 0.000000000000000D+00
 0.133170231112729D+04 0.000000000000000D+00 0.000000000000000D+00 0.133170231112729D+04
 0.728101288593109D+03 0.000000000000000D+00 0.000000000000000D+00 -.728101288593109D+03
 0.265642762779732D+03 -.145678495304494D+03 0.810113209232508D+02 0.190561809791383D+03
 0.590080086807810D+03 0.382869898268981D+03 -.272293501701969D+03 -.357017364812262D+03
 0.893687231949854D+02 0.340104510321330D+02 -.294087527666910D+02 -.772345982497511D+02
 0.448528216282728D+03 -.300257052985171D+02 0.366638665538235D+03 0.243690153270631D+03
 0.666183810655145D+03 -.241176148698103D+03 -.145947731992826D+03 0.603601022534183D+03
0.446093461053D-03 0.000000000000D+00 0.000000000000D+00 0.894190014823D-05 0.000000000000D+00  7 -2 2 24 -13 13 -24 21 0 0.13758388D+00 0.80110764D-01 0.27199696D+06 0.27199696D+06 0.27199696D+06 0.10877145D+01  1  2  2  1  7  1       -2 0.119511233564D-02 0.100000000000D+01
-.226049674679D-04 0.000000000000D+00 -.171311634955D-05 0.894190014823D-05 0.000000000000D+00  7 -2 2 24 -13 13 -24 21 2 0.13758388D+00 0.80110764D-01 0.27199696D+06 0.27199696D+06 0.27199696D+06 0.10877145D+01  1  2  3  1  7  1       -2 -.716500719258D-04 0.100000000000D+01
0.267948761387D-04 0.000000000000D+00 0.000000000000D+00 0.894190014823D-05 0.000000000000D+00  7 -2 2 24 -13 13 -24 21 2 0.13758388D+00 0.80110764D-01 0.27199696D+06 0.27199696D+06 0.27199696D+06 0.10877145D+01  1  2 15  1  7  1       -2 0.849306598343D-04 0.100000000000D+01
0.389351660007D-03 0.000000000000D+00 0.000000000000D+00 0.894190014823D-05 0.000000000000D+00  7 -2 2 24 -13 13 -24 21 2 0.26896032D+00 0.80110764D-01 0.46125164D+06 0.46125164D+06 0.46125164D+06 0.10709951D+01  1  2 12  1  7  1       -2 0.139602606574D-03 0.100000000000D+01
-.653732038466D-03 0.000000000000D+00 -.122846376249D-03 0.894190014823D-05 0.000000000000D+00  7 -2 2 24 -13 13 -24 21 2 0.27417485D+00 0.80110764D-01 0.27199696D+06 0.27199696D+06 0.27199696D+06 0.10877145D+01  1  2  5  1  7  1       -2 -.231276737537D-03 0.100000000000D+01
0.611558338296D-03 0.000000000000D+00 0.984900754402D-04 0.894190014823D-05 0.000000000000D+00  7 -2 2 24 -13 13 -24 21 2 0.13758388D+00 0.80110764D-01 0.27199696D+06 0.27199696D+06 0.27199696D+06 0.10877145D+01  1  2  6  1  7  1       -2 0.193843229317D-02 0.100000000000D+01
0.282785476366D-04 0.000000000000D+00 0.000000000000D+00 0.894190014823D-05 0.000000000000D+00  7 21 2 24 -13 13 -24 2 2 0.26896032D+00 0.80110764D-01 0.46125164D+06 0.46125164D+06 0.46125164D+06 0.10709951D+01  1  2 12  3  7  1       -2 0.732034694751D-04 0.100000000000D+01
-.414329979658D-04 0.000000000000D+00 -.916692984164D-05 0.894190014823D-05 0.000000000000D+00  7 21 2 24 -13 13 -24 2 2 0.27417485D+00 0.80110764D-01 0.27199696D+06 0.27199696D+06 0.27199696D+06 0.10877145D+01  1  2  5  3  7  1       -2 -.107557708702D-03 0.100000000000D+01
  </mgrwgt>
  </event>
  <event>
  8     66 0.27011060E-05 0.47767651E+03 0.75467711E-02 0.89646069E-01
       -2 -1    0    0    0  501 0.00000000E+00 0.00000000E+00 0.28301436E+03 0.28301454E+03 0.32000000E+00 0.0000E+00 0.9000E+01
        2 -1    0    0  501    0 0.00000000E+00 0.00000000E+00 -.12448069E+04 0.12448070E+04 0.32000000E+00 0.0000E+00 0.9000E+01
       25  2    1    2    0    0 -.44862111E+03 0.84540313E+02 -.10931677E+03 0.55581445E+03 0.29760979E+03 0.0000E+00 0.0000E+00
       23  2    1    2    0    0 0.44862111E+03 -.84540313E+02 -.85247581E+03 0.97200706E+03 0.98360345E+02 0.0000E+00 0.0000E+00
       24  1    3    3    0    0 -.94179333E+02 0.40617615E+02 0.70241869E+02 0.14805632E+03 0.80419002E+02 0.0000E+00 0.9000E+01
      -11  1    4    4    0    0 0.51889176E+02 0.52654339E+01 -.49635031E+02 0.71998942E+02 0.51099893E-03 0.0000E+00 0.9000E+01
       11  1    4    4    0    0 0.39673193E+03 -.89805746E+02 -.80284078E+03 0.90000812E+03 0.51099893E-03 0.0000E+00 0.9000E+01
      -24  1    3    3    0    0 -.35444178E+03 0.43922698E+02 -.17955863E+03 0.40775813E+03 0.80419002E+02 0.0000E+00 0.9000E+01
#aMCatNLO 1  0  0  2  1 0.51638823D+03 0.00000000D+00  -5  7  0 0.00000000D+00 0.00000000D+00 0.00000000D+00 0.00000000D+00 0.00000000D+00
  <mgrwgt>
 0.1064072085D-02    5    2    0
 0.593547306157115D+03 0.000000000000000D+00 0.000000000000000D+00 0.593547306157115D+03
 0.593547306157115D+03 0.000000000000000D+00 0.000000000000000D+00 -.593547306157115D+03
 0.247462783916809D+03 -.941793330193948D+02 0.406176149354184D+02 0.210359397361912D+03
 0.524498448939823D+02 0.518891757197536D+02 0.526543392333198D+01 -.554751098478857D+01
 0.507866399701489D+03 0.396731932649654D+03 -.898057464462754D+02 -.304083839536155D+03
 0.379315583801949D+03 -.354441775350013D+03 0.439226975875250D+02 0.992719531590308D+02
 0.000000000000000D+00 0.000000000000000D+00 0.000000000000000D+00 -.000000000000000D+00
 0.764139604484022D+03 0.000000000000000D+00 0.000000000000000D+00 0.764139604484022D+03
 0.121770408374260D+04 0.000000000000000D+00 0.000000000000000D+00 -.121770408374260D+04
 0.290807601988753D+03 -.181626639160609D+03 -.293689173929406D+02 0.210359397361912D+03
 0.381433650770931D+02 0.371714197850144D+02 -.651359903926324D+01 -.554751098478857D+01
 0.443506918322021D+03 0.242172001480821D+03 -.213504395344029D+03 -.304083839536155D+03
 0.522088530352798D+03 -.500883719011521D+03 -.732788981682467D+02 0.992719531590308D+02
 0.687297272485956D+03 0.403166936906295D+03 0.322665809944480D+03 -.453564479258576D+03
0.978631502854D-04 0.000000000000D+00 0.000000000000D+00 0.182120034468D-07 0.000000000000D+00  7 -2 2 24 -11 11 -24 21 0 0.43540687D-01 0.19150878D+00 0.22817484D+06 0.22817484D+06 0.22817484D+06 0.10934562D+01  1  2  2  2  7  2        2 0.111212176124D-02 0.100000000000D+01
-.512503848823D-05 0.000000000000D+00 -.375820265055D-06 0.182120034468D-07 0.000000000000D+00  7 -2 2 24 -11 11 -24 21 2 0.43540687D-01 0.19150878D+00 0.22817484D+06 0.22817484D+06 0.22817484D+06 0.10934562D+01  1  2  3  2  7  2        2 -.696358846883D-04 0.100000000000D+01
0.553464581263D-05 0.000000000000D+00 0.000000000000D+00 0.182120034468D-07 0.000000000000D+00  7 -2 2 24 -11 11 -24 21 2 0.43540687D-01 0.19150878D+00 0.22817484D+06 0.22817484D+06 0.22817484D+06 0.10934562D+01  1  2 15  2  7  2        2 0.752013781913D-04 0.100000000000D+01
-.284855682379D-04 0.000000000000D+00 -.275795626201D-04 0.182120034468D-07 0.000000000000D+00  7 -2 2 24 -11 11 -24 21 2 0.43540687D-01 0.42785997D+00 0.22817484D+06 0.22817484D+06 0.22817484D+06 0.10934562D+01  1  2  5  2  7  2        2 -.534932188997D-04 0.100000000000D+01
-.742950373192D-06 0.000000000000D+00 -.240593497342D-05 0.182120034468D-07 0.000000000000D+00  7 -2 21 24 -11 11 -24 -2 2 0.43540687D-01 0.42785997D+00 0.22817484D+06 0.22817484D+06 0.22817484D+06 0.10934562D+01  1  2  5  4  7  2        2 -.121951021371D-06 0.100000000000D+01
  </mgrwgt>
  </event>
  <event>
  8     66 0.27011060E-05 0.24795246E+03 0.75467711E-02 0.94807196E-01
       -2 -1    0    0    0  501 0.00000000E+00 0.00000000E+00 0.46631735E+03 0.46631746E+03 0.32000000E+00 0.0000E+00 0.9000E+01
        2 -1    0    0  501    0 0.00000000E+00 0.00000000E+00 -.51551656E+03 0.51551666E+03 0.32000000E+00 0.0000E+00 0.9000E+01
       25  2    1    2    0    0 -.41024559E+03 -.14704066E+03 -.81710441E+02 0.53528170E+03 0.29987915E+03 0.0000E+00 0.0000E+00
       23  2    1    2    0    0 0.41024559E+03 0.14704066E+03 0.32511238E+02 0.44655242E+03 0.91813295E+02 0.0000E+00 0.0000E+00
       24  1    3    3    0    0 -.14055555E+03 -.10848081E+03 -.14662334E+03 0.24390484E+03 0.80419002E+02 0.0000E+00 0.9000E+01
      -13  1    4    4    0    0 0.58970160E+02 -.73614621E+01 0.19767781E+02 0.62629444E+02 0.10565837E+00 0.0000E+00 0.9000E+01
       13  1    4    4    0    0 0.35127543E+03 0.15440212E+03 0.12743457E+02 0.38392297E+03 0.10565837E+00 0.0000E+00 0.9000E+01
      -24  1    3    3    0    0 -.26969004E+03 -.38559847E+02 0.64912896E+02 0.29137687E+03 0.80419002E+02 0.0000E+00 0.9000E+01
#aMCatNLO 1  0  0  2  1 0.62819012D+02 0.00000000D+00  -5  7  0 0.00000000D+00 0.00000000D+00 0.00000000D+00 0.00000000D+00 0.00000000D+00
  <mgrwgt>
 0.5806121651D-03    9    2    0
 0.490300335914455D+03 0.000000000000000D+00 0.000000000000000D+00 0.490300335914455D+03
 0.490300335914455D+03 0.000000000000000D+00 0.000000000000000D+00 -.490300335914455D+03
 0.236855170187502D+03 -.140555553963167D+03 -.108480811921536D+03 -.134570447666387D+03
 0.636995958677324D+02 0.589697729062329D+02 -.736167620430611D+01 0.229349105200502D+02
 0.385045688509737D+03 0.351275817953694D+03 0.154402335361162D+03 0.320218799560447D+02
 0.295000217263938D+03 -.269690036896760D+03 -.385598472353199D+02 0.796136571902916D+02
 0.000000000000000D+00 -.000000000000000D+00 -.000000000000000D+00 -.000000000000000D+00
 0.505264615884569D+03 0.000000000000000D+00 0.000000000000000D+00 0.505264615884569D+03
 0.561979525814654D+03 0.000000000000000D+00 0.000000000000000D+00 -.561979525814654D+03
 0.226018620941316D+03 -.129749283026534D+03 -.983520168924468D+02 -.134570447666387D+03
 0.662639017033972D+02 0.620039061700781D+02 -.451776139774254D+01 0.229349105200502D+02
 0.409017903461018D+03 0.369814059868030D+03 0.171778362082224D+03 0.320218799560447D+02
 0.281310333994059D+03 -.256235466601591D+03 -.259487822783737D+02 0.796136571902916D+02
 0.846333815994327D+02 -.458332164099834D+02 -.429598015136610D+02 -.567149099300852D+02
0.300399246929D-04 0.000000000000D+00 0.000000000000D+00 0.311324787876D-05 0.000000000000D+00  7 -2 2 24 -13 13 -24 21 0 0.71741147D-01 0.79310256D-01 0.21257023D+06 0.21257023D+06 0.21257023D+06 0.10957980D+01  1  2  2  2  7  2        2 0.394214936857D-03 0.100000000000D+01
-.166120899739D-05 0.000000000000D+00 -.115361220515D-06 0.311324787876D-05 0.000000000000D+00  7 -2 2 24 -13 13 -24 21 2 0.71741147D-01 0.79310256D-01 0.21257023D+06 0.21257023D+06 0.21257023D+06 0.10957980D+01  1  2  3  2  7  2        2 -.261769785767D-04 0.100000000000D+01
0.177979741512D-05 0.000000000000D+00 0.000000000000D+00 0.311324787876D-05 0.000000000000D+00  7 -2 2 24 -13 13 -24 21 2 0.71741147D-01 0.79310256D-01 0.21257023D+06 0.21257023D+06 0.21257023D+06 0.10957980D+01  1  2 15  2  7  2        2 0.280456696778D-04 0.100000000000D+01
0.830545459117D-04 0.000000000000D+00 0.000000000000D+00 0.311324787876D-05 0.000000000000D+00  7 -2 2 24 -13 13 -24 21 2 0.71741147D-01 0.91995132D-01 0.24213784D+06 0.24213784D+06 0.24213784D+06 0.10915046D+01  1  2 12  2  7  2        2 0.109111113019D-02 0.100000000000D+01
-.841071201523D-04 0.000000000000D+00 0.000000000000D+00 0.311324787876D-05 0.000000000000D+00  7 -2 2 24 -13 13 -24 21 2 0.71741147D-01 0.79310256D-01 0.21257023D+06 0.21257023D+06 0.21257023D+06 0.10957980D+01  1  2  4  2  7  2        2 -.132534213687D-02 0.100000000000D+01
-.156808442773D-03 0.000000000000D+00 -.277355130241D-04 0.311324787876D-05 0.000000000000D+00  7 -2 2 24 -13 13 -24 21 2 0.71741147D-01 0.92755916D-01 0.21257023D+06 0.21257023D+06 0.21257023D+06 0.10957980D+01  1  2  5  2  7  2        2 -.206353199418D-02 0.100000000000D+01
0.159528395074D-03 0.000000000000D+00 0.273988498481D-04 0.311324787876D-05 0.000000000000D+00  7 -2 2 24 -13 13 -24 21 2 0.71741147D-01 0.79310256D-01 0.21257023D+06 0.21257023D+06 0.21257023D+06 0.10957980D+01  1  2  6  2  7  2        2 0.251381456927D-02 0.100000000000D+01
0.187783653891D-05 0.000000000000D+00 0.000000000000D+00 0.311324787876D-05 0.000000000000D+00  7 -2 21 24 -13 13 -24 -2 2 0.71741147D-01 0.91995132D-01 0.24213784D+06 0.24213784D+06 0.24213784D+06 0.10915046D+01  1  2 12  4  7  2        2 0.369311115081D-04 0.100000000000D+01
-.349546030961D-05 0.000000000000D+00 -.655040262750D-06 0.311324787876D-05 0.000000000000D+00  7 -2 21 24 -13 13 -24 -2 2 0.71741147D-01 0.92755916D-01 0.21257023D+06 0.21257023D+06 0.21257023D+06 0.10957980D+01  1  2  5  4  7  2        2 -.684541427440D-04 0.100000000000D+01
  </mgrwgt>
  </event>
  <event>
  9     66 -.27011060E-05 0.29436288E+03 0.75467711E-02 0.10090191E+00
       -2 -1    0    0    0  502 0.00000000E+00 0.00000000E+00 0.14589451E+03 0.14589486E+03 0.32000000E+00 0.0000E+00 0.9000E+01
        2 -1    0    0  501    0 0.00000000E+00 0.00000000E+00 -.88642151E+03 0.88642156E+03 0.32000000E+00 0.0000E+00 0.9000E+01
       25  2    1    2    0    0 0.11288538E+03 0.24084037E+03 -.55726827E+03 0.68654022E+03 0.30007061E+03 0.0000E+00 0.0000E+00
       23  2    1    2    0    0 -.10850482E+03 -.24612140E+03 -.18493835E+03 0.33867253E+03 0.90265443E+02 0.0000E+00 0.0000E+00
       24  1    3    3    0    0 0.95889137E+02 0.16976773E+03 -.53574755E+03 0.57576772E+03 0.80419002E+02 0.0000E+00 0.9000E+01
      -11  1    4    4    0    0 0.16732839E-02 -.73544651E+00 0.81042515E+01 0.81375535E+01 0.51099893E-03 0.0000E+00 0.9000E+01
       11  1    4    4    0    0 -.10850649E+03 -.24538595E+03 -.19304260E+03 0.33053497E+03 0.51099893E-03 0.0000E+00 0.9000E+01
      -24  1    3    3    0    0 0.16996238E+02 0.71072632E+02 -.21520716E+02 0.11077251E+03 0.80419002E+02 0.0000E+00 0.9000E+01
       21  1    1    2  501  502 -.43805538E+01 0.52810303E+01 0.16796150E+01 0.71036708E+01 0.75000000E+00 0.0000E+00 0.9000E+01
#aMCatNLO 2  0  0  1  2 0.68613798D+01 0.00000000D+00  -5  7  0 0.00000000D+00 0.00000000D+00 0.00000000D+00 0.00000000D+00 0.00000000D+00
  <mgrwgt>
 -.4000036994D-03    3    2    0
 0.353604103407922D+03 0.000000000000000D+00 0.000000000000000D+00 0.353604103407922D+03
 0.353604103407922D+03 0.000000000000000D+00 0.000000000000000D+00 -.353604103407922D+03
 0.273081574066420D+03 0.941997950572146D+02 0.171804340076909D+03 -.172383286551046D+03
 0.202965142306308D+02 -.124057491736227D+00 -.583870219063321D+00 0.202877350934064D+02
 0.275407724692961D+03 -.110215924421554D+03 -.243325125110728D+03 0.670428841436934D+02
 0.138422393825831D+03 0.161401868560752D+02 0.721046552528829D+02 0.850526673139457D+02
 0.000000000000000D+00 -.000000000000000D+00 0.000000000000000D+00 0.000000000000000D+00
 0.364583635785591D+03 0.000000000000000D+00 0.000000000000000D+00 0.364583635785591D+03
 0.354694333920486D+03 0.000000000000000D+00 0.000000000000000D+00 -.354694333920486D+03
 0.272394976523904D+03 0.958891371209725D+02 0.169767733038830D+03 -.172383286551046D+03
 0.203010610455775D+02 0.167328720642887D-02 -.735446501209636D+00 0.202877350934064D+02
 0.276555006697881D+03 -.108506494641747D+03 -.245385949141187D+03 0.670428841436934D+02
 0.137990446540805D+03 0.169962380239738D+02 0.710726322713323D+02 0.850526673139457D+02
 0.120364788979086D+02 -.438055379040561D+01 0.528103033223443D+01 0.988930186510566D+01
-.227012317652D-04 0.000000000000D+00 0.000000000000D+00 0.161027546522D-05 0.000000000000D+00  7 -2 2 24 -11 11 -24 21 2 0.22477568D-01 0.13594894D+00 0.88647431D+05 0.88647431D+05 0.88647431D+05 0.11260421D+01  1  2 13  1  7  1       -2 -.178953104299D-02 0.100000000000D+01
-.945206094452D-04 0.000000000000D+00 0.000000000000D+00 0.161027546522D-05 0.000000000000D+00  7 -2 2 24 -11 11 -24 21 2 0.21768678D-01 0.13594894D+00 0.86649504D+05 0.86649504D+05 0.86649504D+05 0.11268651D+01  1  2  8  1  7  1       -2 -.787457807881D-02 0.100000000000D+01
0.117706634657D-03 0.000000000000D+00 0.000000000000D+00 0.161027546522D-05 0.231413793475D-06  7 -2 2 24 -11 11 -24 21 2 0.22444603D-01 0.13636809D+00 0.88647431D+05 0.88647431D+05 0.88647431D+05 0.11260421D+01  1  2  1  1  7  1       -2 0.926410542242D-02 0.100000000000D+01
  </mgrwgt>
  </event>
  <event>
  8     66 0.27011060E-05 0.12847151E+03 0.75467711E-02 0.10224491E+00
       -2 -1    0    0    0  501 0.00000000E+00 0.00000000E+00 0.20795596E+03 0.20795620E+03 0.32000000E+00 0.0000E+00 0.9000E+01
        2 -1    0    0  501    0 0.00000000E+00 0.00000000E+00 -.26864804E+03 0.26864823E+03 0.32000000E+00 0.0000E+00 0.9000E+01
       25  2    1    2    0    0 0.51239721E+02 0.10136690E+03 -.19873256E+01 0.31999359E+03 0.29915078E+03 0.0000E+00 0.0000E+00
       23  2    1    2    0    0 -.51239721E+02 -.10136690E+03 -.58704755E+02 0.15661084E+03 0.90443076E+02 0.0000E+00 0.0000E+00
       24  1    3    3    0    0 -.57957672E+02 -.41564956E+02 -.47909317E+02 0.11768286E+03 0.80419002E+02 0.0000E+00 0.9000E+01
      -13  1    4    4    0    0 -.55079551E+02 -.92999534E+02 -.79296486E+02 0.13405452E+03 0.10565837E+00 0.0000E+00 0.9000E+01
       13  1    4    4    0    0 0.38398296E+01 -.83673664E+01 0.20591732E+02 0.22556322E+02 0.10565837E+00 0.0000E+00 0.9000E+01
      -24  1    3    3    0    0 0.10919739E+03 0.14293186E+03 0.45921991E+02 0.20231073E+03 0.80419002E+02 0.0000E+00 0.9000E+01
#aMCatNLO 1  0  0  2  1 0.10491719D+03 0.00000000D+00  -5  7  0 0.00000000D+00 0.00000000D+00 0.00000000D+00 0.00000000D+00 0.00000000D+00
  <mgrwgt>
 0.2558908117D-02    8    2    0
 0.236362146925362D+03 0.000000000000000D+00 0.000000000000000D+00 0.236362146925362D+03
 0.236362146925362D+03 0.000000000000000D+00 0.000000000000000D+00 -.236362146925362D+03
 0.112497827520970D+03 -.579576695288890D+02 -.415649526802911D+02 -.331935007800119D+02
 0.124974274450249D+03 -.550796327990245D+02 -.929996532259518D+02 -.627364951598629D+02
 0.253850582993927D+02 0.383990936505769D+01 -.836725184694505D+01 0.236568251771344D+02
 0.209867133580112D+03 0.109197392962856D+03 0.142931857753188D+03 0.722731707627405D+02
 0.000000000000000D+00 0.000000000000000D+00 -.000000000000000D+00 -.000000000000000D+00
 0.255952038592798D+03 0.000000000000000D+00 0.000000000000000D+00 0.255952038592798D+03
 0.440972177529698D+03 0.000000000000000D+00 0.000000000000000D+00 -.440972177529698D+03
 0.123836549436551D+03 -.820757644682013D+02 -.320941648108890D+02 -.331935007800119D+02
 0.131849517468042D+03 -.812886874270478D+02 -.827077791262698D+02 -.627364951598629D+02
 0.245307141855026D+02 -.125403149643703D+01 -.636694322224272D+01 0.236568251771344D+02
 0.204010308160423D+03 0.669608992219049D+02 0.159517449342176D+03 0.722731707627405D+02
 0.212697126871977D+03 0.976575841697813D+02 -.383485621827748D+02 -.185020138936900D+03
0.750511685463D-05 0.000000000000D+00 0.000000000000D+00 0.155837313114D-06 0.000000000000D+00  7 -2 2 24 -13 13 -24 21 0 0.31993258D-01 0.41330501D-01 0.44481363D+05 0.44481363D+05 0.44481363D+05 0.11517900D+01  1  2  2  2  7  2        2 0.982939345743D-03 0.100000000000D+01
-.410368099042D-06 0.000000000000D+00 -.288216248644D-07 0.155837313114D-06 0.000000000000D+00  7 -2 2 24 -13 13 -24 21 2 0.31993258D-01 0.41330501D-01 0.44481363D+05 0.44481363D+05 0.44481363D+05 0.11517900D+01  1  2  3  2  7  2        2 -.712999884664D-04 0.100000000000D+01
0.449618138972D-06 0.000000000000D+00 0.000000000000D+00 0.155837313114D-06 0.000000000000D+00  7 -2 2 24 -13 13 -24 21 2 0.31993258D-01 0.41330501D-01 0.44481363D+05 0.44481363D+05 0.44481363D+05 0.11517900D+01  1  2 15  2  7  2        2 0.781195424250D-04 0.100000000000D+01
0.745424966061D-05 0.000000000000D+00 0.000000000000D+00 0.155837313114D-06 0.000000000000D+00  7 -2 2 24 -13 13 -24 21 2 0.31993258D-01 0.77470450D-01 0.72215341D+05 0.72215341D+05 0.72215341D+05 0.11335111D+01  1  2 12  2  7  2        2 0.634346317712D-03 0.100000000000D+01
-.112195780317D-04 0.000000000000D+00 -.260384544523D-05 0.155837313114D-06 0.000000000000D+00  7 -2 2 24 -13 13 -24 21 2 0.31993258D-01 0.81114739D-01 0.44481363D+05 0.44481363D+05 0.44481363D+05 0.11517900D+01  1  2  5  2  7  2        2 -.938742375106D-03 0.100000000000D+01
0.108995821675D-04 0.000000000000D+00 0.210656951862D-05 0.155837313114D-06 0.000000000000D+00  7 -2 2 24 -13 13 -24 21 2 0.31993258D-01 0.41330501D-01 0.44481363D+05 0.44481363D+05 0.44481363D+05 0.11517900D+01  1  2  6  2  7  2        2 0.189376339107D-02 0.100000000000D+01
0.509831136347D-06 0.000000000000D+00 0.000000000000D+00 0.155837313114D-06 0.000000000000D+00  7 -2 21 24 -13 13 -24 -2 2 0.31993258D-01 0.77470450D-01 0.72215341D+05 0.72215341D+05 0.72215341D+05 0.11335111D+01  1  2 12  4  7  2        2 0.854055608100D-04 0.100000000000D+01
-.665705193649D-06 0.000000000000D+00 -.190171410948D-06 0.155837313114D-06 0.000000000000D+00  7 -2 21 24 -13 13 -24 -2 2 0.31993258D-01 0.81114739D-01 0.44481363D+05 0.44481363D+05 0.44481363D+05 0.11517900D+01  1  2  5  4  7  2        2 -.105623676739D-03 0.100000000000D+01
  </mgrwgt>
  </event>
  <event>
  8     66 0.27011060E-05 0.38089501E+03 0.75467711E-02 0.97557580E-01
       -2 -1    0    0    0  501 0.00000000E+00 0.00000000E+00 0.46697373E+03 0.46697384E+03 0.32000000E+00 0.0000E+00 0.9000E+01
        2 -1    0    0  501    0 0.00000000E+00 0.00000000E+00 -.33010282E+03 0.33010298E+03 0.32000000E+00 0.0000E+00 0.9000E+01
       25  2    1    2    0    0 -.30577761E+03 0.11387923E+03 0.98503638E+02 0.45413101E+03 0.30010596E+03 0.0000E+00 0.0000E+00
       23  2    1    2    0    0 0.30577761E+03 -.11387923E+03 0.38367266E+02 0.34294580E+03 0.98343027E+02 0.0000E+00 0.0000E+00
       24  1    3    3    0    0 0.75029088E+01 -.28949223E+01 -.31168371E+02 0.86621923E+02 0.80419002E+02 0.0000E+00 0.9000E+01
      -11  1    4    4    0    0 0.61633690E+02 -.62159308E+02 0.32316338E+02 0.93310434E+02 0.51099893E-03 0.0000E+00 0.9000E+01
       11  1    4    4    0    0 0.24414392E+03 -.51719923E+02 0.60509284E+01 0.24963537E+03 0.51099893E-03 0.0000E+00 0.9000E+01
      -24  1    3    3    0    0 -.31328052E+03 0.11677415E+03 0.12967201E+03 0.36750909E+03 0.80419002E+02 0.0000E+00 0.9000E+01
#aMCatNLO 1  0  0  1  1 0.16372022D+02 0.00000000D+00  -5  7  0 0.00000000D+00 0.00000000D+00 0.00000000D+00 0.00000000D+00 0.00000000D+00
  <mgrwgt>
 0.2334016883D-03    4    2    0
 0.392618711823147D+03 0.000000000000000D+00 0.000000000000000D+00 0.392618711823147D+03
 0.392618711823147D+03 0.000000000000000D+00 0.000000000000000D+00 -.392618711823147D+03
 0.933607691129563D+02 0.750290878573330D+01 -.289492229838088D+01 -.467369558233257D+02
 0.890844160492033D+02 0.616336899401295D+02 -.621593083198817D+02 0.165391002290150D+02
 0.252344533349292D+03 0.244143920947085D+03 -.517199229535642D+02 -.373705625530638D+02
 0.350447705134843D+03 -.313280519672948D+03 0.116774153571827D+03 0.675684181473745D+02
 0.000000000000000D+00 -.000000000000000D+00 0.000000000000000D+00 -.000000000000000D+00
 0.395418267862875D+03 0.000000000000000D+00 0.000000000000000D+00 0.395418267862875D+03
 0.417392753610168D+03 0.000000000000000D+00 0.000000000000000D+00 -.417392753610168D+03
 0.935472150634789D+02 0.920993327788648D+01 -.383400327955314D+01 -.467369558233257D+02
 0.908543776640216D+02 0.632770650442504D+02 -.630633740273780D+02 0.165391002290150D+02
 0.257379146416590D+03 0.248799210604318D+03 -.542809254459426D+02 -.373705625530638D+02
 0.343627342420173D+03 -.306941555017215D+03 0.113286915294997D+03 0.675684181473745D+02
 0.274029399087797D+02 -.143446539092403D+02 0.789138745787665D+01 -.219744857472927D+02
0.170113118739D-04 0.000000000000D+00 0.000000000000D+00 0.575183944610D-07 0.000000000000D+00  7 -2 2 24 -11 11 -24 21 0 0.71842133D-01 0.50785070D-01 0.14508101D+06 0.14508101D+06 0.14508101D+06 0.11086964D+01  1  2  2  1  7  1       -2 0.367501398107D-03 0.100000000000D+01
-.944016874146D-06 0.000000000000D+00 -.653279167771D-07 0.575183944610D-07 0.000000000000D+00  7 -2 2 24 -11 11 -24 21 2 0.71842133D-01 0.50785070D-01 0.14508101D+06 0.14508101D+06 0.14508101D+06 0.11086964D+01  1  2  3  1  7  1       -2 -.250683792592D-04 0.100000000000D+01
0.109490893770D-05 0.000000000000D+00 0.000000000000D+00 0.575183944610D-07 0.000000000000D+00  7 -2 2 24 -11 11 -24 21 2 0.71842133D-01 0.50785070D-01 0.14508101D+06 0.14508101D+06 0.14508101D+06 0.11086964D+01  1  2 15  1  7  1       -2 0.290753197918D-04 0.100000000000D+01
-.520077532925D-05 0.000000000000D+00 0.000000000000D+00 0.575183944610D-07 0.000000000000D+00  7 -2 2 24 -11 11 -24 21 2 0.71842133D-01 0.50785070D-01 0.14508101D+06 0.14508101D+06 0.14508101D+06 0.11086964D+01  1  2  4  1  7  1       -2 -.138106650385D-03 0.100000000000D+01
  </mgrwgt>
  </event>
  <event>
  8     66 0.27011060E-05 0.33120128E+03 0.75467711E-02 0.81718449E-01
       -2 -1    0    0    0  501 0.00000000E+00 0.00000000E+00 0.17748428E+03 0.17748457E+03 0.32000000E+00 0.0000E+00 0.9000E+01
        2 -1    0    0  501    0 0.00000000E+00 0.00000000E+00 -.65741022E+03 0.65741030E+03 0.32000000E+00 0.0000E+00 0.9000E+01
       25  2    1    2    0    0 -.25032165E+03 0.77222875E+02 -.32127609E+03 0.51135856E+03 0.29940767E+03 0.0000E+00 0.0000E+00
       23  2    1    2    0    0 0.25032165E+03 -.77222875E+02 -.15864985E+03 0.32353631E+03 0.10431523E+03 0.0000E+00 0.0000E+00
       24  1    3    3    0    0 -.75218389E+02 -.83271855E+02 -.16802360E+03 0.21746529E+03 0.80419002E+02 0.0000E+00 0.9000E+01
      -13  1    4    4    0    0 0.20448132E+03 -.28129598E+02 -.15139652E+03 0.25597813E+03 0.10565837E+00 0.0000E+00 0.9000E+01
       13  1    4    4    0    0 0.45840330E+02 -.49093277E+02 -.72533290E+01 0.67558180E+02 0.10565837E+00 0.0000E+00 0.9000E+01
      -24  1    3    3    0    0 -.17510326E+03 0.16049473E+03 -.15325249E+03 0.29389327E+03 0.80419002E+02 0.0000E+00 0.9000E+01
#aMCatNLO 1  0  0  2  1 0.18232420D+04 0.00000000D+00  -5  7  0 0.00000000D+00 0.00000000D+00 0.00000000D+00 0.00000000D+00 0.00000000D+00
  <mgrwgt>
 0.7804489930D-03    3    2    0
 0.341584739577375D+03 0.000000000000000D+00 0.000000000000000D+00 0.341584739577375D+03
 0.341584739577375D+03 0.000000000000000D+00 0.000000000000000D+00 -.341584739577375D+03
 0.147725826648696D+03 -.752183969397839D+02 -.832718526536557D+02 -.525708590581038D+02
 0.206472629633832D+03 0.204481478761620D+03 -.281296077089840D+02 -.519584463869083D+01
 0.774666017988138D+02 0.458401945826698D+02 -.490932742061639D+02 0.385953544173047D+02
 0.251504421073408D+03 -.175103276404506D+03 0.160494734568804D+03 0.191713492794900D+02
 0.000000000000000D+00 0.000000000000000D+00 -.000000000000000D+00 0.000000000000000D+00
 0.190158512191924D+04 0.000000000000000D+00 0.000000000000000D+00 0.190158512191924D+04
 0.186897989820404D+04 0.000000000000000D+00 0.000000000000000D+00 -.186897989820404D+04
 0.292750930384526D+03 -.192306160433796D+03 0.198722260262255D+03 -.525708590581038D+02
 0.309845280020897D+03 0.672335801424976D+02 0.302418164882570D+03 -.519584463869083D+01
 0.528624601981998D+02 0.111960546959611D+02 0.343436555254963D+02 0.385953544173047D+02
 0.129157286568484D+04 -.585284893300365D+03 0.114837594212878D+04 0.191713492794900D+02
 0.182353348383482D+04 0.699161418895703D+03 -.168386002279910D+04 0.326052237151963D+02
0.120047492696D-04 0.000000000000D+00 0.000000000000D+00 0.661474844602D-08 0.000000000000D+00  7 -2 2 24 -13 13 -24 21 0 0.27305302D-01 0.10114006D+00 0.10969429D+06 0.10969429D+06 0.10969429D+06 0.11184393D+01  1  2  2  2  7  2        2 0.771789321911D-03 0.100000000000D+01
-.666157796954D-06 0.000000000000D+00 -.461013981185D-07 0.661474844602D-08 0.000000000000D+00  7 -2 2 24 -13 13 -24 21 2 0.27305302D-01 0.10114006D+00 0.10969429D+06 0.10969429D+06 0.10969429D+06 0.11184393D+01  1  2  3  2  7  2        2 -.535732066904D-04 0.100000000000D+01
0.773836761828D-06 0.000000000000D+00 0.000000000000D+00 0.661474844602D-08 0.000000000000D+00  7 -2 2 24 -13 13 -24 21 2 0.27305302D-01 0.10114006D+00 0.10969429D+06 0.10969429D+06 0.10969429D+06 0.11184393D+01  1  2 15  2  7  2        2 0.622328778190D-04 0.100000000000D+01
  </mgrwgt>
  </event>
  <event>
  8     66 0.27011060E-05 0.31220479E+03 0.75467711E-02 0.93505298E-01
       -2 -1    0    0    0  501 0.00000000E+00 0.00000000E+00 0.40065162E+02 0.40066440E+02 0.32000000E+00 0.0000E+00 0.9000E+01
        2 -1    0    0  501    0 0.00000000E+00 0.00000000E+00 -.30363520E+04 0.30363520E+04 0.32000000E+00 0.0000E+00 0.9000E+01
       25  2    1    2    0    0 -.22980829E+03 0.86813349E+01 -.10838950E+04 0.11480506E+04 0.30050730E+03 0.0000E+00 0.0000E+00
       23  2    1    2    0    0 0.22980829E+03 -.86813349E+01 -.19123918E+04 0.19283678E+04 0.92047565E+02 0.0000E+00 0.0000E+00
       24  1    3    3    0    0 -.25251449E+03 0.70773815E+02 -.78709496E+03 0.83352157E+03 0.80419002E+02 0.0000E+00 0.9000E+01
      -11  1    4    4    0    0 0.67511142E+01 0.20001604E+02 -.23918830E+03 0.24011806E+03 0.51099893E-03 0.0000E+00 0.9000E+01
       11  1    4    4    0    0 0.22305717E+03 -.28682939E+02 -.16732036E+04 0.16882498E+04 0.51099893E-03 0.0000E+00 0.9000E+01
      -24  1    3    3    0    0 0.22706206E+02 -.62092480E+02 -.29679999E+03 0.31452901E+03 0.80419002E+02 0.0000E+00 0.9000E+01
#aMCatNLO 1  0  0  2  1 0.39060764D+03 0.00000000D+00  -5  7  0 0.00000000D+00 0.00000000D+00 0.00000000D+00 0.00000000D+00 0.00000000D+00
  <mgrwgt>
 0.1699911908D-02    3    2    0
 0.348789229381836D+03 0.000000000000000D+00 0.000000000000000D+00 0.348789229381836D+03
 0.348789229381836D+03 0.000000000000000D+00 0.000000000000000D+00 -.348789229381836D+03
 0.295162280561092D+03 -.252514494706889D+03 0.707738153504038D+02 0.109000242822325D+03
 0.315762163391678D+02 0.675111418911751D+01 0.200016044455911D+02 -.234822425484777D+02
 0.258558761890131D+03 0.223057174351494D+03 -.286829392985705D+02 -.127575151631026D+03
 0.112281199973280D+03 0.227062061662773D+02 -.620924804974243D+02 0.420571513571785D+02
 0.000000000000000D+00 0.000000000000000D+00 0.000000000000000D+00 0.000000000000000D+00
 0.645887985785056D+03 0.000000000000000D+00 0.000000000000000D+00 0.645887985785056D+03
 0.554713076341817D+03 0.000000000000000D+00 0.000000000000000D+00 -.554713076341817D+03
 0.464965245232958D+03 -.444330444223294D+03 0.203682773247508D+02 0.109000242822325D+03
 0.296868411069629D+02 -.870843849848187D+01 0.159391316803233D+02 -.234822425484777D+02
 0.179616517484658D+03 0.112484929016619D+03 -.577391962514482D+02 -.127575151631026D+03
 0.125225005234225D+03 -.372277874360793D+02 -.778419799585964D+02 0.420571513571785D+02
 0.401107453068070D+03 0.377781741141237D+03 0.992737672049705D+02 0.911749094432395D+02
0.586598157339D-04 0.000000000000D+00 0.000000000000D+00 0.103406504659D-05 0.000000000000D+00  7 -2 2 24 -11 11 -24 21 0 0.61639707D-02 0.46713117D+00 0.97471834D+05 0.97471834D+05 0.97471834D+05 0.11226358D+01  1  2  2  2  7  2        2 0.168405437260D-02 0.100000000000D+01
-.321022724238D-05 0.000000000000D+00 -.225269137902D-06 0.103406504659D-05 0.000000000000D+00  7 -2 2 24 -11 11 -24 21 2 0.61639707D-02 0.46713117D+00 0.97471834D+05 0.97471834D+05 0.97471834D+05 0.11226358D+01  1  2  3  2  7  2        2 -.116152604532D-03 0.100000000000D+01
0.364849802998D-05 0.000000000000D+00 0.000000000000D+00 0.103406504659D-05 0.000000000000D+00  7 -2 2 24 -11 11 -24 21 2 0.61639707D-02 0.46713117D+00 0.97471834D+05 0.97471834D+05 0.97471834D+05 0.11226358D+01  1  2 15  2  7  2        2 0.132010140348D-03 0.100000000000D+01
  </mgrwgt>
  </event>
  <event>
  8     66 0.27011060E-05 0.27821369E+03 0.75467711E-02 0.98844548E-01
       -2 -1    0    0    0  501 0.00000000E+00 0.00000000E+00 0.13503628E+04 0.13503629E+04 0.32000000E+00 0.0000E+00 0.9000E+01
        2 -1    0    0  501    0 0.00000000E+00 0.00000000E+00 -.18980291E+03 0.18980318E+03 0.32000000E+00 0.0000E+00 0.9000E+01
       25  2    1    2    0    0 0.56992533E+02 -.18427065E+03 0.12561689E+04 0.13060769E+04 0.30111886E+03 0.0000E+00 0.0000E+00
       23  2    1    2    0    0 -.56992533E+02 0.18427065E+03 -.95609014E+02 0.23408919E+03 0.91939337E+02 0.0000E+00 0.0000E+00
       24  1    3    3    0    0 0.11196254E+03 0.77199290E+00 0.35177536E+03 0.37782182E+03 0.80419002E+02 0.0000E+00 0.9000E+01
      -13  1    4    4    0    0 -.72306813E+01 0.14727026E+03 -.45335515E+02 0.15425995E+03 0.10565837E+00 0.0000E+00 0.9000E+01
       13  1    4    4    0    0 -.49761852E+02 0.37000391E+02 -.50273499E+02 0.79829234E+02 0.10565837E+00 0.0000E+00 0.9000E+01
      -24  1    3    3    0    0 -.54970006E+02 -.18504265E+03 0.90439357E+03 0.92825505E+03 0.80419002E+02 0.0000E+00 0.9000E+01
#aMCatNLO 1  0  0  2  1 0.13724001D+03 0.00000000D+00  -5  7  0 0.00000000D+00 0.00000000D+00 0.00000000D+00 0.00000000D+00 0.00000000D+00
  <mgrwgt>
 0.7149618278D-03    4    2    0
 0.506263801349480D+03 0.000000000000000D+00 0.000000000000000D+00 0.506263801349480D+03
 0.506263801349480D+03 0.000000000000000D+00 0.000000000000000D+00 -.506263801349480D+03
 0.171503427488803D+03 0.111962539012713D+03 0.771992899244538D+00 0.102029425024484D+03
 0.286610132090964D+03 -.723062521674553D+01 0.147270409319383D+03 -.245773294755708D+03
 0.179052442217813D+03 -.497619077321401D+02 0.370002453099518D+02 -.167971757894072D+03
 0.375361600901379D+03 -.549700060638277D+02 -.185042647528579D+03 0.311715627625297D+03
 0.000000000000000D+00 -.000000000000000D+00 -.000000000000000D+00 0.000000000000000D+00
 0.794224957879252D+03 0.000000000000000D+00 0.000000000000000D+00 0.794224957879252D+03
 0.527512125487174D+03 0.000000000000000D+00 0.000000000000000D+00 -.527512125487174D+03
 0.184839709135659D+03 0.130498850833892D+03 0.160794427512709D+02 0.102029425024484D+03
 0.301185663246412D+03 0.233454264304446D+02 0.172520382549094D+03 -.245773294755708D+03
 0.178682361249737D+03 -.311532039721157D+02 0.523674770638077D+02 -.167971757894072D+03
 0.357078430501209D+03 -.168698284064135D+02 -.153579184652550D+03 0.311715627625297D+03
 0.299950919233409D+03 -.105821244885807D+03 -.873881177116227D+02 0.266712832392077D+03
0.282275848609D-03 0.000000000000D+00 0.000000000000D+00 0.782402229890D-06 0.000000000000D+00  7 -2 2 24 -13 13 -24 21 0 0.20774815D+00 0.29200472D-01 0.77402858D+05 0.77402858D+05 0.77402858D+05 0.11309668D+01  1  2  2  2  7  2        2 0.739086412424D-03 0.100000000000D+01
-.884830012536D-05 0.000000000000D+00 -.108401358360D-05 0.782402229890D-06 0.000000000000D+00  7 -2 2 24 -13 13 -24 21 2 0.20774815D+00 0.29200472D-01 0.77402858D+05 0.77402858D+05 0.77402858D+05 0.11309668D+01  1  2  3  2  7  2        2 -.296333685674D-04 0.100000000000D+01
0.165102217770D-04 0.000000000000D+00 0.000000000000D+00 0.782402229890D-06 0.000000000000D+00  7 -2 2 24 -13 13 -24 21 2 0.20774815D+00 0.29200472D-01 0.77402858D+05 0.77402858D+05 0.77402858D+05 0.11309668D+01  1  2 15  2  7  2        2 0.552935004594D-04 0.100000000000D+01
-.148653404796D-04 0.000000000000D+00 0.000000000000D+00 0.782402229890D-06 0.000000000000D+00  7 -2 2 24 -13 13 -24 21 2 0.20774815D+00 0.29200472D-01 0.77402858D+05 0.77402858D+05 0.77402858D+05 0.11309668D+01  1  2  4  2  7  2        2 -.497847165073D-04 0.100000000000D+01
  </mgrwgt>
  </event>
  <event>
  8     66 -.27011060E-05 0.10874171E+03 0.75467711E-02 0.10706195E+00
       -2 -1    0    0    0  501 0.00000000E+00 0.00000000E+00 0.25369562E+02 0.25371580E+02 0.32000000E+00 0.0000E+00 0.9000E+01
        2 -1    0    0  501    0 0.00000000E+00 0.00000000E+00 -.16085032E+04 0.16085033E+04 0.32000000E+00 0.0000E+00 0.9000E+01
       25  2    1    2    0    0 -.30528404E+02 0.23271013E+02 -.11830358E+04 0.12212315E+04 0.30059819E+03 0.0000E+00 0.0000E+00
       23  2    1    2    0    0 0.30528404E+02 -.23271013E+02 -.40009791E+03 0.41264334E+03 0.93395180E+02 0.0000E+00 0.0000E+00
       24  1    3    3    0    0 -.11049968E+03 0.75564189E+02 -.42101592E+03 0.44904537E+03 0.80419002E+02 0.0000E+00 0.9000E+01
      -11  1    4    4    0    0 -.31584124E+02 -.86997941E+01 -.19867958E+03 0.20136241E+03 0.51099893E-03 0.0000E+00 0.9000E+01
       11  1    4    4    0    0 0.62112527E+02 -.14571219E+02 -.20141833E+03 0.21128093E+03 0.51099893E-03 0.0000E+00 0.9000E+01
      -24  1    3    3    0    0 0.79971272E+02 -.52293176E+02 -.76201985E+03 0.77218615E+03 0.80419002E+02 0.0000E+00 0.9000E+01
#aMCatNLO 1  0  0  1  2 0.25851076D+01 0.00000000D+00  -5  7  0 0.00000000D+00 0.00000000D+00 0.00000000D+00 0.00000000D+00 0.00000000D+00
  <mgrwgt>
 -.7991393332D-03   11    2    0
 0.202011627092264D+03 0.000000000000000D+00 0.000000000000000D+00 0.202011627092264D+03
 0.202011627092264D+03 0.000000000000000D+00 0.000000000000000D+00 -.202011627092264D+03
 0.166226716803048D+03 -.110499677535832D+03 0.755641908233120D+02 0.569559457339222D+02
 0.358014969388753D+02 -.315841209508429D+02 -.869979607127139D+01 -.144396688031656D+02
 0.651805401334976D+02 0.621125319127280D+02 -.145712229501176D+02 0.133497435639342D+02
 0.136814500309106D+03 0.799712665739470D+02 -.522931718019230D+02 -.558660204946907D+02
 0.000000000000000D+00 0.000000000000000D+00 0.000000000000000D+00 0.000000000000000D+00
 0.204065432179662D+03 0.000000000000000D+00 0.000000000000000D+00 0.204065432179662D+03
 0.202830866731339D+03 0.000000000000000D+00 0.000000000000000D+00 -.202830866731339D+03
 0.166494383629007D+03 -.111342296157105D+03 0.749137981793101D+02 0.569559457339222D+02
 0.359962179729504D+02 -.317659491891812D+02 -.884014396497022D+01 -.144396688031656D+02
 0.649242375634393D+02 0.617830406112697D+02 -.148255476390349D+02 0.133497435639342D+02
 0.136616685227256D+03 0.792788000959555D+02 -.528276664026040D+02 -.558660204946907D+02
 0.286477451834840D+01 0.204640463906085D+01 0.157955982729898D+01 0.123456544832252D+01
0.209248480188D-05 0.000000000000D+00 0.000000000000D+00 0.310100766265D-07 0.000000000000D+00  7 -2 2 24 -11 11 -24 21 0 0.39031672D-02 0.24746220D+00 0.35647780D+05 0.35647780D+05 0.35647780D+05 0.11604487D+01  1  2  2  1  7  1       -2 0.753220253332D-03 0.100000000000D+01
-.115603176630D-06 0.000000000000D+00 -.803569260313D-08 0.310100766265D-07 0.000000000000D+00  7 -2 2 24 -11 11 -24 21 2 0.39031672D-02 0.24746220D+00 0.35647780D+05 0.35647780D+05 0.35647780D+05 0.11604487D+01  1  2  3  1  7  1       -2 -.560378324404D-04 0.100000000000D+01
0.133317130166D-06 0.000000000000D+00 0.000000000000D+00 0.310100766265D-07 0.000000000000D+00  7 -2 2 24 -11 11 -24 21 2 0.39031672D-02 0.24746220D+00 0.35647780D+05 0.35647780D+05 0.35647780D+05 0.11604487D+01  1  2 15  1  7  1       -2 0.646245476938D-04 0.100000000000D+01
0.610242101504D-08 0.000000000000D+00 0.000000000000D+00 0.310100766265D-07 0.000000000000D+00  7 -2 2 24 -11 11 -24 21 2 0.39507077D-02 0.24746220D+00 0.36141139D+05 0.36141139D+05 0.36141139D+05 0.11599052D+01  1  2 12  1  7  1       -2 0.290344772403D-05 0.100000000000D+01
-.359239005002D-04 0.000000000000D+00 0.000000000000D+00 0.310100766265D-07 0.000000000000D+00  7 -2 2 24 -11 11 -24 21 2 0.39031672D-02 0.24746220D+00 0.35647780D+05 0.35647780D+05 0.35647780D+05 0.11604487D+01  1  2  4  1  7  1       -2 -.174138598568D-01 0.100000000000D+01
-.173627810077D-03 0.000000000000D+00 -.184893182008D-04 0.310100766265D-07 0.000000000000D+00  7 -2 2 24 -11 11 -24 21 2 0.39601102D-02 0.24746220D+00 0.35647780D+05 0.35647780D+05 0.35647780D+05 0.11604487D+01  1  2  5  1  7  1       -2 -.823916095401D-01 0.100000000000D+01
0.173879301626D-03 0.000000000000D+00 0.184873790982D-04 0.310100766265D-07 0.000000000000D+00  7 -2 2 24 -11 11 -24 21 2 0.39031672D-02 0.24746220D+00 0.35647780D+05 0.35647780D+05 0.35647780D+05 0.11604487D+01  1  2  6  1  7  1       -2 0.842867770024D-01 0.100000000000D+01
0.359212586220D-04 0.000000000000D+00 0.000000000000D+00 0.310100766265D-07 0.332987730370D-07  7 -2 2 24 -11 11 -24 21 2 0.39428498D-02 0.24846576D+00 0.36141139D+05 0.36141139D+05 0.36141139D+05 0.11599052D+01  1  2 11  1  7  1       -2 0.170064954200D-01 0.100000000000D+01
0.521627952088D-09 0.000000000000D+00 0.000000000000D+00 0.310100766265D-07 0.000000000000D+00  7 21 2 24 -11 11 -24 2 2 0.39507077D-02 0.24746220D+00 0.36141139D+05 0.36141139D+05 0.36141139D+05 0.11599052D+01  1  2 12  3  7  1       -2 0.425079415707D-05 0.100000000000D+01
-.460006153576D-06 0.000000000000D+00 -.491373342030D-07 0.310100766265D-07 0.000000000000D+00  7 21 2 24 -11 11 -24 2 2 0.39601102D-02 0.24746220D+00 0.35647780D+05 0.35647780D+05 0.35647780D+05 0.11604487D+01  1  2  5  3  7  1       -2 -.373845363094D-02 0.100000000000D+01
0.841529304484D-07 0.000000000000D+00 0.000000000000D+00 0.310100766265D-07 0.622542905433D-10  7 21 2 24 -11 11 -24 2 2 0.39428498D-02 0.24846576D+00 0.36141139D+05 0.36141139D+05 0.36141139D+05 0.11599052D+01  1  2 11  3  7  1       -2 0.682550061780D-03 0.100000000000D+01
  </mgrwgt>
  </event>
  <event>
  8     66 0.27011060E-05 0.35077166E+03 0.75467711E-02 0.90380366E-01
       -2 -1    0    0    0  501 0.00000000E+00 0.00000000E+00 0.25005855E+03 0.25005876E+03 0.32000000E+00 0.0000E+00 0.9000E+01
        2 -1    0    0  501    0 0.00000000E+00 0.00000000E+00 -.17910774E+04 0.17910774E+04 0.32000000E+00 0.0000E+00 0.9000E+01
       25  2    1    2    0    0 -.46013739E+02 -.60814901E+03 -.10602656E+04 0.12595576E+04 0.30059869E+03 0.0000E+00 0.0000E+00
       23  2    1    2    0    0 0.46013739E+02 0.60814901E+03 -.48075316E+03 0.78157856E+03 0.88198455E+02 0.0000E+00 0.0000E+00
       24  1    3    3    0    0 -.60932524E+02 -.22261106E+03 -.63164390E+03 0.67728111E+03 0.80419002E+02 0.0000E+00 0.9000E+01
      -11  1    4    4    0    0 0.58301063E+02 0.59607278E+03 -.46940481E+03 0.76094852E+03 0.51099893E-03 0.0000E+00 0.9000E+01
       11  1    4    4    0    0 -.12287325E+02 0.12076230E+02 -.11348346E+02 0.20630042E+02 0.51099893E-03 0.0000E+00 0.9000E+01
      -24  1    3    3    0    0 0.14918785E+02 -.38553795E+03 -.42862174E+03 0.58227647E+03 0.80419002E+02 0.0000E+00 0.9000E+01
#aMCatNLO 1  0  0  2  1 0.20523772D+03 0.00000000D+00  -5  7  0 0.00000000D+00 0.00000000D+00 0.00000000D+00 0.00000000D+00 0.00000000D+00
  <mgrwgt>
 0.1973671168D-02    9    2    0
 0.669234224908748D+03 0.000000000000000D+00 0.000000000000000D+00 0.669234224908748D+03
 0.669234224908748D+03 0.000000000000000D+00 0.000000000000000D+00 -.669234224908748D+03
 0.305608852958745D+03 -.609325242906953D+02 -.222611062136124D+03 -.183469609337840D+03
 0.619990618221305D+03 0.583010634595051D+02 0.596072778969671D+03 0.160270380461583D+03
 0.183946884728535D+02 -.122873245926248D+02 0.120762303443232D+02 0.644599713307816D+01
 0.394474290164592D+03 0.149187854238151D+02 -.385537947177870D+03 0.167532317431786D+02
 0.000000000000000D+00 0.000000000000000D+00 0.000000000000000D+00 -.000000000000000D+00
 0.707824311316120D+03 0.000000000000000D+00 0.000000000000000D+00 0.707824311316120D+03
 0.101931396951416D+04 0.000000000000000D+00 0.000000000000000D+00 -.101931396951416D+04
 0.344446010327503D+03 -.699533683738942D+02 -.271332391687263D+03 -.183469609337840D+03
 0.535736519162258D+03 0.422629797563024D+02 0.509451532192131D+03 0.160270380461583D+03
 0.171319055460389D+02 -.127803289274150D+02 0.941352755909423D+01 0.644599713307816D+01
 0.456797935993725D+03 0.310563786006823D+01 -.449340430646295D+03 0.167532317431786D+02
 0.373025909800754D+03 0.373650796849385D+02 0.201807762582333D+03 -.311489658198039D+03
0.234496567249D-03 0.000000000000D+00 0.000000000000D+00 0.791816611284D-06 0.000000000000D+00  7 -2 2 24 -11 11 -24 21 0 0.38470564D-01 0.27555038D+00 0.39355086D+06 0.39355086D+06 0.39355086D+06 0.10759369D+01  1  2  2  2  7  2        2 0.164530684911D-02 0.100000000000D+01
-.129613806403D-04 0.000000000000D+00 -.900528562598D-06 0.791816611284D-06 0.000000000000D+00  7 -2 2 24 -11 11 -24 21 2 0.38470564D-01 0.27555038D+00 0.39355086D+06 0.39355086D+06 0.39355086D+06 0.10759369D+01  1  2  3  2  7  2        2 -.105277428191D-03 0.100000000000D+01
0.144825450611D-04 0.000000000000D+00 0.000000000000D+00 0.791816611284D-06 0.000000000000D+00  7 -2 2 24 -11 11 -24 21 2 0.38470564D-01 0.27555038D+00 0.39355086D+06 0.39355086D+06 0.39355086D+06 0.10759369D+01  1  2 15  2  7  2        2 0.117632923529D-03 0.100000000000D+01
0.306355863265D-03 0.000000000000D+00 0.000000000000D+00 0.791816611284D-06 0.000000000000D+00  7 -2 2 24 -11 11 -24 21 2 0.38470564D-01 0.42427669D+00 0.54783646D+06 0.54783646D+06 0.54783646D+06 0.10657172D+01  1  2 12  2  7  2        2 0.674123944384D-03 0.100000000000D+01
-.325149919075D-03 0.000000000000D+00 0.000000000000D+00 0.791816611284D-06 0.000000000000D+00  7 -2 2 24 -11 11 -24 21 2 0.38470564D-01 0.27555038D+00 0.39355086D+06 0.39355086D+06 0.39355086D+06 0.10759369D+01  1  2  4  2  7  2        2 -.264099544691D-02 0.100000000000D+01
-.386028115127D-03 0.000000000000D+00 -.757288102400D-04 0.791816611284D-06 0.000000000000D+00  7 -2 2 24 -11 11 -24 21 2 0.38470564D-01 0.42602584D+00 0.39355086D+06 0.39355086D+06 0.39355086D+06 0.10759369D+01  1  2  5  2  7  2        2 -.870256764462D-03 0.100000000000D+01
0.388243570884D-03 0.000000000000D+00 0.690678007666D-04 0.791816611284D-06 0.000000000000D+00  7 -2 2 24 -11 11 -24 21 2 0.38470564D-01 0.27555038D+00 0.39355086D+06 0.39355086D+06 0.39355086D+06 0.10759369D+01  1  2  6  2  7  2        2 0.315346688664D-02 0.100000000000D+01
0.154275420533D-04 0.000000000000D+00 0.000000000000D+00 0.791816611284D-06 0.000000000000D+00  7 -2 21 24 -11 11 -24 -2 2 0.38470564D-01 0.42427669D+00 0.54783646D+06 0.54783646D+06 0.54783646D+06 0.10657172D+01  1  2 12  4  7  2        2 0.290179742189D-05 0.100000000000D+01
-.166849611984D-04 0.000000000000D+00 -.384077004173D-05 0.791816611284D-06 0.000000000000D+00  7 -2 21 24 -11 11 -24 -2 2 0.38470564D-01 0.42602584D+00 0.39355086D+06 0.39355086D+06 0.39355086D+06 0.10759369D+01  1  2  5  4  7  2        2 -.323159340103D-05 0.100000000000D+01
  </mgrwgt>
  </event>
  <event>
  8     66 0.27011060E-05 0.24921458E+03 0.75467711E-02 0.95240301E-01
       -2 -1    0    0    0  501 0.00000000E+00 0.00000000E+00 0.10824710E+03 0.10824758E+03 0.32000000E+00 0.0000E+00 0.9000E+01
        2 -1    0    0  501    0 0.00000000E+00 0.00000000E+00 -.39039925E+04 0.39039925E+04 0.32000000E+00 0.0000E+00 0.9000E+01
       25  2    1    2    0    0 -.39586037E+03 0.11522498E+03 -.59425775E+03 0.78301017E+03 0.29996737E+03 0.0000E+00 0.0000E+00
       23  2    1    2    0    0 0.39586037E+03 -.11522498E+03 -.32014876E+04 0.32292299E+04 0.91763433E+02 0.0000E+00 0.0000E+00
       24  1    3    3    0    0 -.19717609E+03 0.24621398E+01 -.10577339E+03 0.23778078E+03 0.80419002E+02 0.0000E+00 0.9000E+01
      -11  1    4    4    0    0 0.28466048E+03 -.63330095E+02 -.25161331E+04 0.25329762E+04 0.51099893E-03 0.0000E+00 0.9000E+01
       11  1    4    4    0    0 0.11119988E+03 -.51894880E+02 -.68535450E+03 0.69625375E+03 0.51099893E-03 0.0000E+00 0.9000E+01
      -24  1    3    3    0    0 -.19868427E+03 0.11276284E+03 -.48848436E+03 0.54522939E+03 0.80419002E+02 0.0000E+00 0.9000E+01
#aMCatNLO 1  0  0  2  1 0.72620837D+02 0.00000000D+00  -5  7  0 0.00000000D+00 0.00000000D+00 0.00000000D+00 0.00000000D+00 0.00000000D+00
  <mgrwgt>
 0.7187161601D-03    9    2    0
 0.650074503053889D+03 0.000000000000000D+00 0.000000000000000D+00 0.650074503053889D+03
 0.650074503053889D+03 0.000000000000000D+00 0.000000000000000D+00 -.650074503053889D+03
 0.424985694867806D+03 -.197176094165778D+03 0.246213976748048D+01 0.367778670731726D+03
 0.470951982136102D+03 0.284660481853337D+03 -.633300953848750D+02 -.369801945056394D+03
 0.147756924721951D+03 0.111199884096127D+03 -.518948800363354D+02 -.823019805734372D+02
 0.256454404381919D+03 -.198684271783686D+03 0.112762835653730D+03 0.843252548981053D+02
 0.000000000000000D+00 0.000000000000000D+00 0.000000000000000D+00 -.000000000000000D+00
 0.659554589121597D+03 0.000000000000000D+00 0.000000000000000D+00 0.659554589121597D+03
 0.806807316195160D+03 0.000000000000000D+00 0.000000000000000D+00 -.806807316195160D+03
 0.427190804636749D+03 -.200800632725546D+03 -.210409805771371D+02 0.367778670731726D+03
 0.472758724223666D+03 0.280646623402117D+03 -.893577390889351D+02 -.369801945056394D+03
 0.149905336124725D+03 0.109933845496314D+03 -.601044374963191D+02 -.823019805734372D+02
 0.252320708442514D+03 -.200848230794237D+03 0.987307628237338D+02 0.843252548981053D+02
 0.164186331889104D+03 0.110683946213518D+02 0.717723943386574D+02 -.147252727073563D+03
0.333515024285D-03 0.000000000000D+00 0.000000000000D+00 0.951413825801D-05 0.000000000000D+00  7 -2 2 24 -11 11 -24 21 0 0.16653438D-01 0.60061427D+00 0.18900187D+06 0.18900187D+06 0.18900187D+06 0.10997170D+01  1  2  2  2  7  2        2 0.484702570239D-03 0.100000000000D+01
-.148819870060D-04 0.000000000000D+00 -.128078550978D-05 0.951413825801D-05 0.000000000000D+00  7 -2 2 24 -11 11 -24 21 2 0.16653438D-01 0.60061427D+00 0.18900187D+06 0.18900187D+06 0.18900187D+06 0.10997170D+01  1  2  3  2  7  2        2 -.261566836692D-04 0.100000000000D+01
0.197308832290D-04 0.000000000000D+00 0.000000000000D+00 0.951413825801D-05 0.000000000000D+00  7 -2 2 24 -11 11 -24 21 2 0.16653438D-01 0.60061427D+00 0.18900187D+06 0.18900187D+06 0.18900187D+06 0.10997170D+01  1  2 15  2  7  2        2 0.346791373307D-04 0.100000000000D+01
0.818176434505D-03 0.000000000000D+00 0.000000000000D+00 0.951413825801D-05 0.000000000000D+00  7 -2 2 24 -11 11 -24 21 2 0.16653438D-01 0.74908520D+00 0.22447742D+06 0.22447742D+06 0.22447742D+06 0.10939949D+01  1  2 12  2  7  2        2 0.165667253763D-03 0.100000000000D+01
-.891962938219D-03 0.000000000000D+00 0.000000000000D+00 0.951413825801D-05 0.000000000000D+00  7 -2 2 24 -11 11 -24 21 2 0.16653438D-01 0.60061427D+00 0.18900187D+06 0.18900187D+06 0.18900187D+06 0.10997170D+01  1  2  4  2  7  2        2 -.156772025203D-02 0.100000000000D+01
-.955241184798D-03 0.000000000000D+00 -.100109078496D-03 0.951413825801D-05 0.000000000000D+00  7 -2 2 24 -11 11 -24 21 2 0.16653438D-01 0.74667598D+00 0.18900187D+06 0.18900187D+06 0.18900187D+06 0.10997170D+01  1  2  5  2  7  2        2 -.207560051559D-03 0.100000000000D+01
0.104409715982D-02 0.000000000000D+00 0.108543959857D-03 0.951413825801D-05 0.000000000000D+00  7 -2 2 24 -11 11 -24 21 2 0.16653438D-01 0.60061427D+00 0.18900187D+06 0.18900187D+06 0.18900187D+06 0.10997170D+01  1  2  6  2  7  2        2 0.183511241599D-02 0.100000000000D+01
0.252505649246D-04 0.000000000000D+00 0.000000000000D+00 0.951413825801D-05 0.000000000000D+00  7 -2 21 24 -11 11 -24 -2 2 0.16653438D-01 0.74908520D+00 0.22447742D+06 0.22447742D+06 0.22447742D+06 0.10939949D+01  1  2 12  4  7  2        2 0.396358611012D-07 0.100000000000D+01
-.278237310699D-04 0.000000000000D+00 -.305553143537D-05 0.951413825801D-05 0.000000000000D+00  7 -2 21 24 -11 11 -24 -2 2 0.16653438D-01 0.74667598D+00 0.18900187D+06 0.18900187D+06 0.18900187D+06 0.10997170D+01  1  2  5  4  7  2        2 -.478657854333D-07 0.100000000000D+01
  </mgrwgt>
  </event>
  <event>
  8     66 0.27011060E-05 0.29578683E+03 0.75467711E-02 0.91862489E-01
       -2 -1    0    0    0  501 0.00000000E+00 0.00000000E+00 0.17849145E+03 0.17849173E+03 0.32000000E+00 0.0000E+00 0.9000E+01
        2 -1    0    0  501    0 0.00000000E+00 0.00000000E+00 -.10376616E+04 0.10376617E+04 0.32000000E+00 0.0000E+00 0.9000E+01
       25  2    1    2    0    0 0.25452149E+03 -.13651606E+02 -.93629569E+02 0.40418771E+03 0.29938879E+03 0.0000E+00 0.0000E+00
       23  2    1    2    0    0 -.25452149E+03 0.13651606E+02 -.76554061E+03 0.81196570E+03 0.90930320E+02 0.0000E+00 0.0000E+00
       24  1    3    3    0    0 0.26762776E+02 0.23944545E+02 -.13002479E+03 0.15704538E+03 0.80419002E+02 0.0000E+00 0.9000E+01
      -11  1    4    4    0    0 -.13597360E+03 0.30393133E+02 -.52643640E+03 0.54456207E+03 0.51099893E-03 0.0000E+00 0.9000E+01
       11  1    4    4    0    0 -.11854789E+03 -.16741527E+02 -.23910421E+03 0.26740363E+03 0.51099893E-03 0.0000E+00 0.9000E+01
      -24  1    3    3    0    0 0.22775871E+03 -.37596151E+02 0.36395225E+02 0.24714233E+03 0.80419002E+02 0.0000E+00 0.9000E+01
#aMCatNLO 1  0  0  1  1 0.50646596D+03 0.00000000D+00  -5  7  0 0.00000000D+00 0.00000000D+00 0.00000000D+00 0.00000000D+00 0.00000000D+00
  <mgrwgt>
 0.9635750415D-03    3    2    0
 0.430364879866659D+03 0.000000000000000D+00 0.000000000000000D+00 0.430364879866659D+03
 0.430364879866659D+03 0.000000000000000D+00 0.000000000000000D+00 -.430364879866659D+03
 0.921053840811158D+02 0.267627757727478D+02 0.239445451965609D+02 -.269554894340057D+02
 0.243947136031226D+03 -.135973597775077D+03 0.303931330235486D+02 -.200243959586680D+03
 0.139152428347093D+03 -.118547891528086D+03 -.167415268601922D+02 -.709190877516588D+02
 0.385524811273882D+03 0.227758713530416D+03 -.375961513599174D+02 0.298118536772345D+03
 0.000000000000000D+00 -.000000000000000D+00 -.000000000000000D+00 -.000000000000000D+00
 0.591772577257133D+03 0.000000000000000D+00 0.000000000000000D+00 0.591772577257133D+03
 0.119311365108040D+04 0.000000000000000D+00 0.000000000000000D+00 -.119311365108040D+04
 0.126430243077113D+03 0.528313852503043D+02 0.774573220042783D+02 -.269554894340057D+02
 0.264083058994171D+03 -.753718509151247D+02 0.154794388743246D+03 -.200243959586680D+03
 0.122049613722436D+03 -.873897041057640D+02 0.472189667249856D+02 -.709190877516588D+02
 0.486117959136103D+03 0.331734963450074D+03 0.175842845455177D+03 0.298118536772345D+03
 0.786205353407708D+03 -.221804793679490D+03 -.455313522927687D+03 -.601341073823264D+03
0.265314468831D-04 0.000000000000D+00 0.000000000000D+00 0.161696214353D-05 0.000000000000D+00  7 -2 2 24 -11 11 -24 21 0 0.27460248D-01 0.15964028D+00 0.87489848D+05 0.87489848D+05 0.87489848D+05 0.11265164D+01  1  2  2  1  7  1       -2 0.942105515531D-03 0.100000000000D+01
-.122195829133D-05 0.000000000000D+00 -.101887741922D-06 0.161696214353D-05 0.000000000000D+00  7 -2 2 24 -11 11 -24 21 2 0.27460248D-01 0.15964028D+00 0.87489848D+05 0.87489848D+05 0.87489848D+05 0.11265164D+01  1  2  3  1  7  1       -2 -.550642919734D-04 0.100000000000D+01
0.169839890829D-05 0.000000000000D+00 0.000000000000D+00 0.161696214353D-05 0.000000000000D+00  7 -2 2 24 -11 11 -24 21 2 0.27460248D-01 0.15964028D+00 0.87489848D+05 0.87489848D+05 0.87489848D+05 0.11265164D+01  1  2 15  1  7  1       -2 0.765338179192D-04 0.100000000000D+01
  </mgrwgt>
  </event>
  <event>
  8     66 0.27011060E-05 0.18547693E+03 0.75467711E-02 0.97350547E-01
       -2 -1    0    0    0  501 0.00000000E+00 0.00000000E+00 0.65134076E+02 0.65134862E+02 0.32000000E+00 0.0000E+00 0.9000E+01
        2 -1    0    0  501    0 0.00000000E+00 0.00000000E+00 -.18173435E+04 0.18173435E+04 0.32000000E+00 0.0000E+00 0.9000E+01
       25  2    1    2    0    0 -.22960441E+03 0.14048668E+03 -.10924327E+04 0.11644721E+04 0.30021883E+03 0.0000E+00 0.0000E+00
       23  2    1    2    0    0 0.22960441E+03 -.14048668E+03 -.65977666E+03 0.71800625E+03 0.88164782E+02 0.0000E+00 0.0000E+00
       24  1    3    3    0    0 -.23597950E+03 0.12489614E+03 -.10111614E+04 0.10489041E+04 0.80419002E+02 0.0000E+00 0.9000E+01
      -13  1    4    4    0    0 0.24161175E+02 0.16291382E+01 -.20759878E+02 0.31896711E+02 0.10565837E+00 0.0000E+00 0.9000E+01
       13  1    4    4    0    0 0.20544324E+03 -.14211582E+03 -.63901679E+03 0.68610953E+03 0.10565837E+00 0.0000E+00 0.9000E+01
      -24  1    3    3    0    0 0.63750926E+01 0.15590541E+02 -.81271376E+02 0.11556799E+03 0.80419002E+02 0.0000E+00 0.9000E+01
#aMCatNLO 1  0  0  1  2 0.14294418D+03 0.00000000D+00  -5  7  0 0.00000000D+00 0.00000000D+00 0.00000000D+00 0.00000000D+00 0.00000000D+00
  <mgrwgt>
 0.9312760347D-03    9    2    0
 0.344051966406024D+03 0.000000000000000D+00 0.000000000000000D+00 0.344051966406024D+03
 0.344051966406024D+03 0.000000000000000D+00 0.000000000000000D+00 -.344051966406024D+03
 0.294683542471745D+03 -.235979504037661D+03 0.124896143596934D+03 -.953194693547947D+02
 0.343974228779764D+02 0.241609147172154D+02 0.162934448082114D+01 0.244290429046371D+02
 0.249810157309461D+03 0.205443496986361D+03 -.142116029258919D+03 -.105757679194668D+01
 0.109212810152866D+03 0.637509233408475D+01 0.155905411811639D+02 0.719480032421043D+02
 0.000000000000000D+00 -.000000000000000D+00 0.000000000000000D+00 0.000000000000000D+00
 0.512287832944116D+03 0.000000000000000D+00 0.000000000000000D+00 0.512287832944116D+03
 0.383147127673624D+03 0.000000000000000D+00 0.000000000000000D+00 -.383147127673624D+03
 0.245879315352206D+03 -.184213377006414D+03 0.104733243325661D+03 -.953194693547947D+02
 0.396857958302746D+02 0.312553742329373D+02 -.113394664983929D+01 0.244290429046371D+02
 0.305626357469309D+03 0.258633975698820D+03 -.162833714339227D+03 -.105757679194668D+01
 0.111602996968502D+03 0.275211606525167D+02 0.735415010680926D+01 0.719480032421043D+02
 0.192640494997449D+03 -.133197133577860D+03 0.518802675565960D+02 0.129140705270492D+03
0.126512071648D-04 0.000000000000D+00 0.000000000000D+00 0.267655228649D-06 0.000000000000D+00  7 -2 2 24 -13 13 -24 21 0 0.10020690D-01 0.27959137D+00 0.10081553D+06 0.10081553D+06 0.10081553D+06 0.11214327D+01  1  2  2  1  7  1       -2 0.855875843097D-03 0.100000000000D+01
-.697338853706D-06 0.000000000000D+00 -.485839666523D-07 0.267655228649D-06 0.000000000000D+00  7 -2 2 24 -13 13 -24 21 2 0.10020690D-01 0.27959137D+00 0.10081553D+06 0.10081553D+06 0.10081553D+06 0.11214327D+01  1  2  3  1  7  1       -2 -.593292817093D-04 0.100000000000D+01
0.787289981714D-06 0.000000000000D+00 0.000000000000D+00 0.267655228649D-06 0.000000000000D+00  7 -2 2 24 -13 13 -24 21 2 0.10020690D-01 0.27959137D+00 0.10081553D+06 0.10081553D+06 0.10081553D+06 0.11214327D+01  1  2 15  1  7  1       -2 0.669822839553D-04 0.100000000000D+01
0.782004051655D-05 0.000000000000D+00 0.000000000000D+00 0.267655228649D-06 0.000000000000D+00  7 -2 2 24 -13 13 -24 21 2 0.15267509D-01 0.27959137D+00 0.15674131D+06 0.15674131D+06 0.15674131D+06 0.11060484D+01  1  2 12  1  7  1       -2 0.330009817161D-03 0.100000000000D+01
-.105950167868D-04 0.000000000000D+00 0.000000000000D+00 0.267655228649D-06 0.000000000000D+00  7 -2 2 24 -13 13 -24 21 2 0.10020690D-01 0.27959137D+00 0.10081553D+06 0.10081553D+06 0.10081553D+06 0.11214327D+01  1  2  4  1  7  1       -2 -.901419349168D-03 0.100000000000D+01
-.123228653739D-04 0.000000000000D+00 -.451129880122D-05 0.267655228649D-06 0.000000000000D+00  7 -2 2 24 -13 13 -24 21 2 0.16753832D-01 0.27959137D+00 0.10081553D+06 0.10081553D+06 0.10081553D+06 0.11214327D+01  1  2  5  1  7  1       -2 -.465748442050D-03 0.100000000000D+01
0.133726541749D-04 0.000000000000D+00 0.397464724966D-05 0.267655228649D-06 0.000000000000D+00  7 -2 2 24 -13 13 -24 21 2 0.10020690D-01 0.27959137D+00 0.10081553D+06 0.10081553D+06 0.10081553D+06 0.11214327D+01  1  2  6  1  7  1       -2 0.113773951146D-02 0.100000000000D+01
0.386612280162D-06 0.000000000000D+00 0.000000000000D+00 0.267655228649D-06 0.000000000000D+00  7 21 2 24 -13 13 -24 2 2 0.15267509D-01 0.27959137D+00 0.15674131D+06 0.15674131D+06 0.15674131D+06 0.11060484D+01  1  2 12  3  7  1       -2 0.218149118514D-03 0.100000000000D+01
-.500442667902D-06 0.000000000000D+00 -.260015103401D-06 0.267655228649D-06 0.000000000000D+00  7 21 2 24 -13 13 -24 2 2 0.16753832D-01 0.27959137D+00 0.10081553D+06 0.10081553D+06 0.10081553D+06 0.11214327D+01  1  2  5  3  7  1       -2 -.250983466558D-03 0.100000000000D+01
  </mgrwgt>
  </event>
  <event>
  8     66 0.27011060E-05 0.22355745E+03 0.75467711E-02 0.98625477E-01
       -2 -1    0    0    0  501 0.00000000E+00 0.00000000E+00 0.88017219E+02 0.88017801E+02 0.32000000E+00 0.0000E+00 0.9000E+01
        2 -1    0    0  501    0 0.00000000E+00 0.00000000E+00 -.90717417E+03 0.90717422E+03 0.32000000E+00 0.0000E+00 0.9000E+01
       25  2    1    2    0    0 -.18656883E+03 0.31930906E+02 -.53099557E+03 0.63860896E+03 0.30006264E+03 0.0000E+00 0.0000E+00
       23  2    1    2    0    0 0.18656883E+03 -.31930906E+02 -.28816137E+03 0.35658307E+03 0.91032921E+02 0.0000E+00 0.0000E+00
       24  1    3    3    0    0 -.12153489E+03 -.12565942E+01 -.64041045E+02 0.15918788E+03 0.80419002E+02 0.0000E+00 0.9000E+01
      -13  1    4    4    0    0 0.16530799E+03 -.15781882E+02 -.28479542E+03 0.32967293E+03 0.10565837E+00 0.0000E+00 0.9000E+01
       13  1    4    4    0    0 0.21260845E+02 -.16149023E+02 -.33659528E+01 0.26910134E+02 0.10565837E+00 0.0000E+00 0.9000E+01
      -24  1    3    3    0    0 -.65033939E+02 0.33187500E+02 -.46695453E+03 0.47942108E+03 0.80419002E+02 0.0000E+00 0.9000E+01
#aMCatNLO 1  0  0  1  2 0.23629195D+03 0.00000000D+00  -5  7  0 0.00000000D+00 0.00000000D+00 0.00000000D+00 0.00000000D+00 0.00000000D+00
  <mgrwgt>
 0.1352094319D-02    3    2    0
 0.282572583198618D+03 0.000000000000000D+00 0.000000000000000D+00 0.282572583198618D+03
 0.282572583198618D+03 0.000000000000000D+00 0.000000000000000D+00 -.282572583198618D+03
 0.187496677139463D+03 -.121534894709753D+03 -.125659406905555D+01 0.117963885673558D+03
 0.167737114671418D+03 0.165308182472156D+03 -.157818818374401D+02 -.236617127806505D+02
 0.425083906494412D+02 0.212606516316944D+02 -.161490238248594D+02 0.330780440368736D+02
 0.167402983936913D+03 -.650339393940974D+02 0.331874997313550D+02 -.127380216929781D+03
 0.000000000000000D+00 -.000000000000000D+00 0.000000000000000D+00 -.000000000000000D+00
 0.367131589212664D+03 0.000000000000000D+00 0.000000000000000D+00 0.367131589212664D+03
 0.535652247223147D+03 0.000000000000000D+00 0.000000000000000D+00 -.535652247223147D+03
 0.152512709259548D+03 -.534147999196719D+02 -.492862634553604D+01 0.117963885673558D+03
 0.251180081874626D+03 0.249237274666167D+03 -.203061024278816D+02 -.236617127806505D+02
 0.553141766853952D+02 0.408591769254583D+02 -.172054876725961D+02 0.330780440368736D+02
 0.153547476344027D+03 -.732256405849611D+00 0.297212999837991D+02 -.127380216929781D+03
 0.290229392272215D+03 -.235949395266104D+03 0.127189164622146D+02 -.168520658010483D+03
0.975212090202D-05 0.000000000000D+00 0.000000000000D+00 0.121535313873D-05 0.000000000000D+00  7 -2 2 24 -13 13 -24 21 0 0.13541160D-01 0.13956531D+00 0.49977932D+05 0.49977932D+05 0.49977932D+05 0.11473123D+01  1  2  2  1  7  1       -2 0.133439276365D-02 0.100000000000D+01
-.505632653507D-06 0.000000000000D+00 -.374507120562D-07 0.121535313873D-05 0.000000000000D+00  7 -2 2 24 -13 13 -24 21 2 0.13541160D-01 0.13956531D+00 0.49977932D+05 0.49977932D+05 0.49977932D+05 0.11473123D+01  1  2  3  1  7  1       -2 -.910716021277D-04 0.100000000000D+01
0.603912295869D-06 0.000000000000D+00 0.000000000000D+00 0.121535313873D-05 0.000000000000D+00  7 -2 2 24 -13 13 -24 21 2 0.13541160D-01 0.13956531D+00 0.49977932D+05 0.49977932D+05 0.49977932D+05 0.11473123D+01  1  2 15  1  7  1       -2 0.108773157643D-03 0.100000000000D+01
  </mgrwgt>
  </event>
  <event>
  8     66 0.27011060E-05 0.25565620E+03 0.75467711E-02 0.10030324E+00
       -2 -1    0    0    0  501 0.00000000E+00 0.00000000E+00 0.90394002E+03 0.90394008E+03 0.32000000E+00 0.0000E+00 0.9000E+01
        2 -1    0    0  501    0 0.00000000E+00 0.00000000E+00 -.87791459E+02 0.87792042E+02 0.32000000E+00 0.0000E+00 0.9000E+01
       25  2    1    2    0    0 0.64178185E+02 -.17734157E+03 0.53120501E+03 0.63845258E+03 0.29979003E+03 0.0000E+00 0.0000E+00
       23  2    1    2    0    0 -.64178185E+02 0.17734157E+03 0.28494355E+03 0.35327954E+03 0.89692439E+02 0.0000E+00 0.0000E+00
       24  1    3    3    0    0 0.99060845E+02 -.28709086E+02 0.75134741E+02 0.15083006E+03 0.80419002E+02 0.0000E+00 0.9000E+01
      -11  1    4    4    0    0 -.85306611E+02 0.15680391E+03 0.23246727E+03 0.29309677E+03 0.51099893E-03 0.0000E+00 0.9000E+01
       11  1    4    4    0    0 0.21128426E+02 0.20537662E+02 0.52476279E+02 0.60182770E+02 0.51099893E-03 0.0000E+00 0.9000E+01
      -24  1    3    3    0    0 -.34882660E+02 -.14863248E+03 0.45607027E+03 0.48762252E+03 0.80419002E+02 0.0000E+00 0.9000E+01
#aMCatNLO 1  0  0  1  2 0.10058462D+03 0.00000000D+00  -5  7  0 0.00000000D+00 0.00000000D+00 0.00000000D+00 0.00000000D+00 0.00000000D+00
  <mgrwgt>
 0.7820765645D-03    4    2    0
 0.281706461638460D+03 0.000000000000000D+00 0.000000000000000D+00 0.281706461638460D+03
 0.281706461638460D+03 0.000000000000000D+00 0.000000000000000D+00 -.281706461638460D+03
 0.156655808371926D+03 0.990608447012674D+02 -.287090863104312D+02 -.862355132911186D+02
 0.179168146058806D+03 -.853066112248951D+02 0.156803905507539D+03 -.153799174593664D+02
 0.299189918155856D+02 0.211284264978298D+02 0.205376621263267D+02 0.519038528162677D+01
 0.197669977030603D+03 -.348826599742021D+02 -.148632481323435D+03 0.964250454688582D+02
 0.000000000000000D+00 0.000000000000000D+00 0.000000000000000D+00 -.000000000000000D+00
 0.298230718095160D+03 0.000000000000000D+00 0.000000000000000D+00 0.298230718095160D+03
 0.495711180265202D+03 0.000000000000000D+00 0.000000000000000D+00 -.495711180265202D+03
 0.154710441522084D+03 0.852484111436753D+02 -.525761296263212D+02 -.862355132911186D+02
 0.165400431785714D+03 -.100591924225683D+03 0.130391816286215D+03 -.153799174593664D+02
 0.253292548899465D+02 0.186775740465658D+02 0.163027384706743D+02 0.519038528162677D+01
 0.226880925159816D+03 -.537160471197809D+02 -.181175426410862D+03 0.964250454688582D+02
 0.221620845002801D+03 0.503819861552227D+02 0.870570012802941D+02 -.197480462170042D+03
0.398512437270D-04 0.000000000000D+00 0.000000000000D+00 0.306921799893D-06 0.000000000000D+00  7 -2 2 24 -11 11 -24 21 0 0.13906774D+00 0.13506428D-01 0.65360094D+05 0.65360094D+05 0.65360094D+05 0.11372004D+01  1  2  2  1  7  1       -2 0.824443990168D-03 0.100000000000D+01
-.218861363935D-05 0.000000000000D+00 -.153039268985D-06 0.306921799893D-06 0.000000000000D+00  7 -2 2 24 -11 11 -24 21 2 0.13906774D+00 0.13506428D-01 0.65360094D+05 0.65360094D+05 0.65360094D+05 0.11372004D+01  1  2  3  1  7  1       -2 -.585547848631D-04 0.100000000000D+01
0.258089337664D-05 0.000000000000D+00 0.000000000000D+00 0.306921799893D-06 0.000000000000D+00  7 -2 2 24 -11 11 -24 21 2 0.13906774D+00 0.13506428D-01 0.65360094D+05 0.65360094D+05 0.65360094D+05 0.11372004D+01  1  2 15  1  7  1       -2 0.690499472846D-04 0.100000000000D+01
-.197585528637D-05 0.000000000000D+00 0.000000000000D+00 0.306921799893D-06 0.000000000000D+00  7 -2 2 24 -11 11 -24 21 2 0.13906774D+00 0.13506428D-01 0.65360094D+05 0.65360094D+05 0.65360094D+05 0.11372004D+01  1  2  4  1  7  1       -2 -.528625880482D-04 0.100000000000D+01
  </mgrwgt>
  </event>
  <event>
  8     66 0.27011060E-05 0.15737149E+03 0.75467711E-02 0.10962786E+00
       -2 -1    0    0    0  501 0.00000000E+00 0.00000000E+00 0.28845247E+03 0.28845265E+03 0.32000000E+00 0.0000E+00 0.9000E+01
        2 -1    0    0  501    0 0.00000000E+00 0.00000000E+00 -.13437262E+03 0.13437300E+03 0.32000000E+00 0.0000E+00 0.9000E+01
       25  2    1    2    0    0 0.13982587E+02 -.24666342E+02 0.10365826E+03 0.31870284E+03 0.30003754E+03 0.0000E+00 0.0000E+00
       23  2    1    2    0    0 -.13982587E+02 0.24666342E+02 0.50421589E+02 0.10412281E+03 0.86575292E+02 0.0000E+00 0.0000E+00
       24  1    3    3    0    0 -.91363064E+02 -.49108245E+02 0.12618219E+03 0.18206589E+03 0.80419002E+02 0.0000E+00 0.9000E+01
      -11  1    4    4    0    0 0.80718641E+01 0.25408756E+02 0.69823073E+02 0.74739691E+02 0.51099893E-03 0.0000E+00 0.9000E+01
       11  1    4    4    0    0 -.22054451E+02 -.74241440E+00 -.19401483E+02 0.29383116E+02 0.51099893E-03 0.0000E+00 0.9000E+01
      -24  1    3    3    0    0 0.10534565E+03 0.24441903E+02 -.22523922E+02 0.13663695E+03 0.80419002E+02 0.0000E+00 0.9000E+01
#aMCatNLO 1  0  0  2  2 0.51539813D+01 0.00000000D+00  -5  7  0 0.00000000D+00 0.00000000D+00 0.00000000D+00 0.00000000D+00 0.00000000D+00
  <mgrwgt>
 0.4932939148D-03    6    2    0
 0.196876184807530D+03 0.000000000000000D+00 0.000000000000000D+00 0.196876184807530D+03
 0.196876184807530D+03 0.000000000000000D+00 0.000000000000000D+00 -.196876184807530D+03
 0.146132393420350D+03 -.913629494772337D+02 -.491084479830149D+02 0.642544337140205D+02
 0.529357185444219D+02 0.807168093420342D+01 0.254089643109988D+02 0.457320762414419D+02
 0.391445417600739D+02 -.220545047159962D+02 -.742203900645800D+00 -.323317661860303D+02
 0.155539715890214D+03 0.105345773259027D+03 0.244416875726619D+02 -.776547437694320D+02
 0.000000000000000D+00 0.000000000000000D+00 -.000000000000000D+00 0.000000000000000D+00
 0.200617219628692D+03 0.000000000000000D+00 0.000000000000000D+00 0.200617219628692D+03
 0.198676233867944D+03 0.000000000000000D+00 0.000000000000000D+00 -.198676233867944D+03
 0.145948536164457D+03 -.920149050077087D+02 -.473115658025624D+02 0.642544337140205D+02
 0.532168632552464D+02 0.783473714305323D+01 0.260620151038595D+02 0.457320762414419D+02
 0.392372227015027D+02 -.222294611053153D+02 -.259999204729351D+00 -.323317661860303D+02
 0.155383477304127D+03 0.104651759803084D+03 0.263544873782997D+02 -.776547437694320D+02
 0.550735407130277D+01 0.175786916688664D+01 -.484493747486748D+01 0.194098576074869D+01
0.408243185223D-05 0.000000000000D+00 0.000000000000D+00 0.304854865987D-07 0.000000000000D+00  7 -2 2 24 -11 11 -24 21 0 0.44377346D-01 0.20672754D-01 0.24765786D+05 0.24765786D+05 0.24765786D+05 0.11751415D+01  1  2  2  2  7  2        2 0.638312228835D-03 0.100000000000D+01
-.212969561607D-06 0.000000000000D+00 -.156776132415D-07 0.304854865987D-07 0.000000000000D+00  7 -2 2 24 -11 11 -24 21 2 0.44377346D-01 0.20672754D-01 0.24765786D+05 0.24765786D+05 0.24765786D+05 0.11751415D+01  1  2  3  2  7  2        2 -.459845655929D-04 0.100000000000D+01
0.255268619687D-06 0.000000000000D+00 0.000000000000D+00 0.304854865987D-07 0.000000000000D+00  7 -2 2 24 -11 11 -24 21 2 0.44377346D-01 0.20672754D-01 0.24765786D+05 0.24765786D+05 0.24765786D+05 0.11751415D+01  1  2 15  2  7  2        2 0.551178135374D-04 0.100000000000D+01
-.726441399225D-05 0.000000000000D+00 0.000000000000D+00 0.304854865987D-07 0.000000000000D+00  7 -2 2 24 -11 11 -24 21 2 0.44377346D-01 0.20672754D-01 0.24765786D+05 0.24765786D+05 0.24765786D+05 0.11751415D+01  1  2  4  2  7  2        2 -.156853833571D-02 0.100000000000D+01
0.656093048614D-05 0.000000000000D+00 0.000000000000D+00 0.304854865987D-07 0.843317806766D-08  7 -2 2 24 -11 11 -24 21 2 0.45220603D-01 0.20861766D-01 0.25636785D+05 0.25636785D+05 0.25636785D+05 0.11737224D+01  1  2 11  2  7  2        2 0.135042242104D-02 0.100000000000D+01
0.442244296291D-07 0.000000000000D+00 0.000000000000D+00 0.304854865987D-07 0.143022274146D-10  7 -2 21 24 -11 11 -24 -2 2 0.45220603D-01 0.20861766D-01 0.25636785D+05 0.25636785D+05 0.25636785D+05 0.11737224D+01  1  2 11  4  7  2        2 0.639643526912D-04 0.100000000000D+01
  </mgrwgt>
  </event>
  <event>
  7     66 0.27011060E-05 0.74774969E+03 0.75467711E-02 0.87161348E-01
       -2 -1    0    0    0  501 0.00000000E+00 0.00000000E+00 0.48132322E+03 0.48132332E+03 0.32000000E+00 0.0000E+00 0.9000E+01
        2 -1    0    0  501    0 0.00000000E+00 0.00000000E+00 -.12846925E+04 0.12846926E+04 0.32000000E+00 0.0000E+00 0.9000E+01
       25  2    1    2    0    0 0.70221251E+03 0.19868217E+03 -.21236124E+03 0.81708315E+03 0.29991760E+03 0.0000E+00 0.0000E+00
       24  1    3    3    0    0 0.48283465E+03 0.61193482E+02 -.38017149E+02 0.49475899E+03 0.80419002E+02 0.0000E+00 0.9000E+01
      -13  1    1    2    0    0 -.17948792E+03 -.31048583E+02 -.22348740E+03 0.28831676E+03 0.10565837E+00 0.0000E+00 0.9000E+01
       13  1    1    2    0    0 -.52272459E+03 -.16763359E+03 -.36752066E+03 0.66061597E+03 0.10565837E+00 0.0000E+00 0.9000E+01
      -24  1    3    3    0    0 0.21937786E+03 0.13748869E+03 -.17434410E+03 0.32232416E+03 0.80419002E+02 0.0000E+00 0.9000E+01
#aMCatNLO 1  0  0  2  2 0.47544094D+03 0.00000000D+00  -5  7  0 0.00000000D+00 0.00000000D+00 0.00000000D+00 0.00000000D+00 0.00000000D+00
  <mgrwgt>
 0.1397730501D-02    3    2    0
 0.786353906334396D+03 0.000000000000000D+00 0.000000000000000D+00 0.786353906334396D+03
 0.786353906334396D+03 0.000000000000000D+00 0.000000000000000D+00 -.786353906334396D+03
 0.536151999106302D+03 0.482834655219673D+03 0.611934837783093D+02 0.210042384897160D+03
 0.209593117870686D+03 -.179487721583995D+03 -.310485153235082D+02 -.103679422044818D+03
 0.554078638071071D+03 -.522724791512778D+03 -.167633655475693D+03 -.752388666612692D+02
 0.272884057620733D+03 0.219377857877099D+03 0.137488687020892D+03 -.311240961910721D+02
 0.000000000000000D+00 -.000000000000000D+00 0.000000000000000D+00 0.000000000000000D+00
 0.183063127819542D+04 0.000000000000000D+00 0.000000000000000D+00 0.183063127819542D+04
 0.877500467640010D+03 0.000000000000000D+00 0.000000000000000D+00 -.877500467640010D+03
 0.572531198518743D+03 0.517093014472831D+03 -.991048346603342D+02 0.210042384897160D+03
 0.216799745182778D+03 -.166312163483395D+03 -.926982806380043D+02 -.103679422044818D+03
 0.595375076563063D+03 -.487206621502475D+03 -.333826755518704D+03 -.752388666612692D+02
 0.258295485937226D+03 0.235791328984191D+03 0.606884001546853D+02 -.311240961910721D+02
 0.106513023963362D+04 -.993655584711514D+02 0.464941470662357D+03 0.953130810555406D+03
0.396109579471D-03 0.000000000000D+00 0.000000000000D+00 0.166136170318D-07 0.000000000000D+00  7 -2 2 24 -13 13 -24 21 0 0.74049737D-01 0.19764501D+00 0.55912961D+06 0.55912961D+06 0.55912961D+06 0.10650965D+01  1  2  2  2  7  2        2 0.138427628130D-02 0.100000000000D+01
-.219382880579D-04 0.000000000000D+00 -.152116508322D-05 0.166136170318D-07 0.000000000000D+00  7 -2 2 24 -13 13 -24 21 2 0.74049737D-01 0.19764501D+00 0.55912961D+06 0.55912961D+06 0.55912961D+06 0.10650965D+01  1  2  3  2  7  2        2 -.869737261958D-04 0.100000000000D+01
0.253319858581D-04 0.000000000000D+00 0.000000000000D+00 0.166136170318D-07 0.000000000000D+00  7 -2 2 24 -13 13 -24 21 2 0.74049737D-01 0.19764501D+00 0.55912961D+06 0.55912961D+06 0.55912961D+06 0.10650965D+01  1  2 15  2  7  2        2 0.100427945708D-03 0.100000000000D+01
  </mgrwgt>
  </event>
  <event>
  8     66 0.27011060E-05 0.25905780E+03 0.75467711E-02 0.85602897E-01
       -2 -1    0    0    0  501 0.00000000E+00 0.00000000E+00 0.26672376E+03 0.26672395E+03 0.32000000E+00 0.0000E+00 0.9000E+01
        2 -1    0    0  501    0 0.00000000E+00 0.00000000E+00 -.39115474E+03 0.39115487E+03 0.32000000E+00 0.0000E+00 0.9000E+01
       25  2    1    2    0    0 0.32697174E+02 0.18837246E+03 -.22894009E+03 0.42270180E+03 0.29951621E+03 0.0000E+00 0.0000E+00
       23  2    1    2    0    0 -.32697174E+02 -.18837246E+03 0.10450911E+03 0.23517702E+03 0.88503037E+02 0.0000E+00 0.0000E+00
       24  1    3    3    0    0 0.98421874E+02 0.16227897E+03 -.46738012E+02 0.21135985E+03 0.80419002E+02 0.0000E+00 0.9000E+01
      -13  1    4    4    0    0 -.33184145E+02 -.25051618E+02 0.45212151E+02 0.61424106E+02 0.10565837E+00 0.0000E+00 0.9000E+01
       13  1    4    4    0    0 0.48697031E+00 -.16332084E+03 0.59296959E+02 0.17375291E+03 0.10565837E+00 0.0000E+00 0.9000E+01
      -24  1    3    3    0    0 -.65724699E+02 0.26093488E+02 -.18220207E+03 0.21134194E+03 0.80419002E+02 0.0000E+00 0.9000E+01
#aMCatNLO 1  0  0  1  2 0.11577815D+04 0.00000000D+00  -5  7  0 0.00000000D+00 0.00000000D+00 0.00000000D+00 0.00000000D+00 0.00000000D+00
  <mgrwgt>
 0.8233319997D-03    3    2    0
 0.323002118221461D+03 0.000000000000000D+00 0.000000000000000D+00 0.323002118221461D+03
 0.323002118221461D+03 0.000000000000000D+00 0.000000000000000D+00 -.323002118221461D+03
 0.206242479523623D+03 0.984218736590389D+02 0.162278973948362D+03 -.688576832260175D+01
 0.712616103408330D+02 -.331841920550600D+02 -.250514220999257D+02 0.578744568595936D+02
 0.188368499366239D+03 0.487017601963707D+00 -.163321039609517D+03 0.938546343459434D+02
 0.180131647212227D+03 -.657246992059426D+02 0.260934877610810D+02 -.144843322882935D+03
 0.000000000000000D+00 -.000000000000000D+00 0.000000000000000D+00 -.000000000000000D+00
 0.797585135053824D+03 0.000000000000000D+00 0.000000000000000D+00 0.797585135053824D+03
 0.315115755290838D+04 0.000000000000000D+00 0.000000000000000D+00 -.315115755290838D+04
 0.410631095891019D+03 0.400922640903431D+03 -.369364747088169D+02 -.688576832260175D+01
 0.121276321336603D+03 0.612320293188638D+02 -.872303384473533D+02 0.578744568595936D+02
 0.548313464751996D+03 0.361739092974265D+03 -.401227855282111D+03 0.938546343459434D+02
 0.245591913454123D+03 0.143040449550871D+03 -.111391263608065D+03 -.144843322882935D+03
 0.262292989252846D+04 -.966934212747431D+03 0.636785932046347D+03 -.235357241785456D+04
0.145948187641D-04 0.000000000000D+00 0.000000000000D+00 0.138623130877D-06 0.000000000000D+00  7 -2 2 24 -13 13 -24 21 0 0.41034450D-01 0.60177677D-01 0.67110943D+05 0.67110943D+05 0.67110943D+05 0.11362190D+01  1  2  2  1  7  1       -2 0.812031050948D-03 0.100000000000D+01
-.762844509282D-06 0.000000000000D+00 -.560479469580D-07 0.138623130877D-06 0.000000000000D+00  7 -2 2 24 -13 13 -24 21 2 0.41034450D-01 0.60177677D-01 0.67110943D+05 0.67110943D+05 0.67110943D+05 0.11362190D+01  1  2  3  1  7  1       -2 -.547941312237D-04 0.100000000000D+01
0.920176444054D-06 0.000000000000D+00 0.000000000000D+00 0.138623130877D-06 0.000000000000D+00  7 -2 2 24 -13 13 -24 21 2 0.41034450D-01 0.60177677D-01 0.67110943D+05 0.67110943D+05 0.67110943D+05 0.11362190D+01  1  2 15  1  7  1       -2 0.660950799422D-04 0.100000000000D+01
  </mgrwgt>
  </event>
  <event>
  8     66 0.27011060E-05 0.17679546E+03 0.75467711E-02 0.10771092E+00
       -2 -1    0    0    0  501 0.00000000E+00 0.00000000E+00 0.11090792E+03 0.11090838E+03 0.32000000E+00 0.0000E+00 0.9000E+01
        2 -1    0    0  501    0 0.00000000E+00 0.00000000E+00 -.10992556E+04 0.10992557E+04 0.32000000E+00 0.0000E+00 0.9000E+01
       25  2    1    2    0    0 0.76740879E+02 -.30021651E+02 -.10337108E+04 0.10795985E+04 0.30030731E+03 0.0000E+00 0.0000E+00
       23  2    1    2    0    0 -.76740879E+02 0.30021651E+02 0.45363085E+02 0.13056555E+03 0.90548829E+02 0.0000E+00 0.0000E+00
       24  1    3    3    0    0 -.18136525E+02 0.68471766E+02 -.72124776E+03 0.72916587E+03 0.80419002E+02 0.0000E+00 0.9000E+01
      -13  1    4    4    0    0 -.44120341E+02 0.10291972E+01 0.68257827E+02 0.81282260E+02 0.10565837E+00 0.0000E+00 0.9000E+01
       13  1    4    4    0    0 -.32620538E+02 0.28992454E+02 -.22894742E+02 0.49283286E+02 0.10565837E+00 0.0000E+00 0.9000E+01
      -24  1    3    3    0    0 0.94877404E+02 -.98493417E+02 -.31246303E+03 0.35043264E+03 0.80419002E+02 0.0000E+00 0.9000E+01
#aMCatNLO 1  0  0  1  2 0.97346623D+01 0.00000000D+00  -5  7  0 0.00000000D+00 0.00000000D+00 0.00000000D+00 0.00000000D+00 0.00000000D+00
  <mgrwgt>
 0.4916204139D-03    6    2    0
 0.349165382153164D+03 0.000000000000000D+00 0.000000000000000D+00 0.349165382153164D+03
 0.349165382153164D+03 0.000000000000000D+00 0.000000000000000D+00 -.349165382153164D+03
 0.242817251569527D+03 -.181365244626542D+02 0.684717658601516D+02 -.217889158669761D+03
 0.237462704945113D+03 -.441203564331570D+02 0.102915919431138D+01 0.233325676296917D+03
 0.530017031457490D+02 -.326205225097779D+02 0.289924917353349D+02 0.300751969322849D+02
 0.165049104645939D+03 0.948774034055892D+02 -.984934167897978D+02 -.455117145594408D+02
 0.000000000000000D+00 0.000000000000000D+00 0.000000000000000D+00 -.000000000000000D+00
 0.350323684067472D+03 0.000000000000000D+00 0.000000000000000D+00 0.350323684067472D+03
 0.370269534594992D+03 0.000000000000000D+00 0.000000000000000D+00 -.370269534594992D+03
 0.242116022027721D+03 -.197199119755849D+02 0.654858135325215D+02 -.217889158669761D+03
 0.237761235744452D+03 -.456720413648834D+02 -.189700840256521D+01 0.233325676296917D+03
 0.528628287636649D+02 -.329661877528415D+02 0.283406361859652D+02 0.300751969322849D+02
 0.165658524593192D+03 0.937975881834169D+02 -.100529732441983D+03 -.455117145594408D+02
 0.221946075334337D+02 0.456055290989296D+01 0.860029112606188D+01 -.199458505275208D+02
0.817625224302D-05 0.000000000000D+00 0.000000000000D+00 0.253676835038D-05 0.000000000000D+00  7 -2 2 24 -13 13 -24 21 0 0.17062796D-01 0.16911629D+00 0.31256636D+05 0.31256636D+05 0.31256636D+05 0.11656861D+01  1  2  2  1  7  1       -2 0.596654641616D-03 0.100000000000D+01
-.198444712929D-06 0.000000000000D+00 -.313989614699D-07 0.253676835038D-05 0.000000000000D+00  7 -2 2 24 -13 13 -24 21 2 0.17062796D-01 0.16911629D+00 0.31256636D+05 0.31256636D+05 0.31256636D+05 0.11656861D+01  1  2  3  1  7  1       -2 -.196775707389D-04 0.100000000000D+01
0.487523992152D-06 0.000000000000D+00 0.000000000000D+00 0.253676835038D-05 0.000000000000D+00  7 -2 2 24 -13 13 -24 21 2 0.17062796D-01 0.16911629D+00 0.31256636D+05 0.31256636D+05 0.31256636D+05 0.11656861D+01  1  2 15  1  7  1       -2 0.483423705318D-04 0.100000000000D+01
-.134833230681D-05 0.000000000000D+00 0.000000000000D+00 0.253676835038D-05 0.000000000000D+00  7 -2 2 24 -13 13 -24 21 2 0.17062796D-01 0.16911629D+00 0.31256636D+05 0.31256636D+05 0.31256636D+05 0.11656861D+01  1  2  4  1  7  1       -2 -.133699225115D-03 0.100000000000D+01
0.132584445980D-11 0.000000000000D+00 0.000000000000D+00 0.253676835038D-05 0.193581567328D-06  7 -2 2 24 -13 13 -24 21 2 0.17119399D-01 0.17933797D+00 0.33082393D+05 0.33082393D+05 0.33082393D+05 0.11634154D+01  1  2 11  1  7  1       -2 0.119401119839D-09 0.100000000000D+01
0.640112650514D-13 0.000000000000D+00 0.000000000000D+00 0.253676835038D-05 0.123534078831D-09  7 21 2 24 -13 13 -24 2 2 0.17119399D-01 0.17933797D+00 0.33082393D+05 0.33082393D+05 0.33082393D+05 0.11634154D+01  1  2 11  3  7  1       -2 0.782250830035D-10 0.100000000000D+01
  </mgrwgt>
  </event>
  <event>
  8     66 0.27011060E-05 0.59054013E+03 0.75467711E-02 0.92469696E-01
       -2 -1    0    0    0  501 0.00000000E+00 0.00000000E+00 0.14245778E+03 0.14245814E+03 0.32000000E+00 0.0000E+00 0.9000E+01
        2 -1    0    0  501    0 0.00000000E+00 0.00000000E+00 -.25836130E+04 0.25836130E+04 0.32000000E+00 0.0000E+00 0.9000E+01
       25  2    1    2    0    0 -.51754608E+03 -.20055963E+03 -.15331859E+04 0.16580547E+04 0.30067934E+03 0.0000E+00 0.0000E+00
       23  2    1    2    0    0 0.51754608E+03 0.20055963E+03 -.90796928E+03 0.10680165E+04 0.90403897E+02 0.0000E+00 0.0000E+00
       24  1    3    3    0    0 -.50480814E+03 -.16917040E+03 -.13864321E+04 0.14873167E+04 0.80419002E+02 0.0000E+00 0.9000E+01
      -13  1    4    4    0    0 0.19619542E+03 0.66097895E+02 -.42252313E+03 0.47051820E+03 0.10565837E+00 0.0000E+00 0.9000E+01
       13  1    4    4    0    0 0.32135067E+03 0.13446173E+03 -.48544615E+03 0.59749827E+03 0.10565837E+00 0.0000E+00 0.9000E+01
      -24  1    3    3    0    0 -.12737941E+02 -.31389231E+02 -.14675383E+03 0.17073793E+03 0.80419002E+02 0.0000E+00 0.9000E+01
#aMCatNLO 1  0  0  1  2 0.33409981D+02 0.00000000D+00  -5  7  0 0.00000000D+00 0.00000000D+00 0.00000000D+00 0.00000000D+00 0.00000000D+00
  <mgrwgt>
 0.1193858506D-02    4    2    0
 0.606676418600954D+03 0.000000000000000D+00 0.000000000000000D+00 0.606676418600954D+03
 0.606676418600954D+03 0.000000000000000D+00 0.000000000000000D+00 -.606676418600954D+03
 0.552218004138341D+03 -.504808141762960D+03 -.169170398359790D+03 -.122587211685314D+03
 0.207047187785418D+03 0.196195245826443D+03 0.660978012949506D+02 -.265408155964319D+01
 0.365741642254905D+03 0.321350837191496D+03 0.134461828079550D+03 0.111447768506798D+03
 0.883460030232434D+02 -.127379412549792D+02 -.313892310147106D+02 0.137935247381596D+02
 0.000000000000000D+00 0.000000000000000D+00 0.000000000000000D+00 -.000000000000000D+00
 0.609259454182578D+03 0.000000000000000D+00 0.000000000000000D+00 0.609259454182578D+03
 0.725497909800033D+03 0.000000000000000D+00 0.000000000000000D+00 -.725497909800033D+03
 0.566561707658998D+03 -.520185025629315D+03 -.170014314907183D+03 -.122587211685314D+03
 0.201631758293951D+03 0.190578225222457D+03 0.657895270908953D+02 -.265408155964319D+01
 0.356842192682009D+03 0.311419402435962D+03 0.133916769522667D+03 0.111447768506798D+03
 0.887770676043294D+02 -.151723801873021D+02 -.315228382732723D+02 0.137935247381596D+02
 0.120944637743324D+03 0.333597781581979D+02 0.183085656689291D+01 -.116238455617455D+03
0.181678048341D-03 0.000000000000D+00 0.000000000000D+00 0.248847578826D-05 0.000000000000D+00  7 -2 2 24 -13 13 -24 21 0 0.21916610D-01 0.39747895D+00 0.34873765D+06 0.34873765D+06 0.34873765D+06 0.10797478D+01  1  2  2  1  7  1       -2 0.124934836447D-02 0.100000000000D+01
-.100843065313D-04 0.000000000000D+00 -.697691542559D-06 0.248847578826D-05 0.000000000000D+00  7 -2 2 24 -13 13 -24 21 2 0.21916610D-01 0.39747895D+00 0.34873765D+06 0.34873765D+06 0.34873765D+06 0.10797478D+01  1  2  3  1  7  1       -2 -.808484722843D-04 0.100000000000D+01
0.996711538424D-05 0.000000000000D+00 0.000000000000D+00 0.248847578826D-05 0.000000000000D+00  7 -2 2 24 -13 13 -24 21 2 0.21916610D-01 0.39747895D+00 0.34873765D+06 0.34873765D+06 0.34873765D+06 0.10797478D+01  1  2 15  1  7  1       -2 0.799089207964D-04 0.100000000000D+01
-.680411148221D-05 0.000000000000D+00 0.000000000000D+00 0.248847578826D-05 0.000000000000D+00  7 -2 2 24 -13 13 -24 21 2 0.21916610D-01 0.39747895D+00 0.34873765D+06 0.34873765D+06 0.34873765D+06 0.10797478D+01  1  2  4  1  7  1       -2 -.545503071411D-04 0.100000000000D+01
  </mgrwgt>
  </event>
  <event>
  8     66 0.27011060E-05 0.13938504E+03 0.75467711E-02 0.96257184E-01
       -2 -1    0    0    0  501 0.00000000E+00 0.00000000E+00 0.79975670E+02 0.79976311E+02 0.32000000E+00 0.0000E+00 0.9000E+01
        2 -1    0    0  501    0 0.00000000E+00 0.00000000E+00 -.47832182E+04 0.47832182E+04 0.32000000E+00 0.0000E+00 0.9000E+01
       25  2    1    2    0    0 -.21432130E+03 0.20149056E+03 -.44135086E+04 0.44335300E+04 0.30099419E+03 0.0000E+00 0.0000E+00
       23  2    1    2    0    0 0.21432130E+03 -.20149056E+03 -.28973388E+03 0.42966453E+03 0.11888574E+03 0.0000E+00 0.0000E+00
       24  1    3    3    0    0 -.43717658E+02 0.18504539E+03 -.30446210E+04 0.30516122E+04 0.80419002E+02 0.0000E+00 0.9000E+01
      -13  1    4    4    0    0 0.22428913E+03 -.17104008E+03 -.27654447E+03 0.39501541E+03 0.10565837E+00 0.0000E+00 0.9000E+01
       13  1    4    4    0    0 -.99678256E+01 -.30450484E+02 -.13189404E+02 0.34649113E+02 0.10565837E+00 0.0000E+00 0.9000E+01
      -24  1    3    3    0    0 -.17060364E+03 0.16445169E+02 -.13688877E+04 0.13819178E+04 0.80419002E+02 0.0000E+00 0.9000E+01
#aMCatNLO 1  0  0  2  1 0.15064257D+03 0.00000000D+00  -5  7  0 0.00000000D+00 0.00000000D+00 0.00000000D+00 0.00000000D+00 0.00000000D+00
  <mgrwgt>
 0.1557901358D-03    6    2    0
 0.618500334298397D+03 0.000000000000000D+00 0.000000000000000D+00 0.618500334298397D+03
 0.618500334298397D+03 0.000000000000000D+00 0.000000000000000D+00 -.618500334298397D+03
 0.421174362030778D+03 -.437176596558889D+02 0.185045396076949D+03 -.367107061907830D+03
 0.501520729713142D+03 0.224289287797774D+03 -.171040193806139D+03 0.414683746744345D+03
 0.860727090586439D+02 -.996798441538264D+01 -.304503724650543D+02 0.798869535539322D+02
 0.228232867794230D+03 -.170603643726503D+03 0.164451701942441D+02 -.127463638390447D+03
 0.000000000000000D+00 0.000000000000000D+00 0.000000000000000D+00 0.000000000000000D+00
 0.701928534120015D+03 0.000000000000000D+00 0.000000000000000D+00 0.701928534120015D+03
 0.695012290345113D+03 0.000000000000000D+00 0.000000000000000D+00 -.695012290345113D+03
 0.403971355253008D+03 -.569996054376900D+02 0.136781175561295D+03 -.367107061907830D+03
 0.518061525632318D+03 0.207877597169163D+03 -.230677348523283D+03 0.414683746744345D+03
 0.906060448228321D+02 -.128118913529047D+02 -.407846227182539D+02 0.798869535539322D+02
 0.233500647910260D+03 -.178035930403594D+03 -.105624331352482D+02 -.127463638390447D+03
 0.150801250846709D+03 0.399698300250258D+02 0.145243228815490D+03 0.691624377490254D+01
0.635588803178D-03 0.000000000000D+00 0.000000000000D+00 0.843144088061D-08 0.000000000000D+00  7 -2 2 24 -13 13 -24 21 0 0.12303999D-01 0.73587977D+00 0.12598058D+06 0.12598058D+06 0.12598058D+06 0.11135827D+01  1  2  2  2  7  2        2 0.232388684234D-03 0.100000000000D+01
-.220692537559D-04 0.000000000000D+00 -.244082835858D-05 0.843144088061D-08 0.000000000000D+00  7 -2 2 24 -13 13 -24 21 2 0.12303999D-01 0.73587977D+00 0.12598058D+06 0.12598058D+06 0.12598058D+06 0.11135827D+01  1  2  3  2  7  2        2 -.100062505119D-04 0.100000000000D+01
0.382368696040D-04 0.000000000000D+00 0.000000000000D+00 0.843144088061D-08 0.000000000000D+00  7 -2 2 24 -13 13 -24 21 2 0.12303999D-01 0.73587977D+00 0.12598058D+06 0.12598058D+06 0.12598058D+06 0.11135827D+01  1  2 15  2  7  2        2 0.173366847960D-04 0.100000000000D+01
0.183661205967D-03 0.000000000000D+00 0.000000000000D+00 0.843144088061D-08 0.000000000000D+00  7 -2 2 24 -13 13 -24 21 2 0.12303999D-01 0.87055357D+00 0.18842350D+06 0.18842350D+06 0.18842350D+06 0.10998197D+01  1  2 12  2  7  2        2 0.339362641523D-05 0.100000000000D+01
-.192594693636D-03 0.000000000000D+00 0.000000000000D+00 0.843144088061D-08 0.000000000000D+00  7 -2 2 24 -13 13 -24 21 2 0.12303999D-01 0.73587977D+00 0.12598058D+06 0.12598058D+06 0.12598058D+06 0.11135827D+01  1  2  4  2  7  2        2 -.873228779325D-04 0.100000000000D+01
0.458902576021D-05 0.000000000000D+00 0.000000000000D+00 0.843144088061D-08 0.000000000000D+00  7 -2 21 24 -13 13 -24 -2 2 0.12303999D-01 0.87055357D+00 0.18842350D+06 0.18842350D+06 0.18842350D+06 0.10998197D+01  1  2 12  4  7  2        2 0.268752120270D-09 0.100000000000D+01
  </mgrwgt>
  </event>
  <event>
  9     66 0.27011060E-05 0.27290610E+03 0.75467711E-02 0.98787524E-01
       -2 -1    0    0    0  502 0.00000000E+00 0.00000000E+00 0.10925652E+03 0.10925699E+03 0.32000000E+00 0.0000E+00 0.9000E+01
        2 -1    0    0  501    0 0.00000000E+00 0.00000000E+00 -.20537857E+04 0.20537858E+04 0.32000000E+00 0.0000E+00 0.9000E+01
       25  2    1    2    0    0 0.48790292E+02 0.23163087E+03 -.63415271E+03 0.74048039E+03 0.30021360E+03 0.0000E+00 0.0000E+00
       23  2    1    2    0    0 0.67168267E+02 -.15361802E+03 -.12595748E+04 0.12738554E+04 0.89826726E+02 0.0000E+00 0.0000E+00
       24  1    3    3    0    0 0.69379489E+01 -.43693369E+02 -.13447855E+03 0.16281566E+03 0.80419002E+02 0.0000E+00 0.9000E+01
      -13  1    4    4    0    0 0.41055032E+02 -.15061711E+03 -.90998377E+03 0.92327759E+03 0.10565837E+00 0.0000E+00 0.9000E+01
       13  1    4    4    0    0 0.26113235E+02 -.30009105E+01 -.34959099E+03 0.35057778E+03 0.10565837E+00 0.0000E+00 0.9000E+01
      -24  1    3    3    0    0 0.41852343E+02 0.27532424E+03 -.49967416E+03 0.57766473E+03 0.80419002E+02 0.0000E+00 0.9000E+01
       21  1    1    2  501  502 -.11595856E+03 -.78012842E+02 -.50801756E+02 0.14870700E+03 0.75000000E+00 0.0000E+00 0.9000E+01
#aMCatNLO 2  0  0  1  2 0.13975833D+03 0.00000000D+00  -5  7  0 0.00000000D+00 0.00000000D+00 0.00000000D+00 0.00000000D+00 0.00000000D+00
  <mgrwgt>
 0.2862064928D-03    2    2    0
 0.336084971407837D+03 0.000000000000000D+00 0.000000000000000D+00 0.336084971407837D+03
 0.336084971407837D+03 0.000000000000000D+00 0.000000000000000D+00 -.336084971407837D+03
 0.112923570876152D+03 -.118112901280605D+02 -.563071980147223D+02 0.545390665696847D+02
 0.213516430206641D+03 0.586066299893371D+01 -.174294865827324D+03 -.123191794952569D+03
 0.615279035683595D+02 0.153737447569290D+02 -.102258440310073D+02 -.586921034170667D+02
 0.284202038164520D+03 -.942311762780223D+01 0.240827907873053D+03 0.127344831799951D+03
 0.000000000000000D+00 -.000000000000000D+00 -.000000000000000D+00 0.000000000000000D+00
 0.621927852520968D+03 0.000000000000000D+00 0.000000000000000D+00 0.621927852520968D+03
 0.360796593457844D+03 0.000000000000000D+00 0.000000000000000D+00 -.360796593457844D+03
 0.106765965412524D+03 0.693794885123623D+01 -.436933690569042D+02 0.545390665696847D+02
 0.198865059908228D+03 0.410550524970407D+02 -.150617317640213D+03 -.123191794952569D+03
 0.643091532865436D+02 0.261132141521564D+02 -.300070650949487D+01 -.586921034170667D+02
 0.316605393659047D+03 0.418523427791767D+02 0.275324235325127D+03 0.127344831799951D+03
 0.296178873712470D+03 -.115958558279610D+03 -.780128421185152D+02 0.261131259063125D+03
-.163355397210D-04 0.000000000000D+00 0.000000000000D+00 0.820462043019D-06 0.000000000000D+00  7 -2 2 24 -13 13 -24 21 2 0.16883879D-01 0.29432554D+00 0.12383595D+06 0.12383595D+06 0.12383595D+06 0.11141816D+01  1  2 13  1  7  1       -2 -.531574991694D-03 0.100000000000D+01
0.297165033822D-04 0.000000000000D+00 0.000000000000D+00 0.820462043019D-06 0.337844546892D-09  7 -2 2 24 -13 13 -24 21 2 0.16808712D-01 0.31596668D+00 0.12383595D+06 0.12383595D+06 0.12383595D+06 0.11141816D+01  1  2  1  1  7  1       -2 0.817781484471D-03 0.100000000000D+01
  </mgrwgt>
  </event>
  <event>
  8     66 0.27011060E-05 0.73486834E+03 0.75467711E-02 0.88598357E-01
       -2 -1    0    0    0  501 0.00000000E+00 0.00000000E+00 0.50559001E+03 0.50559011E+03 0.32000000E+00 0.0000E+00 0.9000E+01
        2 -1    0    0  501    0 0.00000000E+00 0.00000000E+00 -.15190995E+04 0.15190996E+04 0.32000000E+00 0.0000E+00 0.9000E+01
       25  2    1    2    0    0 -.27522890E+03 -.65273343E+03 0.18822522E+02 0.76936361E+03 0.29959006E+03 0.0000E+00 0.0000E+00
       23  2    1    2    0    0 0.27522890E+03 0.65273343E+03 -.10323320E+04 0.12553261E+04 0.91226176E+02 0.0000E+00 0.0000E+00
       24  1    3    3    0    0 -.11195480E+03 -.51269003E+03 -.39691089E+02 0.53237913E+03 0.80419002E+02 0.0000E+00 0.9000E+01
      -11  1    4    4    0    0 0.15498660E+02 0.61515566E+02 -.14142885E+03 0.15500482E+03 0.51099893E-03 0.0000E+00 0.9000E+01
       11  1    4    4    0    0 0.25973024E+03 0.59121786E+03 -.89090317E+03 0.11003212E+04 0.51099893E-03 0.0000E+00 0.9000E+01
      -24  1    3    3    0    0 -.16327410E+03 -.14004340E+03 0.58513611E+02 0.23698448E+03 0.80419002E+02 0.0000E+00 0.9000E+01
#aMCatNLO 1  0  0  1  1 0.27408690D+03 0.00000000D+00  -5  7  0 0.00000000D+00 0.00000000D+00 0.00000000D+00 0.00000000D+00 0.00000000D+00
  <mgrwgt>
 0.1982820524D-02    3    2    0
 0.876379873668526D+03 0.000000000000000D+00 0.000000000000000D+00 0.876379873668526D+03
 0.876379873668526D+03 0.000000000000000D+00 0.000000000000000D+00 -.876379873668526D+03
 0.592023655126763D+03 -.111954801752995D+03 -.512690027269826D+03 0.261992081135662D+03
 0.972735529682453D+02 0.154986604587037D+02 0.615155655382571D+02 -.737412423787411D+02
 0.755876670645109D+03 0.259730240958170D+03 0.591217860879202D+03 -.392875532624222D+03
 0.307585868596935D+03 -.163274099663879D+03 -.140043399147633D+03 0.204624693867301D+03
 0.000000000000000D+00 -.000000000000000D+00 0.000000000000000D+00 -.000000000000000D+00
 0.906167196466128D+03 0.000000000000000D+00 0.000000000000000D+00 0.906167196466128D+03
 0.186842319715233D+04 0.000000000000000D+00 0.000000000000000D+00 -.186842319715233D+04
 0.589268652702407D+03 -.205511820595389D+02 -.521256297267957D+03 0.261992081135662D+03
 0.999711102229847D+02 0.307606545150488D+02 0.600852243522627D+02 -.737412423787411D+02
 0.796873889371451D+03 0.379875797418594D+03 0.579957920855302D+03 -.392875532624222D+03
 0.287946763256882D+03 -.117194193923156D+03 -.144361968974379D+03 0.204624693867301D+03
 0.100052997806473D+04 -.272891075950948D+03 0.255751210347711D+02 -.962256000686202D+03
0.849095504469D-03 0.000000000000D+00 0.000000000000D+00 0.168835026319D-04 0.000000000000D+00  7 -2 2 24 -11 11 -24 21 0 0.77783089D-01 0.23370763D+00 0.54003147D+06 0.54003147D+06 0.54003147D+06 0.10661544D+01  1  2  2  1  7  1       -2 0.196494166348D-02 0.100000000000D+01
-.453931805244D-04 0.000000000000D+00 -.326075030914D-05 0.168835026319D-04 0.000000000000D+00  7 -2 2 24 -11 11 -24 21 2 0.77783089D-01 0.23370763D+00 0.54003147D+06 0.54003147D+06 0.54003147D+06 0.10661544D+01  1  2  3  1  7  1       -2 -.119405391551D-03 0.100000000000D+01
0.521900121173D-04 0.000000000000D+00 0.000000000000D+00 0.168835026319D-04 0.000000000000D+00  7 -2 2 24 -11 11 -24 21 2 0.77783089D-01 0.23370763D+00 0.54003147D+06 0.54003147D+06 0.54003147D+06 0.10661544D+01  1  2 15  1  7  1       -2 0.137284251950D-03 0.100000000000D+01
  </mgrwgt>
  </event>
  <event>
  8     66 0.27011060E-05 0.17160807E+03 0.75467711E-02 0.10434500E+00
       -2 -1    0    0    0  501 0.00000000E+00 0.00000000E+00 0.34483721E+02 0.34485206E+02 0.32000000E+00 0.0000E+00 0.9000E+01
        2 -1    0    0  501    0 0.00000000E+00 0.00000000E+00 -.22492308E+04 0.22492308E+04 0.32000000E+00 0.0000E+00 0.9000E+01
       25  2    1    2    0    0 0.70994902E+02 -.16504831E+03 -.12554876E+04 0.13035897E+04 0.30135646E+03 0.0000E+00 0.0000E+00
       23  2    1    2    0    0 -.70994902E+02 0.16504831E+03 -.95925950E+03 0.98012637E+03 0.90485886E+02 0.0000E+00 0.0000E+00
       24  1    3    3    0    0 -.77333465E+01 -.13043674E+03 -.10885334E+04 0.10992933E+04 0.80419002E+02 0.0000E+00 0.9000E+01
      -13  1    4    4    0    0 -.43400007E+02 0.88043292E+02 -.29622077E+03 0.31206080E+03 0.10565837E+00 0.0000E+00 0.9000E+01
       13  1    4    4    0    0 -.27594895E+02 0.77005014E+02 -.66303872E+03 0.66806557E+03 0.10565837E+00 0.0000E+00 0.9000E+01
      -24  1    3    3    0    0 0.78728249E+02 -.34611563E+02 -.16695423E+03 0.20429642E+03 0.80419002E+02 0.0000E+00 0.9000E+01
#aMCatNLO 1  0  0  1  2 0.95244021D+01 0.00000000D+00  -5  7  0 0.00000000D+00 0.00000000D+00 0.00000000D+00 0.00000000D+00 0.00000000D+00
  <mgrwgt>
 0.1577153391D-03   11    2    0
 0.278502368439455D+03 0.000000000000000D+00 0.000000000000000D+00 0.278502368439455D+03
 0.278502368439455D+03 0.000000000000000D+00 0.000000000000000D+00 -.278502368439455D+03
 0.178898881870348D+03 -.773334206599792D+01 -.130436743316856D+03 -.920002467033264D+02
 0.101622380794013D+03 -.434000302080911D+02 0.880433105006164D+02 0.263043937826386D+02
 0.102708255335450D+03 -.275948753528713D+02 0.770050029586750D+02 -.621106922167666D+02
 0.173775218879101D+03 0.787282476269604D+02 -.346115701424349D+02 0.127806545137454D+03
 0.000000000000000D+00 0.000000000000000D+00 0.000000000000000D+00 0.000000000000000D+00
 0.285978533809483D+03 0.000000000000000D+00 0.000000000000000D+00 0.285978533809483D+03
 0.281593138072042D+03 0.000000000000000D+00 0.000000000000000D+00 -.281593138072042D+03
 0.179451608985476D+03 -.107481089746606D+02 -.130981284056545D+03 -.920002467033264D+02
 0.102099933316031D+03 -.451139257009321D+02 0.877337389988399D+02 0.263043937826386D+02
 0.102953562318192D+03 -.293250876954214D+02 0.766924842342178D+02 -.621106922167666D+02
 0.172581056706692D+03 0.758143868540898D+02 -.351378847626630D+02 0.127806545137454D+03
 0.104855105551348D+02 0.937273551692429D+01 0.169294558615052D+01 0.438539573744057D+01
0.370772241130D-05 0.000000000000D+00 0.000000000000D+00 0.163066400088D-06 0.000000000000D+00  7 -2 2 24 -13 13 -24 21 0 0.53053038D-02 0.34603563D+00 0.50879932D+05 0.50879932D+05 0.50879932D+05 0.11466296D+01  1  2  2  1  7  1       -2 0.388014388610D-03 0.100000000000D+01
-.194854000586D-06 0.000000000000D+00 -.142386303251D-07 0.163066400088D-06 0.000000000000D+00  7 -2 2 24 -13 13 -24 21 2 0.53053038D-02 0.34603563D+00 0.50879932D+05 0.50879932D+05 0.50879932D+05 0.11466296D+01  1  2  3  1  7  1       -2 -.268099627547D-04 0.100000000000D+01
0.236573532473D-06 0.000000000000D+00 0.000000000000D+00 0.163066400088D-06 0.000000000000D+00  7 -2 2 24 -13 13 -24 21 2 0.53053038D-02 0.34603563D+00 0.50879932D+05 0.50879932D+05 0.50879932D+05 0.11466296D+01  1  2 15  1  7  1       -2 0.325501533214D-04 0.100000000000D+01
0.609839743918D-05 0.000000000000D+00 0.000000000000D+00 0.163066400088D-06 0.000000000000D+00  7 -2 2 24 -13 13 -24 21 2 0.54765932D-02 0.34603563D+00 0.52976514D+05 0.52976514D+05 0.52976514D+05 0.11450930D+01  1  2 12  1  7  1       -2 0.797837710296D-03 0.100000000000D+01
-.584169197548D-05 0.000000000000D+00 0.000000000000D+00 0.163066400088D-06 0.000000000000D+00  7 -2 2 24 -13 13 -24 21 2 0.53053038D-02 0.34603563D+00 0.50879932D+05 0.50879932D+05 0.50879932D+05 0.11466296D+01  1  2  4  1  7  1       -2 -.803758423314D-03 0.100000000000D+01
-.855218009384D-04 0.000000000000D+00 -.121394799140D-04 0.163066400088D-06 0.000000000000D+00  7 -2 2 24 -13 13 -24 21 2 0.55193300D-02 0.34603563D+00 0.50879932D+05 0.50879932D+05 0.50879932D+05 0.11466296D+01  1  2  5  1  7  1       -2 -.110971261391D-01 0.100000000000D+01
0.859441745512D-04 0.000000000000D+00 0.121299920622D-04 0.163066400088D-06 0.000000000000D+00  7 -2 2 24 -13 13 -24 21 2 0.53053038D-02 0.34603563D+00 0.50879932D+05 0.50879932D+05 0.50879932D+05 0.11466296D+01  1  2  6  1  7  1       -2 0.118250593356D-01 0.100000000000D+01
0.177634676537D-09 0.000000000000D+00 0.000000000000D+00 0.163066400088D-06 0.125726922201D-07  7 -2 2 24 -13 13 -24 21 2 0.54477203D-02 0.34987587D+00 0.52976514D+05 0.52976514D+05 0.52976514D+05 0.11450930D+01  1  2 11  1  7  1       -2 0.227001636942D-07 0.100000000000D+01
0.136624113036D-06 0.000000000000D+00 0.000000000000D+00 0.163066400088D-06 0.000000000000D+00  7 21 2 24 -13 13 -24 2 2 0.54765932D-02 0.34603563D+00 0.52976514D+05 0.52976514D+05 0.52976514D+05 0.11450930D+01  1  2 12  3  7  1       -2 0.291069216164D-03 0.100000000000D+01
-.591430395154D-06 0.000000000000D+00 -.849126789027D-07 0.163066400088D-06 0.000000000000D+00  7 21 2 24 -13 13 -24 2 2 0.55193300D-02 0.34603563D+00 0.50879932D+05 0.50879932D+05 0.50879932D+05 0.11466296D+01  1  2  5  3  7  1       -2 -.124914590130D-02 0.100000000000D+01
0.108585529378D-11 0.000000000000D+00 0.000000000000D+00 0.163066400088D-06 0.605689355442D-10  7 21 2 24 -13 13 -24 2 2 0.54477203D-02 0.34987587D+00 0.52976514D+05 0.52976514D+05 0.52976514D+05 0.11450930D+01  1  2 11  3  7  1       -2 0.226142533516D-08 0.100000000000D+01
  </mgrwgt>
  </event>
  <event>
  8     66 0.27011060E-05 0.25245394E+03 0.75467711E-02 0.96242782E-01
       -2 -1    0    0    0  501 0.00000000E+00 0.00000000E+00 0.77134677E+02 0.77135340E+02 0.32000000E+00 0.0000E+00 0.9000E+01
        2 -1    0    0  501    0 0.00000000E+00 0.00000000E+00 -.99999537E+03 0.99999542E+03 0.32000000E+00 0.0000E+00 0.9000E+01
       25  2    1    2    0    0 -.16056845E+03 -.47554643E+02 -.42947410E+03 0.54792598E+03 0.29619455E+03 0.0000E+00 0.0000E+00
       23  2    1    2    0    0 0.16056845E+03 0.47554643E+02 -.49338659E+03 0.52920478E+03 0.92648246E+02 0.0000E+00 0.0000E+00
       24  1    3    3    0    0 -.14694810E+03 0.77635703E+02 -.18473072E+03 0.26117753E+03 0.80419002E+02 0.0000E+00 0.9000E+01
      -13  1    4    4    0    0 0.56836914E+02 0.34045642E+02 -.85768857E+02 0.10837827E+03 0.10565837E+00 0.0000E+00 0.9000E+01
       13  1    4    4    0    0 0.10373153E+03 0.13509001E+02 -.40761774E+03 0.42082651E+03 0.10565837E+00 0.0000E+00 0.9000E+01
      -24  1    3    3    0    0 -.13620344E+02 -.12519035E+03 -.24474338E+03 0.28674845E+03 0.80419002E+02 0.0000E+00 0.9000E+01
#aMCatNLO 1  0  0  2  2 0.28776469D+03 0.00000000D+00  -5  7  0 0.00000000D+00 0.00000000D+00 0.00000000D+00 0.00000000D+00 0.00000000D+00
  <mgrwgt>
 0.1687654659D-02    5    2    0
 0.277731353258643D+03 0.000000000000000D+00 0.000000000000000D+00 0.277731353258643D+03
 0.277731353258643D+03 0.000000000000000D+00 0.000000000000000D+00 -.277731353258643D+03
 0.199548289873989D+03 -.146948105491993D+03 0.776357019651705D+02 0.757050600023050D+02
 0.676639568031209D+02 0.568368537099988D+02 0.340456658840353D+02 0.137432072354103D+02
 0.138822726589322D+03 0.103731598115313D+03 0.135089787584249D+02 -.912634234676820D+02
 0.149427733250853D+03 -.136203463333191D+02 -.125190346607631D+03 0.181515622996665D+01
 0.000000000000000D+00 0.000000000000000D+00 -.000000000000000D+00 -.000000000000000D+00
 0.364232072046069D+03 0.000000000000000D+00 0.000000000000000D+00 0.364232072046069D+03
 0.715215192079631D+03 0.000000000000000D+00 0.000000000000000D+00 -.715215192079631D+03
 0.290175617643211D+03 -.190910007628628D+03 0.188565070990184D+03 0.757050600023050D+02
 0.817537474630240D+02 0.434238134405724D+02 0.678908823437347D+02 0.137432072354103D+02
 0.143053104085378D+03 0.784279576505701D+02 0.773578282023286D+02 -.912634234676820D+02
 0.110595133668568D+03 -.369622735975043D+02 -.662915015304519D+02 0.181515622996665D+01
 0.453869661265519D+03 0.106020510134990D+03 -.267522280005795D+03 -.350983120033563D+03
0.118670680283D-04 0.000000000000D+00 0.000000000000D+00 0.130258732981D-07 0.000000000000D+00  7 -2 2 24 -13 13 -24 21 0 0.11866928D-01 0.15384550D+00 0.63732994D+05 0.63732994D+05 0.63732994D+05 0.11381387D+01  1  2  2  2  7  2        2 0.175005826192D-02 0.100000000000D+01
-.651982261407D-06 0.000000000000D+00 -.455726658995D-07 0.130258732981D-07 0.000000000000D+00  7 -2 2 24 -13 13 -24 21 2 0.11866928D-01 0.15384550D+00 0.63732994D+05 0.63732994D+05 0.63732994D+05 0.11381387D+01  1  2  3  2  7  2        2 -.124547574084D-03 0.100000000000D+01
0.719256370621D-06 0.000000000000D+00 0.000000000000D+00 0.130258732981D-07 0.000000000000D+00  7 -2 2 24 -13 13 -24 21 2 0.11866928D-01 0.15384550D+00 0.63732994D+05 0.63732994D+05 0.63732994D+05 0.11381387D+01  1  2 15  2  7  2        2 0.137398885534D-03 0.100000000000D+01
-.386819253045D-05 0.000000000000D+00 -.354179754551D-05 0.130258732981D-07 0.000000000000D+00  7 -2 2 24 -13 13 -24 21 2 0.11866928D-01 0.43131201D+00 0.63732994D+05 0.63732994D+05 0.63732994D+05 0.11381387D+01  1  2  5  2  7  2        2 -.748077068197D-04 0.100000000000D+01
-.250635318211D-06 0.000000000000D+00 -.410127457850D-06 0.130258732981D-07 0.000000000000D+00  7 -2 21 24 -13 13 -24 -2 2 0.11866928D-01 0.43131201D+00 0.63732994D+05 0.63732994D+05 0.63732994D+05 0.11381387D+01  1  2  5  4  7  2        2 -.447207520892D-06 0.100000000000D+01
  </mgrwgt>
  </event>
  <event>
  8     66 0.27011060E-05 0.23399851E+03 0.75467711E-02 0.94303369E-01
       -2 -1    0    0    0  501 0.00000000E+00 0.00000000E+00 0.57854754E+03 0.57854763E+03 0.32000000E+00 0.0000E+00 0.9000E+01
        2 -1    0    0  501    0 0.00000000E+00 0.00000000E+00 -.12429307E+03 0.12429348E+03 0.32000000E+00 0.0000E+00 0.9000E+01
       25  2    1    2    0    0 0.13991200E+03 0.87311360E+02 0.26429183E+03 0.43506512E+03 0.30369861E+03 0.0000E+00 0.0000E+00
       23  2    1    2    0    0 -.13991200E+03 -.87311360E+02 0.18996264E+03 0.26777600E+03 0.91758046E+02 0.0000E+00 0.0000E+00
       24  1    3    3    0    0 0.17078401E+03 0.60990654E+02 0.52941711E+02 0.20532189E+03 0.80419002E+02 0.0000E+00 0.9000E+01
      -11  1    4    4    0    0 -.43778475E+02 -.68949897E+02 0.12832846E+03 0.15211455E+03 0.51099893E-03 0.0000E+00 0.9000E+01
       11  1    4    4    0    0 -.96133522E+02 -.18361463E+02 0.61634178E+02 0.11566144E+03 0.51099893E-03 0.0000E+00 0.9000E+01
      -24  1    3    3    0    0 -.30872013E+02 0.26320706E+02 0.21135012E+03 0.22974323E+03 0.80419002E+02 0.0000E+00 0.9000E+01
#aMCatNLO 1  0  0  2  2 0.40779283D+03 0.00000000D+00  -5  7  0 0.00000000D+00 0.00000000D+00 0.00000000D+00 0.00000000D+00 0.00000000D+00
  <mgrwgt>
 0.4523976759D-03    5    2    0
 0.268159702216365D+03 0.000000000000000D+00 0.000000000000000D+00 0.268159702216365D+03
 0.268159702216365D+03 0.000000000000000D+00 0.000000000000000D+00 -.268159702216365D+03
 0.224231410241886D+03 0.170784009492721D+03 0.609906536196638D+02 -.104524981020476D+03
 0.906522939661813D+02 -.437784747816072D+02 -.689498971366661D+02 0.393344026517538D+02
 0.993699188807566D+02 -.961335218110715D+02 -.183614628298821D+02 -.171925403973712D+02
 0.122065781343905D+03 -.308720129000426D+02 0.263207063468844D+02 0.823831187660934D+02
 0.000000000000000D+00 0.000000000000000D+00 -.000000000000000D+00 -.000000000000000D+00
 0.397549400732939D+03 0.000000000000000D+00 0.000000000000000D+00 0.397549400732939D+03
 0.102204382667377D+04 0.000000000000000D+00 0.000000000000000D+00 -.102204382667377D+04
 0.307425638003207D+03 0.143079308151176D+03 0.238004510186169D+03 -.104524981020476D+03
 0.672323898951953D+02 -.520058612654732D+02 -.163825948215055D+02 0.393344026517538D+02
 0.122341856841170D+03 -.107686944361482D+03 0.554569067305151D+02 -.171925403973712D+02
 0.176745984819606D+03 -.464431235741616D+02 0.125809320841219D+03 0.823831187660934D+02
 0.745847357847530D+03 0.630566210499410D+02 -.402888142936398D+03 -.624494425940829D+03
0.108092205286D-04 0.000000000000D+00 0.000000000000D+00 0.134948517542D-07 0.000000000000D+00  7 -2 2 24 -11 11 -24 21 0 0.89007353D-01 0.19122049D-01 0.54755303D+05 0.54755303D+05 0.54755303D+05 0.11438409D+01  1  2  2  2  7  2        2 0.441774851862D-03 0.100000000000D+01
-.586954400321D-06 0.000000000000D+00 -.415102529630D-07 0.134948517542D-07 0.000000000000D+00  7 -2 2 24 -11 11 -24 21 2 0.89007353D-01 0.19122049D-01 0.54755303D+05 0.54755303D+05 0.54755303D+05 0.11438409D+01  1  2  3  2  7  2        2 -.313864531625D-04 0.100000000000D+01
0.692895336772D-06 0.000000000000D+00 0.000000000000D+00 0.134948517542D-07 0.000000000000D+00  7 -2 2 24 -11 11 -24 21 2 0.89007353D-01 0.19122049D-01 0.54755303D+05 0.54755303D+05 0.54755303D+05 0.11438409D+01  1  2 15  2  7  2        2 0.370514762683D-04 0.100000000000D+01
0.663959604626D-06 0.000000000000D+00 -.510184550786D-05 0.134948517542D-07 0.000000000000D+00  7 -2 2 24 -11 11 -24 21 2 0.89007353D-01 0.99985106D-01 0.54755303D+05 0.54755303D+05 0.54755303D+05 0.11438409D+01  1  2  5  2  7  2        2 0.561515545247D-05 0.100000000000D+01
-.545938335042D-07 0.000000000000D+00 -.103093899629D-05 0.134948517542D-07 0.000000000000D+00  7 -2 21 24 -11 11 -24 -2 2 0.89007353D-01 0.99985106D-01 0.54755303D+05 0.54755303D+05 0.54755303D+05 0.11438409D+01  1  2  5  4  7  2        2 -.657354530115D-06 0.100000000000D+01
  </mgrwgt>
  </event>
  <event>
  8     66 0.27011060E-05 0.40048734E+03 0.75467711E-02 0.94835441E-01
       -2 -1    0    0    0  501 0.00000000E+00 0.00000000E+00 0.37653945E+03 0.37653959E+03 0.32000000E+00 0.0000E+00 0.9000E+01
        2 -1    0    0  501    0 0.00000000E+00 0.00000000E+00 -.11217455E+04 0.11217456E+04 0.32000000E+00 0.0000E+00 0.9000E+01
       25  2    1    2    0    0 -.12811611E+03 -.32345443E+03 -.97006979E+03 0.10734837E+04 0.30049168E+03 0.0000E+00 0.0000E+00
       23  2    1    2    0    0 0.12811611E+03 0.32345443E+03 0.22486372E+03 0.42480150E+03 0.94106895E+02 0.0000E+00 0.0000E+00
       24  1    3    3    0    0 -.17243366E+03 -.12835958E+03 -.63323136E+03 0.67354192E+03 0.80419002E+02 0.0000E+00 0.9000E+01
      -11  1    4    4    0    0 0.33915192E+02 0.18684376E+03 0.86172709E+02 0.20853433E+03 0.51099893E-03 0.0000E+00 0.9000E+01
       11  1    4    4    0    0 0.94200922E+02 0.13661067E+03 0.13869101E+03 0.21626717E+03 0.51099893E-03 0.0000E+00 0.9000E+01
      -24  1    3    3    0    0 0.44317546E+02 -.19509485E+03 -.33683844E+03 0.39994174E+03 0.80419002E+02 0.0000E+00 0.9000E+01
#aMCatNLO 1  0  0  2  2 0.18049648D+03 0.00000000D+00  -5  7  0 0.00000000D+00 0.00000000D+00 0.00000000D+00 0.00000000D+00 0.00000000D+00
  <mgrwgt>
 0.1300142008D-02    3    2    0
 0.649908900877214D+03 0.000000000000000D+00 0.000000000000000D+00 0.649908900877214D+03
 0.649908900877214D+03 0.000000000000000D+00 0.000000000000000D+00 -.649908900877214D+03
 0.413342552366384D+03 -.172433660451249D+03 -.128359578245615D+03 -.343766346605332D+03
 0.289779317141974D+03 0.339151924084158D+02 0.186843758764493D+03 0.218886322500801D+03
 0.328802445294510D+03 0.942009220377752D+02 0.136610673509866D+03 0.283856932629914D+03
 0.267893486951560D+03 0.443175460050581D+02 -.195094854028744D+03 -.158976908525382D+03
 0.000000000000000D+00 0.000000000000000D+00 0.000000000000000D+00 0.000000000000000D+00
 0.163928571302981D+04 0.000000000000000D+00 0.000000000000000D+00 0.163928571302981D+04
 0.664429462571747D+03 0.000000000000000D+00 0.000000000000000D+00 -.664429462571747D+03
 0.440376452728404D+03 -.186644776888608D+03 -.185614197638828D+03 -.343766346605332D+03
 0.266243769855858D+03 0.246595605388772D+02 0.149554100188407D+03 0.218886322500801D+03
 0.310394748105662D+03 0.835607632880768D+02 0.937429479386476D+02 0.283856932629914D+03
 0.295275125549650D+03 0.349429687983200D+02 -.232863726890348D+03 -.158976908525382D+03
 0.991425079361979D+03 0.434814842633342D+02 0.175180876402122D+03 0.974856250458061D+03
0.165384995918D-03 0.000000000000D+00 0.000000000000D+00 0.756356779692D-06 0.000000000000D+00  7 -2 2 24 -11 11 -24 21 0 0.57929160D-01 0.17257625D+00 0.16039011D+06 0.16039011D+06 0.16039011D+06 0.11052639D+01  1  2  2  2  7  2        2 0.127493948479D-02 0.100000000000D+01
-.656948000104D-05 0.000000000000D+00 -.635121931196D-06 0.756356779692D-06 0.000000000000D+00  7 -2 2 24 -11 11 -24 21 2 0.57929160D-01 0.17257625D+00 0.16039011D+06 0.16039011D+06 0.16039011D+06 0.11052639D+01  1  2  3  2  7  2        2 -.618666219207D-04 0.100000000000D+01
0.924568024908D-05 0.000000000000D+00 0.000000000000D+00 0.756356779692D-06 0.000000000000D+00  7 -2 2 24 -11 11 -24 21 2 0.57929160D-01 0.17257625D+00 0.16039011D+06 0.16039011D+06 0.16039011D+06 0.11052639D+01  1  2 15  2  7  2        2 0.870691446323D-04 0.100000000000D+01
  </mgrwgt>
  </event>
  <event>
  8     66 0.27011060E-05 0.13391736E+03 0.75467711E-02 0.10572143E+00
       -2 -1    0    0    0  501 0.00000000E+00 0.00000000E+00 0.33973002E+02 0.33974509E+02 0.32000000E+00 0.0000E+00 0.9000E+01
        2 -1    0    0  501    0 0.00000000E+00 0.00000000E+00 -.13658240E+04 0.13658241E+04 0.32000000E+00 0.0000E+00 0.9000E+01
       25  2    1    2    0    0 -.47616586E+02 -.64077829E+02 -.95609876E+03 0.10049395E+04 0.29900708E+03 0.0000E+00 0.0000E+00
       23  2    1    2    0    0 0.47616586E+02 0.64077829E+02 -.37575225E+03 0.39485907E+03 0.91381741E+02 0.0000E+00 0.0000E+00
       24  1    3    3    0    0 -.48333791E+02 -.15748454E+03 -.50254570E+03 0.53493638E+03 0.80419002E+02 0.0000E+00 0.9000E+01
      -11  1    4    4    0    0 -.10778061E+02 -.67001228E+01 -.62729633E+01 0.14156564E+02 0.51099893E-03 0.0000E+00 0.9000E+01
       11  1    4    4    0    0 0.58394646E+02 0.70777952E+02 -.36947929E+03 0.38070250E+03 0.51099893E-03 0.0000E+00 0.9000E+01
      -24  1    3    3    0    0 0.71720538E+00 0.93406713E+02 -.45355306E+03 0.47000311E+03 0.80419002E+02 0.0000E+00 0.9000E+01
#aMCatNLO 1  0  0  2  1 0.64073928D+01 0.00000000D+00  -5  7  0 0.00000000D+00 0.00000000D+00 0.00000000D+00 0.00000000D+00 0.00000000D+00
  <mgrwgt>
 0.1996782621D-02   11    2    0
 0.215411753059853D+03 0.000000000000000D+00 0.000000000000000D+00 0.215411753059853D+03
 0.215411753059853D+03 0.000000000000000D+00 0.000000000000000D+00 -.215411753059853D+03
 0.184500561843874D+03 -.483337914486492D+02 -.157484542214932D+03 0.208735462700169D+02
 0.266041314773410D+02 -.107780603501188D+02 -.670012258635557D+01 0.233820782669259D+02
 0.947382273523939D+02 0.583946465144719D+02 0.707779517496094D+02 -.235770762914685D+02
 0.124980585446097D+03 0.717205284296149D+00 0.934067130516778D+02 -.206785482454743D+02
 0.000000000000000D+00 -.000000000000000D+00 -.000000000000000D+00 -.000000000000000D+00
 0.218480474511839D+03 0.000000000000000D+00 0.000000000000000D+00 0.218480474511839D+03
 0.218806350027200D+03 0.000000000000000D+00 0.000000000000000D+00 -.218806350027200D+03
 0.182678257926995D+03 -.460111688476109D+02 -.156049342748572D+03 0.208735462700169D+02
 0.264183301584138D+02 -.104426620070588D+02 -.649287259112929D+01 0.233820782669259D+02
 0.960408394100984D+02 0.596014366352749D+02 0.715236538437034D+02 -.235770762914685D+02
 0.125733722742201D+03 0.230312115756254D+01 0.943866852667012D+02 -.206785482454743D+02
 0.641567430133076D+01 -.545072693816775D+01 -.336812377070330D+01 -.325875515360935D+00
0.198279014667D-05 0.000000000000D+00 0.000000000000D+00 0.120751723025D-06 0.000000000000D+00  7 -2 2 24 -11 11 -24 21 0 0.52267345D-02 0.21012689D+00 0.42234870D+05 0.42234870D+05 0.42234870D+05 0.11537991D+01  1  2  2  2  7  2        2 0.625139158368D-03 0.100000000000D+01
-.109858514065D-06 0.000000000000D+00 -.761443624386D-08 0.120751723025D-06 0.000000000000D+00  7 -2 2 24 -11 11 -24 21 2 0.52267345D-02 0.21012689D+00 0.42234870D+05 0.42234870D+05 0.42234870D+05 0.11537991D+01  1  2  3  2  7  2        2 -.461098856261D-04 0.100000000000D+01
0.125565773894D-06 0.000000000000D+00 0.000000000000D+00 0.120751723025D-06 0.000000000000D+00  7 -2 2 24 -11 11 -24 21 2 0.52267345D-02 0.21012689D+00 0.42234870D+05 0.42234870D+05 0.42234870D+05 0.11537991D+01  1  2 15  2  7  2        2 0.527025467444D-04 0.100000000000D+01
0.163480635124D-05 0.000000000000D+00 0.000000000000D+00 0.120751723025D-06 0.000000000000D+00  7 -2 2 24 -11 11 -24 21 2 0.52267345D-02 0.21491259D+00 0.43536770D+05 0.43536770D+05 0.43536770D+05 0.11526208D+01  1  2 12  2  7  2        2 0.659016873644D-03 0.100000000000D+01
-.248521213885D-05 0.000000000000D+00 0.000000000000D+00 0.120751723025D-06 0.000000000000D+00  7 -2 2 24 -11 11 -24 21 2 0.52267345D-02 0.21012689D+00 0.42234870D+05 0.42234870D+05 0.42234870D+05 0.11537991D+01  1  2  4  2  7  2        2 -.104309482477D-02 0.100000000000D+01
-.708569886535D-04 0.000000000000D+00 -.923749241929D-05 0.120751723025D-06 0.000000000000D+00  7 -2 2 24 -11 11 -24 21 2 0.52267345D-02 0.21537209D+00 0.42234870D+05 0.42234870D+05 0.42234870D+05 0.11537991D+01  1  2  5  2  7  2        2 -.285111846880D-01 0.100000000000D+01
0.710659500447D-04 0.000000000000D+00 0.923468540102D-05 0.120751723025D-06 0.000000000000D+00  7 -2 2 24 -11 11 -24 21 2 0.52267345D-02 0.21012689D+00 0.42234870D+05 0.42234870D+05 0.42234870D+05 0.11537991D+01  1  2  6  2  7  2        2 0.298278459012D-01 0.100000000000D+01
0.119789602979D-05 0.000000000000D+00 0.000000000000D+00 0.120751723025D-06 0.208462287610D-07  7 -2 2 24 -11 11 -24 21 2 0.53011938D-02 0.21343821D+00 0.43536770D+05 0.43536770D+05 0.43536770D+05 0.11526208D+01  1  2 11  2  7  2        2 0.478538257026D-03 0.100000000000D+01
0.453860867630D-07 0.000000000000D+00 0.000000000000D+00 0.120751723025D-06 0.000000000000D+00  7 -2 21 24 -11 11 -24 -2 2 0.52267345D-02 0.21491259D+00 0.43536770D+05 0.43536770D+05 0.43536770D+05 0.11526208D+01  1  2 12  4  7  2        2 0.802353788636D-05 0.100000000000D+01
-.313740523545D-06 0.000000000000D+00 -.411679064860D-07 0.120751723025D-06 0.000000000000D+00  7 -2 21 24 -11 11 -24 -2 2 0.52267345D-02 0.21537209D+00 0.42234870D+05 0.42234870D+05 0.42234870D+05 0.11537991D+01  1  2  5  4  7  2        2 -.552471118262D-04 0.100000000000D+01
0.650177526919D-08 0.000000000000D+00 0.000000000000D+00 0.120751723025D-06 0.608159728397D-10  7 -2 21 24 -11 11 -24 -2 2 0.53011938D-02 0.21343821D+00 0.43536770D+05 0.43536770D+05 0.43536770D+05 0.11526208D+01  1  2 11  4  7  2        2 0.115285625667D-05 0.100000000000D+01
  </mgrwgt>
  </event>
  <event>
  8     66 0.27011060E-05 0.31067726E+03 0.75467711E-02 0.93091497E-01
       -2 -1    0    0    0  501 0.00000000E+00 0.00000000E+00 0.15118044E+03 0.15118078E+03 0.32000000E+00 0.0000E+00 0.9000E+01
        2 -1    0    0  501    0 0.00000000E+00 0.00000000E+00 -.77613957E+03 0.77613964E+03 0.32000000E+00 0.0000E+00 0.9000E+01
       25  2    1    2    0    0 -.45696162E+02 0.24737302E+03 -.24123428E+03 0.45953535E+03 0.29949492E+03 0.0000E+00 0.0000E+00
       23  2    1    2    0    0 0.45696162E+02 -.24737302E+03 -.38372484E+03 0.46778507E+03 0.91085473E+02 0.0000E+00 0.0000E+00
       24  1    3    3    0    0 0.37778046E+02 -.80246972E+01 -.13032093E+03 0.15793143E+03 0.80419002E+02 0.0000E+00 0.9000E+01
      -11  1    4    4    0    0 0.31836654E+02 -.15201741E+03 -.15423381E+03 0.21888566E+03 0.51099893E-03 0.0000E+00 0.9000E+01
       11  1    4    4    0    0 0.13859508E+02 -.95355606E+02 -.22949103E+03 0.24889940E+03 0.51099893E-03 0.0000E+00 0.9000E+01
      -24  1    3    3    0    0 -.83474208E+02 0.25539772E+03 -.11091336E+03 0.30160392E+03 0.80419002E+02 0.0000E+00 0.9000E+01
#aMCatNLO 1  0  0  1  1 0.40704557D+03 0.00000000D+00  -5  7  0 0.00000000D+00 0.00000000D+00 0.00000000D+00 0.00000000D+00 0.00000000D+00
  <mgrwgt>
 0.9812008629D-03    3    2    0
 0.342545342115925D+03 0.000000000000000D+00 0.000000000000000D+00 0.342545342115925D+03
 0.342545342115925D+03 0.000000000000000D+00 0.000000000000000D+00 -.342545342115925D+03
 0.948893157793316D+02 0.377780458711652D+02 -.802469718866635D+01 -.323293949817423D+02
 0.155581328971622D+03 0.318366544560297D+02 -.152017412581082D+03 -.909305393014449D+01
 0.127555348422159D+03 0.138595080118571D+02 -.953556063536988D+02 -.835798377940881D+02
 0.307064691058737D+03 -.834742083390520D+02 0.255397716123447D+03 0.125002286705975D+03
 0.000000000000000D+00 -.000000000000000D+00 0.000000000000000D+00 -.000000000000000D+00
 0.481149832149497D+03 0.000000000000000D+00 0.000000000000000D+00 0.481149832149497D+03
 0.899284276912622D+03 0.000000000000000D+00 0.000000000000000D+00 -.899284276912622D+03
 0.133309229767436D+03 0.986407739444403D+02 -.229987548048344D+02 -.323293949817423D+02
 0.220916869558845D+03 0.132252314084069D+03 -.176722678355983D+03 -.909305393014449D+01
 0.169902629023984D+03 0.931943869925851D+02 -.114874367448320D+03 -.835798377940881D+02
 0.272762317279143D+03 0.711711836964400D+02 0.217350308724515D+03 0.125002286705975D+03
 0.583543063432711D+03 -.395258658717534D+03 0.972454918846224D+02 -.418134444763126D+03
0.140102022872D-04 0.000000000000D+00 0.000000000000D+00 0.142226296238D-05 0.000000000000D+00  7 -2 2 24 -11 11 -24 21 0 0.23258561D-01 0.11940612D+00 0.96520358D+05 0.96520358D+05 0.96520358D+05 0.11229864D+01  1  2  2  1  7  1       -2 0.969869751234D-03 0.100000000000D+01
-.769320703548D-06 0.000000000000D+00 -.538028657539D-07 0.142226296238D-05 0.000000000000D+00  7 -2 2 24 -11 11 -24 21 2 0.23258561D-01 0.11940612D+00 0.96520358D+05 0.96520358D+05 0.96520358D+05 0.11229864D+01  1  2  3  1  7  1       -2 -.671622820048D-04 0.100000000000D+01
0.899114667052D-06 0.000000000000D+00 0.000000000000D+00 0.142226296238D-05 0.000000000000D+00  7 -2 2 24 -11 11 -24 21 2 0.23258561D-01 0.11940612D+00 0.96520358D+05 0.96520358D+05 0.96520358D+05 0.11229864D+01  1  2 15  1  7  1       -2 0.784933936455D-04 0.100000000000D+01
  </mgrwgt>
  </event>
  <event>
  8     66 0.27011060E-05 0.21232038E+03 0.75467711E-02 0.96178856E-01
       -2 -1    0    0    0  501 0.00000000E+00 0.00000000E+00 0.11563178E+03 0.11563223E+03 0.32000000E+00 0.0000E+00 0.9000E+01
        2 -1    0    0  501    0 0.00000000E+00 0.00000000E+00 -.44778059E+03 0.44778071E+03 0.32000000E+00 0.0000E+00 0.9000E+01
       25  2    1    2    0    0 0.10079571E+03 -.49814177E+01 -.26676724E+03 0.41299723E+03 0.29869274E+03 0.0000E+00 0.0000E+00
       23  2    1    2    0    0 -.10079571E+03 0.49814177E+01 -.65381564E+02 0.15041571E+03 0.90363411E+02 0.0000E+00 0.0000E+00
       24  1    3    3    0    0 0.45110790E+02 0.11373669E+03 -.19339643E+03 0.24257043E+03 0.80419002E+02 0.0000E+00 0.9000E+01
      -13  1    4    4    0    0 -.42570067E+02 -.33870162E+02 -.58806245E+02 0.80109825E+02 0.10565837E+00 0.0000E+00 0.9000E+01
       13  1    4    4    0    0 -.58225646E+02 0.38851580E+02 -.65753193E+01 0.70305882E+02 0.10565837E+00 0.0000E+00 0.9000E+01
      -24  1    3    3    0    0 0.55684923E+02 -.11871811E+03 -.73370819E+02 0.17042680E+03 0.80419002E+02 0.0000E+00 0.9000E+01
#aMCatNLO 1  0  0  2  1 0.33284951D+03 0.00000000D+00  -5  7  0 0.00000000D+00 0.00000000D+00 0.00000000D+00 0.00000000D+00 0.00000000D+00
  <mgrwgt>
 0.6276167721D-03    3    2    0
 0.227547413852519D+03 0.000000000000000D+00 0.000000000000000D+00 0.227547413852519D+03
 0.227547413852519D+03 0.000000000000000D+00 0.000000000000000D+00 -.227547413852519D+03
 0.159155669378314D+03 0.451107959181126D+02 0.113736686709250D+03 -.623882467210365D+02
 0.562574451219937D+02 -.425700500272758D+02 -.338702607041447D+02 -.143351460460868D+02
 0.822406126478837D+02 -.582256740208145D+02 0.388516789576881D+02 0.431721703842861D+02
 0.157441100556846D+03 0.556849281299777D+02 -.118718104962794D+03 0.335512223828371D+02
 0.000000000000000D+00 -.000000000000000D+00 -.000000000000000D+00 0.000000000000000D+00
 0.472234171225420D+03 0.000000000000000D+00 0.000000000000000D+00 0.472234171225420D+03
 0.427441999680592D+03 0.000000000000000D+00 0.000000000000000D+00 -.427441999680592D+03
 0.286412609728791D+03 0.883522259548465D+02 0.252718337081394D+03 -.623882467210365D+02
 0.367950081868729D+02 -.335395123113389D+02 -.484534098149448D+01 -.143351460460868D+02
 0.116370783250427D+03 -.389508710715444D+02 0.100802542335975D+03 0.431721703842861D+02
 0.124247900383394D+03 0.830222315185497D+02 -.308536763710441D+02 0.335512223828371D+02
 0.335849869356526D+03 -.988840740905129D+02 -.317821862064830D+03 0.447921715448284D+02
0.306308085349D-05 0.000000000000D+00 0.000000000000D+00 0.375713275869D-07 0.000000000000D+00  7 -2 2 24 -13 13 -24 21 0 0.17789548D-01 0.68889365D-01 0.45079945D+05 0.45079945D+05 0.45079945D+05 0.11512735D+01  1  2  2  2  7  2        2 0.619438681786D-03 0.100000000000D+01
-.169178589626D-06 0.000000000000D+00 -.117630370051D-07 0.375713275869D-07 0.000000000000D+00  7 -2 2 24 -13 13 -24 21 2 0.17789548D-01 0.68889365D-01 0.45079945D+05 0.45079945D+05 0.45079945D+05 0.11512735D+01  1  2  3  2  7  2        2 -.453463468318D-04 0.100000000000D+01
0.199689487976D-06 0.000000000000D+00 0.000000000000D+00 0.375713275869D-07 0.000000000000D+00  7 -2 2 24 -13 13 -24 21 2 0.17789548D-01 0.68889365D-01 0.45079945D+05 0.45079945D+05 0.45079945D+05 0.11512735D+01  1  2 15  2  7  2        2 0.535244371079D-04 0.100000000000D+01
  </mgrwgt>
  </event>
  <event>
  8     66 0.27011060E-05 0.19809344E+03 0.75467711E-02 0.88920390E-01
       -2 -1    0    0    0  501 0.00000000E+00 0.00000000E+00 0.72536579E+03 0.72536586E+03 0.32000000E+00 0.0000E+00 0.9000E+01
        2 -1    0    0  501    0 0.00000000E+00 0.00000000E+00 -.13202725E+04 0.13202726E+04 0.32000000E+00 0.0000E+00 0.9000E+01
       25  2    1    2    0    0 -.11327994E+03 -.83903613E+02 0.68165862E+03 0.75796773E+03 0.29997407E+03 0.0000E+00 0.0000E+00
       23  2    1    2    0    0 0.11327994E+03 0.83903613E+02 -.12765654E+04 0.12876707E+04 0.92760616E+02 0.0000E+00 0.0000E+00
       24  1    3    3    0    0 -.50717320E+02 -.82839429E+02 0.83613730E+02 0.15130462E+03 0.80419002E+02 0.0000E+00 0.9000E+01
      -11  1    4    4    0    0 -.15771108E+02 0.15578547E+02 -.13576839E+03 0.13756625E+03 0.51099893E-03 0.0000E+00 0.9000E+01
       11  1    4    4    0    0 0.12905105E+03 0.68325066E+02 -.11407970E+04 0.11501045E+04 0.51099893E-03 0.0000E+00 0.9000E+01
      -24  1    3    3    0    0 -.62562623E+02 -.10641833E+01 0.59804489E+03 0.60666310E+03 0.80419002E+02 0.0000E+00 0.9000E+01
#aMCatNLO 1  0  0  1  1 0.81824123D+03 0.00000000D+00  -5  7  0 0.00000000D+00 0.00000000D+00 0.00000000D+00 0.00000000D+00 0.00000000D+00
  <mgrwgt>
 0.2346301681D-02    3    2    0
 0.978611588814035D+03 0.000000000000000D+00 0.000000000000000D+00 0.978611588814035D+03
 0.978611588814035D+03 0.000000000000000D+00 0.000000000000000D+00 -.978611588814035D+03
 0.183554401471091D+03 -.507173199890244D+02 -.828394293304301D+02 0.133380601087188D+03
 0.102513237739759D+03 -.157711083588215D+02 0.155785468925967D+02 -.100087686204337D+03
 0.855308716766636D+03 0.129051051011873D+03 0.683250657516902D+02 -.842751750279848D+03
 0.815846821650585D+03 -.625626226640269D+02 -.106418331385685D+01 0.809458835396997D+03
 0.000000000000000D+00 -.000000000000000D+00 0.000000000000000D+00 -.000000000000000D+00
 0.120206640730374D+04 0.000000000000000D+00 0.000000000000000D+00 0.120206640730374D+04
 0.224460629052805D+04 0.000000000000000D+00 0.000000000000000D+00 -.224460629052805D+04
 0.233508602336592D+03 -.504311878611353D+02 -.166509344949025D+03 0.133380601087188D+03
 0.104575800868559D+03 -.156290319177597D+02 -.259670283027612D+02 -.100087686204337D+03
 0.898664746810021D+03 0.130254389967408D+03 -.283551773850188D+03 -.842751750279848D+03
 0.884628063160512D+03 -.613959871850444D+02 -.342208300209184D+03 0.809458835396997D+03
 0.132529548465611D+04 -.279818300346841D+01 0.818236447311159D+03 -.104253988322431D+04
0.128608362207D-02 0.000000000000D+00 0.000000000000D+00 0.195633755310D-04 0.000000000000D+00  7 -2 2 24 -11 11 -24 21 0 0.11159474D+00 0.20311886D+00 0.39241010D+05 0.39241010D+05 0.39241010D+05 0.11566680D+01  1  2  2  1  7  1       -2 0.189391007293D-02 0.100000000000D+01
0.150219105984D-03 0.000000000000D+00 -.493889974233D-05 0.195633755310D-04 0.000000000000D+00  7 -2 2 24 -11 11 -24 21 2 0.11159474D+00 0.20311886D+00 0.39241010D+05 0.39241010D+05 0.39241010D+05 0.11566680D+01  1  2  3  1  7  1       -2 0.295959828195D-03 0.100000000000D+01
0.793994315657D-04 0.000000000000D+00 0.000000000000D+00 0.195633755310D-04 0.000000000000D+00  7 -2 2 24 -11 11 -24 21 2 0.11159474D+00 0.20311886D+00 0.39241010D+05 0.39241010D+05 0.39241010D+05 0.11566680D+01  1  2 15  1  7  1       -2 0.156431779906D-03 0.100000000000D+01
  </mgrwgt>
  </event>
  <event>
  8     66 0.27011060E-05 0.22885105E+03 0.75467711E-02 0.97758664E-01
       -2 -1    0    0    0  501 0.00000000E+00 0.00000000E+00 0.11158520E+04 0.11158520E+04 0.32000000E+00 0.0000E+00 0.9000E+01
        2 -1    0    0  501    0 0.00000000E+00 0.00000000E+00 -.21031812E+03 0.21031837E+03 0.32000000E+00 0.0000E+00 0.9000E+01
       25  2    1    2    0    0 0.82235003E+02 0.15438668E+03 0.10337779E+04 0.10902712E+04 0.29899267E+03 0.0000E+00 0.0000E+00
       23  2    1    2    0    0 -.82235003E+02 -.15438668E+03 -.12824406E+03 0.23589922E+03 0.92758076E+02 0.0000E+00 0.0000E+00
       24  1    3    3    0    0 0.11225909E+03 0.49378399E+02 0.84609393E+03 0.85870978E+03 0.80419002E+02 0.0000E+00 0.9000E+01
      -13  1    4    4    0    0 -.56362809E+02 -.92185286E+02 -.12932546E+03 0.16852293E+03 0.10565837E+00 0.0000E+00 0.9000E+01
       13  1    4    4    0    0 -.25872194E+02 -.62201392E+02 0.10813985E+01 0.67376288E+02 0.10565837E+00 0.0000E+00 0.9000E+01
      -24  1    3    3    0    0 -.30024090E+02 0.10500828E+03 0.18768396E+03 0.23156138E+03 0.80419002E+02 0.0000E+00 0.9000E+01
#aMCatNLO 1  0  0  2  1 0.24389157D+03 0.00000000D+00  -5  7  0 0.00000000D+00 0.00000000D+00 0.00000000D+00 0.00000000D+00 0.00000000D+00
  <mgrwgt>
 0.4804850465D-03    4    2    0
 0.484442033520449D+03 0.000000000000000D+00 0.000000000000000D+00 0.484442033520449D+03
 0.484442033520449D+03 0.000000000000000D+00 0.000000000000000D+00 -.484442033520449D+03
 0.384595847065973D+03 0.112259092879858D+03 0.493783994118178D+02 0.355536804513036D+03
 0.351537437788500D+03 -.563628491227667D+02 -.921853254717773D+02 -.334520051974961D+03
 0.912109821835333D+02 -.258721541617271D+02 -.622013533108160D+02 -.614903777531062D+02
 0.141539800002892D+03 -.300240895953645D+02 0.105008279370775D+03 0.404736252150308D+02
 0.000000000000000D+00 0.000000000000000D+00 0.000000000000000D+00 0.000000000000000D+00
 0.626693871258371D+03 0.000000000000000D+00 0.000000000000000D+00 0.626693871258371D+03
 0.616519160437766D+03 0.000000000000000D+00 0.000000000000000D+00 -.616519160437766D+03
 0.372045698947451D+03 0.669004289940327D+02 -.326909679881201D+02 0.355536804513036D+03
 0.389676740083164D+03 -.100796683001739D+03 -.172581358449741D+03 -.334520051974961D+03
 0.110910562190477D+03 -.379888073426801D+02 -.841245312965768D+02 -.614903777531062D+02
 0.126476318528910D+03 -.460909485994984D+02 0.759378253139195D+02 0.404736252150308D+02
 0.244103711946136D+03 0.117976009949885D+03 0.213459032420518D+03 0.101747108206052D+02
0.187514908138D-03 0.000000000000D+00 0.000000000000D+00 0.583157254592D-06 0.000000000000D+00  7 -2 2 24 -13 13 -24 21 0 0.17166956D+00 0.32356657D-01 0.52372805D+05 0.52372805D+05 0.52372805D+05 0.11455285D+01  1  2  2  2  7  2        2 0.784773280365D-03 0.100000000000D+01
-.329418081324D-05 0.000000000000D+00 -.720106621060D-06 0.583157254592D-06 0.000000000000D+00  7 -2 2 24 -13 13 -24 21 2 0.17166956D+00 0.32356657D-01 0.52372805D+05 0.52372805D+05 0.52372805D+05 0.11455285D+01  1  2  3  2  7  2        2 -.180912093930D-04 0.100000000000D+01
0.110569210860D-04 0.000000000000D+00 0.000000000000D+00 0.583157254592D-06 0.000000000000D+00  7 -2 2 24 -13 13 -24 21 2 0.17166956D+00 0.32356657D-01 0.52372805D+05 0.52372805D+05 0.52372805D+05 0.11455285D+01  1  2 15  2  7  2        2 0.607231618265D-04 0.100000000000D+01
-.631697857536D-04 0.000000000000D+00 0.000000000000D+00 0.583157254592D-06 0.000000000000D+00  7 -2 2 24 -13 13 -24 21 2 0.17166956D+00 0.32356657D-01 0.52372805D+05 0.52372805D+05 0.52372805D+05 0.11455285D+01  1  2  4  2  7  2        2 -.346920186282D-03 0.100000000000D+01
  </mgrwgt>
  </event>
  <event>
  8     66 0.27011060E-05 0.84210962E+03 0.75467711E-02 0.87004369E-01
       -2 -1    0    0    0  501 0.00000000E+00 0.00000000E+00 0.68698283E+03 0.68698290E+03 0.32000000E+00 0.0000E+00 0.9000E+01
        2 -1    0    0  501    0 0.00000000E+00 0.00000000E+00 -.10763094E+04 0.10763094E+04 0.32000000E+00 0.0000E+00 0.9000E+01
       25  2    1    2    0    0 -.36498236E+03 0.74382022E+03 -.27154734E+03 0.92166681E+03 0.29874923E+03 0.0000E+00 0.0000E+00
       23  2    1    2    0    0 0.36498236E+03 -.74382022E+03 -.11777920E+03 0.84162552E+03 0.89335992E+02 0.0000E+00 0.0000E+00
       24  1    3    3    0    0 -.29025080E+03 0.44512914E+03 -.62854376E+02 0.54111309E+03 0.80419002E+02 0.0000E+00 0.9000E+01
      -13  1    4    4    0    0 0.22640305E+03 -.46010167E+03 -.28904263E+02 0.51360233E+03 0.10565837E+00 0.0000E+00 0.9000E+01
       13  1    4    4    0    0 0.13857931E+03 -.28371856E+03 -.88874941E+02 0.32802319E+03 0.10565837E+00 0.0000E+00 0.9000E+01
      -24  1    3    3    0    0 -.74731556E+02 0.29869108E+03 -.20869297E+03 0.38055372E+03 0.80419002E+02 0.0000E+00 0.9000E+01
#aMCatNLO 1  0  0  1  1 0.35536012D+03 0.00000000D+00  -5  7  0 0.00000000D+00 0.00000000D+00 0.00000000D+00 0.00000000D+00 0.00000000D+00
  <mgrwgt>
 0.1026916067D-02    4    2    0
 0.859887298686940D+03 0.000000000000000D+00 0.000000000000000D+00 0.859887298686940D+03
 0.859887298686940D+03 0.000000000000000D+00 0.000000000000000D+00 -.859887298686940D+03
 0.540576465592933D+03 -.290250803288764D+03 0.445129142779415D+03 0.580535669642038D+02
 0.520055558377360D+03 0.226403169007381D+03 -.460101915348965D+03 0.866349603498331D+02
 0.316203590914852D+03 0.138579190256295D+03 -.283718308541653D+03 -.168653589828331D+02
 0.342938982488734D+03 -.747315559749113D+02 0.298691081111203D+03 -.127823168331204D+03
 0.000000000000000D+00 -.000000000000000D+00 -.000000000000000D+00 -.000000000000000D+00
 0.978737945596335D+03 0.000000000000000D+00 0.000000000000000D+00 0.978737945596335D+03
 0.119160571197349D+04 0.000000000000000D+00 0.000000000000000D+00 -.119160571197349D+04
 0.643106986486242D+03 -.288520171110502D+03 0.566131852432049D+03 0.580535669642038D+02
 0.436648908074094D+03 0.227801941231340D+03 -.362302260741932D+03 0.866349603498331D+02
 0.264673736260463D+03 0.139428475588676D+03 -.224337795583961D+03 -.168653589828331D+02
 0.411675570578261D+03 -.736282540529077D+02 0.375831980144664D+03 -.127823168331204D+03
 0.414238456170769D+03 -.508199165660555D+01 -.355323776250821D+03 -.212867766377159D+03
0.619201643345D-03 0.000000000000D+00 0.000000000000D+00 0.980602780406D-06 0.000000000000D+00  7 -2 2 24 -13 13 -24 21 0 0.10568968D+00 0.16558607D+00 0.70914861D+06 0.70914861D+06 0.70914861D+06 0.10579468D+01  1  2  2  1  7  1       -2 0.123622596807D-02 0.100000000000D+01
-.343818369887D-04 0.000000000000D+00 -.237789734998D-05 0.980602780406D-06 0.000000000000D+00  7 -2 2 24 -13 13 -24 21 2 0.10568968D+00 0.16558607D+00 0.70914861D+06 0.70914861D+06 0.70914861D+06 0.10579468D+01  1  2  3  1  7  1       -2 -.768285240811D-04 0.100000000000D+01
0.390835930695D-04 0.000000000000D+00 0.000000000000D+00 0.980602780406D-06 0.000000000000D+00  7 -2 2 24 -13 13 -24 21 2 0.10568968D+00 0.16558607D+00 0.70914861D+06 0.70914861D+06 0.70914861D+06 0.10579468D+01  1  2 15  1  7  1       -2 0.873349138471D-04 0.100000000000D+01
-.983708585427D-04 0.000000000000D+00 0.000000000000D+00 0.980602780406D-06 0.000000000000D+00  7 -2 2 24 -13 13 -24 21 2 0.10568968D+00 0.16558607D+00 0.70914861D+06 0.70914861D+06 0.70914861D+06 0.10579468D+01  1  2  4  1  7  1       -2 -.219816290703D-03 0.100000000000D+01
  </mgrwgt>
  </event>
  <event>
  9     66 -.27011060E-05 0.23087870E+03 0.75467711E-02 0.10372370E+00
       -2 -1    0    0    0  502 0.00000000E+00 0.00000000E+00 0.53295751E+03 0.53295761E+03 0.32000000E+00 0.0000E+00 0.9000E+01
        2 -1    0    0  501    0 0.00000000E+00 0.00000000E+00 -.26966218E+03 0.26966237E+03 0.32000000E+00 0.0000E+00 0.9000E+01
       25  2    1    2    0    0 0.11462399E+03 0.80947917E+02 0.42480680E+03 0.53872280E+03 0.30011700E+03 0.0000E+00 0.0000E+00
       23  2    1    2    0    0 -.10606174E+03 -.96436504E+02 -.17276176E+03 0.24291290E+03 0.92795267E+02 0.0000E+00 0.0000E+00
       24  1    3    3    0    0 0.10163246E+03 -.70658626E+02 0.26766464E+03 0.30566873E+03 0.80419002E+02 0.0000E+00 0.9000E+01
      -11  1    4    4    0    0 -.22398204E+01 0.32231771E+00 0.10716443E+02 0.10952755E+02 0.51099893E-03 0.0000E+00 0.9000E+01
       11  1    4    4    0    0 -.10382192E+03 -.96758822E+02 -.18347820E+03 0.23196015E+03 0.51099893E-03 0.0000E+00 0.9000E+01
      -24  1    3    3    0    0 0.12991521E+02 0.15160654E+03 0.15714216E+03 0.23305406E+03 0.80419002E+02 0.0000E+00 0.9000E+01
       21  1    1    2  501  502 -.85622454E+01 0.15488588E+02 0.11250289E+02 0.20984277E+02 0.75000000E+00 0.0000E+00 0.9000E+01
#aMCatNLO 2  0  0  1  2 0.17697695D+02 0.00000000D+00  -5  7  0 0.00000000D+00 0.00000000D+00 0.00000000D+00 0.00000000D+00 0.00000000D+00
  <mgrwgt>
 -.2027098516D-03    3    2    0
 0.369835928195085D+03 0.000000000000000D+00 0.000000000000000D+00 0.369835928195085D+03
 0.369835928195085D+03 0.000000000000000D+00 0.000000000000000D+00 -.369835928195085D+03
 0.229146806873249D+03 0.989653139004582D+02 -.658339118019876D+02 0.178641556887717D+03
 0.795515977709704D+01 -.233169184450748D+01 0.488507600406537D+00 0.759006854684099D+01
 0.306816314936585D+03 -.107377296375801D+03 -.903273586306746D+02 -.272850390538651D+03
 0.195753574803239D+03 0.107436743198499D+02 0.155672762832256D+03 0.866187651040931D+02
 0.000000000000000D+00 -.000000000000000D+00 0.000000000000000D+00 0.000000000000000D+00
 0.381470400050559D+03 0.000000000000000D+00 0.000000000000000D+00 0.381470400050559D+03
 0.376733744867396D+03 0.000000000000000D+00 0.000000000000000D+00 -.376733744867396D+03
 0.231736533513556D+03 0.101632463943989D+03 -.706586260545407D+02 0.178641556887717D+03
 0.792021620647655D+01 -.223982041841055D+01 0.322317707952831D+00 0.759006854684099D+01
 0.307552590987537D+03 -.103821919319203D+03 -.967588222072271D+02 -.272850390538651D+03
 0.192674206569483D+03 0.129915211895747D+02 0.151606542839787D+03 0.866187651040931D+02
 0.183205976409014D+02 -.856224539595029D+01 0.154885877140281D+02 0.473665518316331D+01
-.370506009163D-04 0.000000000000D+00 0.000000000000D+00 0.223847280128D-05 0.000000000000D+00  7 -2 2 24 -11 11 -24 21 2 0.82714455D-01 0.40726087D-01 0.57984088D+05 0.57984088D+05 0.57984088D+05 0.11416788D+01  1  2 13  1  7  1       -2 -.987551428008D-03 0.100000000000D+01
-.382768025869D-04 0.000000000000D+00 0.000000000000D+00 0.223847280128D-05 0.000000000000D+00  7 -2 2 24 -11 11 -24 21 2 0.79491153D-01 0.40726087D-01 0.53304973D+05 0.53304973D+05 0.53304973D+05 0.11448583D+01  1  2  8  1  7  1       -2 -.112203911419D-02 0.100000000000D+01
0.715815487404D-04 0.000000000000D+00 0.000000000000D+00 0.223847280128D-05 0.497035656257D-07  7 -2 2 24 -11 11 -24 21 2 0.81991823D-01 0.41485670D-01 0.57984088D+05 0.57984088D+05 0.57984088D+05 0.11416788D+01  1  2  1  1  7  1       -2 0.190688069058D-02 0.100000000000D+01
  </mgrwgt>
  </event>
  <event>
  8     66 0.27011060E-05 0.17858783E+03 0.75467711E-02 0.99195547E-01
       -2 -1    0    0    0  501 0.00000000E+00 0.00000000E+00 0.59977464E+03 0.59977473E+03 0.32000000E+00 0.0000E+00 0.9000E+01
        2 -1    0    0  501    0 0.00000000E+00 0.00000000E+00 -.37448245E+03 0.37448259E+03 0.32000000E+00 0.0000E+00 0.9000E+01
       25  2    1    2    0    0 -.13137584E+03 0.20265577E+03 0.47732808E+03 0.61305270E+03 0.29943705E+03 0.0000E+00 0.0000E+00
       23  2    1    2    0    0 0.13137584E+03 -.20265577E+03 -.25203589E+03 0.36120461E+03 0.92831642E+02 0.0000E+00 0.0000E+00
       24  1    3    3    0    0 -.18033420E+03 0.62997910E+02 0.19658150E+03 0.28565830E+03 0.80419002E+02 0.0000E+00 0.9000E+01
      -13  1    4    4    0    0 0.49048617E+02 -.16383855E+02 -.76510133E+02 0.92347220E+02 0.10565837E+00 0.0000E+00 0.9000E+01
       13  1    4    4    0    0 0.82327225E+02 -.18627191E+03 -.17552575E+03 0.26885739E+03 0.10565837E+00 0.0000E+00 0.9000E+01
      -24  1    3    3    0    0 0.48958361E+02 0.13965786E+03 0.28074658E+03 0.32739440E+03 0.80419002E+02 0.0000E+00 0.9000E+01
#aMCatNLO 1  0  0  1  2 0.46342039D+02 0.00000000D+00  -5  7  0 0.00000000D+00 0.00000000D+00 0.00000000D+00 0.00000000D+00 0.00000000D+00
  <mgrwgt>
 0.1268244260D-02    9    2    0
 0.473925294422198D+03 0.000000000000000D+00 0.000000000000000D+00 0.473925294422198D+03
 0.473925294422198D+03 0.000000000000000D+00 0.000000000000000D+00 -.473925294422198D+03
 0.246891664368977D+03 -.180334202844729D+03 0.629979099703202D+02 0.134160786387978D+03
 0.113105208248089D+03 0.490485733954805D+02 -.163836352322154D+02 -.100591262430141D+03
 0.318068182063175D+03 0.823272683658906D+02 -.186272130239697D+03 -.244320041790167D+03
 0.269785534164154D+03 0.489583610833581D+02 0.139657855501592D+03 0.210750517832330D+03
 0.000000000000000D+00 -.000000000000000D+00 -.000000000000000D+00 0.000000000000000D+00
 0.504573624471720D+03 0.000000000000000D+00 0.000000000000000D+00 0.504573624471720D+03
 0.492339008236675D+03 0.000000000000000D+00 0.000000000000000D+00 -.492339008236675D+03
 0.243552528169252D+03 -.172292425897918D+03 0.718806051535035D+02 0.134160786387978D+03
 0.114255943286777D+03 0.527765972865392D+02 -.122657766943669D+02 -.100591262430141D+03
 0.314398174114573D+03 0.926977721665803D+02 -.174817196241049D+03 -.244320041790167D+03
 0.276776137931394D+03 0.579202921685671D+02 0.149556924153847D+03 0.210750517832330D+03
 0.479298492063991D+02 -.311022357237686D+02 -.343545563719347D+02 0.122346162350457D+02
0.640428347067D-04 0.000000000000D+00 0.000000000000D+00 0.102714683037D-05 0.000000000000D+00  7 -2 2 24 -13 13 -24 21 0 0.92273039D-01 0.57612702D-01 0.99557741D+05 0.99557741D+05 0.99557741D+05 0.11218800D+01  1  2  2  1  7  1       -2 0.692339158328D-03 0.100000000000D+01
-.284204213348D-05 0.000000000000D+00 -.245941348139D-06 0.102714683037D-05 0.000000000000D+00  7 -2 2 24 -13 13 -24 21 2 0.92273039D-01 0.57612702D-01 0.99557741D+05 0.99557741D+05 0.99557741D+05 0.11218800D+01  1  2  3  1  7  1       -2 -.386697804901D-04 0.100000000000D+01
0.382836535824D-05 0.000000000000D+00 0.000000000000D+00 0.102714683037D-05 0.000000000000D+00  7 -2 2 24 -13 13 -24 21 2 0.92273039D-01 0.57612702D-01 0.99557741D+05 0.99557741D+05 0.99557741D+05 0.11218800D+01  1  2 15  1  7  1       -2 0.520900257934D-04 0.100000000000D+01
0.133674419102D-03 0.000000000000D+00 0.000000000000D+00 0.102714683037D-05 0.000000000000D+00  7 -2 2 24 -13 13 -24 21 2 0.99939252D-01 0.57612702D-01 0.11596832D+06 0.11596832D+06 0.11596832D+06 0.11164802D+01  1  2 12  1  7  1       -2 0.148660821886D-02 0.100000000000D+01
-.120972402546D-03 0.000000000000D+00 0.000000000000D+00 0.102714683037D-05 0.000000000000D+00  7 -2 2 24 -13 13 -24 21 2 0.92273039D-01 0.57612702D-01 0.99557741D+05 0.99557741D+05 0.99557741D+05 0.11218800D+01  1  2  4  1  7  1       -2 -.164599116835D-02 0.100000000000D+01
-.385982764357D-03 0.000000000000D+00 -.843811463860D-04 0.102714683037D-05 0.000000000000D+00  7 -2 2 24 -13 13 -24 21 2 0.10120342D+00 0.57612702D-01 0.99557741D+05 0.99557741D+05 0.99557741D+05 0.11218800D+01  1  2  5  1  7  1       -2 -.422165020343D-02 0.100000000000D+01
0.392460875230D-03 0.000000000000D+00 0.840223605042D-04 0.102714683037D-05 0.000000000000D+00  7 -2 2 24 -13 13 -24 21 2 0.92273039D-01 0.57612702D-01 0.99557741D+05 0.99557741D+05 0.99557741D+05 0.11218800D+01  1  2  6  1  7  1       -2 0.533995457607D-02 0.100000000000D+01
0.178502458542D-05 0.000000000000D+00 0.000000000000D+00 0.102714683037D-05 0.000000000000D+00  7 21 2 24 -13 13 -24 2 2 0.99939252D-01 0.57612702D-01 0.11596832D+06 0.11596832D+06 0.11596832D+06 0.11164802D+01  1  2 12  3  7  1       -2 0.188652218367D-03 0.100000000000D+01
-.561233779996D-05 0.000000000000D+00 -.127938075075D-05 0.102714683037D-05 0.000000000000D+00  7 21 2 24 -13 13 -24 2 2 0.10120342D+00 0.57612702D-01 0.99557741D+05 0.99557741D+05 0.99557741D+05 0.11218800D+01  1  2  5  3  7  1       -2 -.585088785280D-03 0.100000000000D+01
  </mgrwgt>
  </event>
  <event>
  9     66 0.27011060E-05 0.38715980E+03 0.75467711E-02 0.95154307E-01
       21 -1    0    0  502  501 0.00000000E+00 0.00000000E+00 0.15254661E+04 0.15254663E+04 0.75000000E+00 0.0000E+00 0.9000E+01
        2 -1    0    0  501    0 0.00000000E+00 0.00000000E+00 -.37762764E+03 0.37762778E+03 0.32000000E+00 0.0000E+00 0.9000E+01
       25  2    1    2    0    0 0.69831899E+02 -.24245922E+03 0.65754923E+03 0.76339959E+03 0.29452501E+03 0.0000E+00 0.0000E+00
       23  2    1    2    0    0 -.11209265E+03 0.40339505E+03 -.16856993E+03 0.46014917E+03 0.89605279E+02 0.0000E+00 0.0000E+00
       24  1    3    3    0    0 0.94817829E+01 -.25280826E+03 0.57344417E+03 0.63190770E+03 0.80419002E+02 0.0000E+00 0.9000E+01
      -13  1    4    4    0    0 -.74466161E+02 0.17324308E+03 -.36262721E+02 0.19202440E+03 0.10565837E+00 0.0000E+00 0.9000E+01
       13  1    4    4    0    0 -.37626488E+02 0.23015197E+03 -.13230721E+03 0.26812477E+03 0.10565837E+00 0.0000E+00 0.9000E+01
      -24  1    3    3    0    0 0.60350117E+02 0.10349034E+02 0.84105063E+02 0.13149189E+03 0.80419002E+02 0.0000E+00 0.9000E+01
        2  1    1    2  502    0 0.42260749E+02 -.16093583E+03 0.65885916E+03 0.67954529E+03 0.32000000E+00 0.0000E+00 0.9000E+01
#aMCatNLO 2  0  0  1  2 0.16639204D+03 0.00000000D+00  -5  7  0 0.00000000D+00 0.00000000D+00 0.00000000D+00 0.00000000D+00 0.00000000D+00
  <mgrwgt>
 0.1272056025D-03    2    2    0
 0.554590954960750D+03 0.000000000000000D+00 0.000000000000000D+00 0.554590954960750D+03
 0.554590954960750D+03 0.000000000000000D+00 0.000000000000000D+00 -.554590954960750D+03
 0.481304440386955D+03 0.269229798666675D+02 -.319227181101460D+03 0.350079860007605D+03
 0.199836236075254D+03 -.664124560208773D+02 0.142572982300001D+03 -.123275511161314D+03
 0.319270965805486D+03 -.249440725099228D+02 0.181855540547213D+03 -.261228454088120D+03
 0.108770267653805D+03 0.644335486641325D+02 -.520134174575377D+01 0.344241052418293D+02
 0.000000000000000D+00 0.000000000000000D+00 -.000000000000000D+00 0.000000000000000D+00
 0.999079739495751D+03 0.000000000000000D+00 0.000000000000000D+00 0.999079739495751D+03
 0.576588968268885D+03 0.000000000000000D+00 0.000000000000000D+00 -.576588968268885D+03
 0.439346155111287D+03 0.948178297056053D+01 -.252808258301534D+03 0.350079860007605D+03
 0.225289160473697D+03 -.744662125524017D+02 0.173243000906127D+03 -.123275511161314D+03
 0.350179982867032D+03 -.376264363352176D+02 0.230152050749494D+03 -.261228454088120D+03
 0.106777685128984D+03 0.603501164658371D+02 0.103490341575108D+02 0.344241052418293D+02
 0.454075724183636D+03 0.422607494512217D+02 -.160935827511597D+03 0.422490771226866D+03
-.367018946878D-04 0.000000000000D+00 0.000000000000D+00 0.262311049945D-07 0.000000000000D+00  7 21 2 24 -13 13 -24 2 2 0.23538484D+00 0.55880079D-01 0.22786562D+06 0.22786562D+06 0.22786562D+06 0.10935009D+01  1  2 13  3  7  1       -2 -.268841822182D-03 0.100000000000D+01
0.558124864874D-04 0.000000000000D+00 0.000000000000D+00 0.262311049945D-07 0.503205190927D-12  7 21 2 24 -13 13 -24 2 2 0.23468709D+00 0.58096579D-01 0.22786562D+06 0.22786562D+06 0.22786562D+06 0.10935009D+01  1  2  1  3  7  1       -2 0.396047424679D-03 0.100000000000D+01
  </mgrwgt>
  </event>
  <event>
  8     66 0.27011060E-05 0.31074718E+03 0.75467711E-02 0.89969659E-01
       -2 -1    0    0    0  501 0.00000000E+00 0.00000000E+00 0.10509772E+03 0.10509820E+03 0.32000000E+00 0.0000E+00 0.9000E+01
        2 -1    0    0  501    0 0.00000000E+00 0.00000000E+00 -.10226454E+04 0.10226455E+04 0.32000000E+00 0.0000E+00 0.9000E+01
       25  2    1    2    0    0 -.20753665E+03 0.11574461E+03 -.66482259E+03 0.76720370E+03 0.30024019E+03 0.0000E+00 0.0000E+00
       23  2    1    2    0    0 0.20753665E+03 -.11574461E+03 -.25272512E+03 0.36053998E+03 0.98238567E+02 0.0000E+00 0.0000E+00
       24  1    3    3    0    0 -.24113456E+03 0.25456303E+02 -.48100708E+03 0.54463651E+03 0.80419002E+02 0.0000E+00 0.9000E+01
      -13  1    4    4    0    0 0.12631389E+03 -.90837247E+02 -.22009369E+03 0.26953265E+03 0.10565837E+00 0.0000E+00 0.9000E+01
       13  1    4    4    0    0 0.81222758E+02 -.24907362E+02 -.32631429E+02 0.91007332E+02 0.10565837E+00 0.0000E+00 0.9000E+01
      -24  1    3    3    0    0 0.33597916E+02 0.90288306E+02 -.18381551E+03 0.22256720E+03 0.80419002E+02 0.0000E+00 0.9000E+01
#aMCatNLO 1  0  0  2  2 0.64464561D+03 0.00000000D+00  -5  7  0 0.00000000D+00 0.00000000D+00 0.00000000D+00 0.00000000D+00 0.00000000D+00
  <mgrwgt>
 0.8930124478D-03    5    2    0
 0.327838379243490D+03 0.000000000000000D+00 0.000000000000000D+00 0.327838379243490D+03
 0.327838379243490D+03 0.000000000000000D+00 0.000000000000000D+00 -.327838379243490D+03
 0.263641258511911D+03 -.241134574616251D+03 0.254563096505189D+02 -.651581956394631D+02
 0.155590855862934D+03 0.126313946184543D+03 -.908373070129382D+02 -.137298291535049D+01
 0.110865620382528D+03 0.812227189550478D+02 -.249073123665495D+02 0.712297795800830D+02
 0.125579023729607D+03 0.335979094766603D+02 0.902883097289688D+02 -.469860102526949D+01
 0.000000000000000D+00 -.000000000000000D+00 -.000000000000000D+00 -.000000000000000D+00
 0.532587106465070D+03 0.000000000000000D+00 0.000000000000000D+00 0.532587106465070D+03
 0.188610924992169D+04 0.000000000000000D+00 0.000000000000000D+00 -.188610924992169D+04
 0.216330219714698D+03 -.996569379051019D+02 0.161723381970039D+03 -.651581956394631D+02
 0.245686626246347D+03 0.244595536674005D+03 0.230880201269460D+02 -.137298291535049D+01
 0.196002462224813D+03 0.171675950196573D+03 0.622145627909247D+02 0.712297795800830D+02
 0.261480543758336D+03 0.147688590608300D+03 0.200177077015136D+03 -.469860102526949D+01
 0.149919650444256D+04 -.464303139573776D+03 -.447203041903046D+03 -.135352214345662D+04
0.101775362076D-04 0.000000000000D+00 0.000000000000D+00 0.499743173734D-07 0.000000000000D+00  7 -2 2 24 -13 13 -24 21 0 0.16168921D-01 0.15733011D+00 0.96563808D+05 0.96563808D+05 0.96563808D+05 0.11229703D+01  1  2  2  2  7  2        2 0.890007441064D-03 0.100000000000D+01
-.563447952524D-06 0.000000000000D+00 -.390844188440D-07 0.499743173734D-07 0.000000000000D+00  7 -2 2 24 -13 13 -24 21 2 0.16168921D-01 0.15733011D+00 0.96563808D+05 0.96563808D+05 0.96563808D+05 0.11229703D+01  1  2  3  2  7  2        2 -.621357225522D-04 0.100000000000D+01
0.590728498074D-06 0.000000000000D+00 0.000000000000D+00 0.499743173734D-07 0.000000000000D+00  7 -2 2 24 -13 13 -24 21 2 0.16168921D-01 0.15733011D+00 0.96563808D+05 0.96563808D+05 0.96563808D+05 0.11229703D+01  1  2 15  2  7  2        2 0.651441573185D-04 0.100000000000D+01
-.181782939179D-05 0.000000000000D+00 -.446926424583D-05 0.499743173734D-07 0.000000000000D+00  7 -2 2 24 -13 13 -24 21 2 0.16168921D-01 0.91959564D+00 0.96563808D+05 0.96563808D+05 0.96563808D+05 0.11229703D+01  1  2  5  2  7  2        2 -.342528866922D-08 0.100000000000D+01
-.655918349477D-06 0.000000000000D+00 -.966904768014D-06 0.499743173734D-07 0.000000000000D+00  7 -2 21 24 -13 13 -24 -2 2 0.16168921D-01 0.91959564D+00 0.96563808D+05 0.96563808D+05 0.96563808D+05 0.11229703D+01  1  2  5  4  7  2        2 -.278311995473D-11 0.100000000000D+01
  </mgrwgt>
  </event>
  <event>
  8     66 0.27011060E-05 0.14718689E+03 0.75467711E-02 0.10603844E+00
       -2 -1    0    0    0  501 0.00000000E+00 0.00000000E+00 0.68431322E+02 0.68432070E+02 0.32000000E+00 0.0000E+00 0.9000E+01
        2 -1    0    0  502    0 0.00000000E+00 0.00000000E+00 -.31086980E+04 0.31086981E+04 0.32000000E+00 0.0000E+00 0.9000E+01
       23  2    1    2    0    0 0.37225476E+02 -.28033286E+02 -.70223022E+01 0.97494175E+02 0.85347526E+02 0.0000E+00 0.0000E+00
       24  1    1    2    0    0 -.48781763E+02 -.27373696E+02 -.13051270E+04 0.13087982E+04 0.80419002E+02 0.0000E+00 0.9000E+01
      -11  1    3    3    0    0 0.42988271E+02 -.17156915E+02 0.32201006E+02 0.56384891E+02 0.51099893E-03 0.0000E+00 0.9000E+01
       11  1    3    3    0    0 -.57627951E+01 -.10876371E+02 -.39223309E+02 0.41109284E+02 0.51099893E-03 0.0000E+00 0.9000E+01
      -24  1    1    2    0    0 -.10309165E+03 0.28569024E+02 -.21571645E+03 0.25385996E+03 0.80419002E+02 0.0000E+00 0.9000E+01
       21  1    1    2  502  501 0.11464793E+03 0.26837958E+02 -.15124010E+04 0.15169778E+04 0.75000000E+00 0.0000E+00 0.9000E+01
#aMCatNLO 2  0  0  2  1 0.11774729D+03 0.00000000D+00  -5  7  0 0.00000000D+00 0.00000000D+00 0.00000000D+00 0.00000000D+00 0.00000000D+00
  <mgrwgt>
 0.6561567548D-03    2    2    0
 0.319322538804845D+03 0.000000000000000D+00 0.000000000000000D+00 0.319322538804845D+03
 0.319322538804845D+03 0.000000000000000D+00 0.000000000000000D+00 -.319322538804845D+03
 0.269974846862896D+03 -.252633461476840D+00 -.160135025487080D+02 -.257221122571087D+03
 0.230604426606662D+03 0.830872348298736D+02 -.777014023091309D+01 0.214975668157363D+03
 0.115355628508475D+02 -.359572083453049D+01 -.103690805428068D+02 -.355276943563191D+01
 0.126530241289286D+03 -.792388805338663D+02 0.341527233224279D+02 0.457982238493560D+02
 0.000000000000000D+00 0.000000000000000D+00 0.000000000000000D+00 -.000000000000000D+00
 0.335938142492829D+03 0.000000000000000D+00 0.000000000000000D+00 0.335938142492829D+03
 0.633250481911368D+03 0.000000000000000D+00 0.000000000000000D+00 -.633250481911368D+03
 0.275243349661520D+03 -.487817632502258D+02 -.273736964254420D+02 -.257221122571087D+03
 0.219901998771197D+03 0.429882709156192D+02 -.171569148610179D+02 0.214975668157363D+03
 0.128112229302752D+02 -.576279510799168D+01 -.108763714008743D+02 -.355276943563191D+01
 0.141452359964953D+03 -.103091647224883D+03 0.285690243093607D+02 0.457982238493560D+02
 0.319779693076251D+03 0.114647934667481D+03 0.268379583779735D+02 -.297312339418539D+03
-.344382113136D-05 0.000000000000D+00 0.000000000000D+00 0.837225052909D-10 0.000000000000D+00  7 -2 2 24 -11 11 -24 21 2 0.10007226D-01 0.47860081D+00 0.41643510D+05 0.41643510D+05 0.41643510D+05 0.11543476D+01  1  2 13  2  7  2        2 -.589451870807D-04 0.100000000000D+01
0.450074018953D-04 0.000000000000D+00 0.000000000000D+00 0.837225052909D-10 0.508769299910D-13  7 -2 2 24 -11 11 -24 21 2 0.10527941D-01 0.47826069D+00 0.41643510D+05 0.41643510D+05 0.41643510D+05 0.11543476D+01  1  2  1  2  7  2        2 0.715101941887D-03 0.100000000000D+01
  </mgrwgt>
  </event>
  <event>
  8     66 0.27011060E-05 0.45834849E+03 0.75467711E-02 0.95622618E-01
       -2 -1    0    0    0  501 0.00000000E+00 0.00000000E+00 0.18104658E+03 0.18104686E+03 0.32000000E+00 0.0000E+00 0.9000E+01
        2 -1    0    0  501    0 0.00000000E+00 0.00000000E+00 -.15662052E+04 0.15662052E+04 0.32000000E+00 0.0000E+00 0.9000E+01
       25  2    1    2    0    0 0.18376310E+03 -.37331863E+03 -.33198004E+03 0.61126863E+03 0.30050443E+03 0.0000E+00 0.0000E+00
       23  2    1    2    0    0 -.18376310E+03 0.37331863E+03 -.10531786E+04 0.11359835E+04 0.90208717E+02 0.0000E+00 0.0000E+00
       24  1    3    3    0    0 -.22925548E+02 -.25755721E+02 -.98493177E+01 0.88052047E+02 0.80419002E+02 0.0000E+00 0.9000E+01
      -13  1    4    4    0    0 -.42200870E+02 0.63111782E+02 -.11537405E+03 0.13811297E+03 0.10565837E+00 0.0000E+00 0.9000E+01
       13  1    4    4    0    0 -.14156223E+03 0.31020685E+03 -.93780453E+03 0.99787049E+03 0.10565837E+00 0.0000E+00 0.9000E+01
      -24  1    3    3    0    0 0.20668865E+03 -.34756291E+03 -.32213072E+03 0.52321659E+03 0.80419002E+02 0.0000E+00 0.9000E+01
#aMCatNLO 1  0  0  1  2 0.82841536D+02 0.00000000D+00  -5  7  0 0.00000000D+00 0.00000000D+00 0.00000000D+00 0.00000000D+00 0.00000000D+00
  <mgrwgt>
 0.1290584225D-04    1    2    0
 0.532500106875945D+03 0.000000000000000D+00 0.000000000000000D+00 0.532500106875945D+03
 0.532500106875945D+03 0.000000000000000D+00 0.000000000000000D+00 -.532500106875945D+03
 0.131649039700868D+03 -.229255481084085D+02 -.257557209072286D+02 0.983631830730791D+02
 0.765317414335996D+02 -.422007336079522D+02 0.631114434324678D+02 -.965148888412617D+01
 0.417393114689226D+03 -.141562369010239D+03 0.310207189376885D+03 -.240725170119527D+03
 0.439426317928196D+03 0.206688650726600D+03 -.347562911902125D+03 0.152013475930574D+03
 0.000000000000000D+00 0.000000000000000D+00 0.000000000000000D+00 -.000000000000000D+00
 0.121651138135298D+04 0.000000000000000D+00 0.000000000000000D+00 0.121651138135298D+04
 0.157212531963832D+04 0.000000000000000D+00 0.000000000000000D+00 -.157212531963832D+04
 0.231568107869720D+03 -.149917331053413D+03 -.122499186501565D+03 0.983631830730791D+02
 0.108086881191097D+03 -.106749029878587D+03 0.139379793341215D+02 -.965148888412617D+01
 0.535150607101993D+03 -.474600680588932D+03 0.564956523732507D+02 -.240725170119527D+03
 0.700203946884121D+03 -.191760817297148D+03 -.651105247531277D+03 0.152013475930574D+03
 0.121362715794438D+04 0.923027858818079D+03 0.703170802325470D+03 -.355613938285338D+03
0.628729326301D-06 0.000000000000D+00 0.000000000000D+00 0.307638075034D-05 0.000000000000D+00  7 -2 2 24 -13 13 -24 21 2 0.27853344D-01 0.24095467D+00 0.21008334D+06 0.21008334D+06 0.21008334D+06 0.10961885D+01  1  2 14  1  7  1       -2 0.129058422480D-04 0.100000000000D+01
  </mgrwgt>
  </event>
  <event>
  8     66 0.27011060E-05 0.13134579E+03 0.75467711E-02 0.10169425E+00
       -2 -1    0    0    0  501 0.00000000E+00 0.00000000E+00 0.17182547E+03 0.17182577E+03 0.32000000E+00 0.0000E+00 0.9000E+01
        2 -1    0    0  501    0 0.00000000E+00 0.00000000E+00 -.36673959E+03 0.36673973E+03 0.32000000E+00 0.0000E+00 0.9000E+01
       25  2    1    2    0    0 -.67950364E+02 -.10507016E+03 -.20363324E+03 0.38444621E+03 0.30112357E+03 0.0000E+00 0.0000E+00
       23  2    1    2    0    0 0.67950364E+02 0.10507016E+03 0.87191263E+01 0.15411929E+03 0.89553008E+02 0.0000E+00 0.0000E+00
       24  1    3    3    0    0 -.90730454E+02 0.63237471E+02 -.68172573E+02 0.15279303E+03 0.80419002E+02 0.0000E+00 0.9000E+01
      -13  1    4    4    0    0 0.81759377E+02 0.86923750E+02 -.16100998E+02 0.12041423E+03 0.10565837E+00 0.0000E+00 0.9000E+01
       13  1    4    4    0    0 -.13809013E+02 0.18146410E+02 0.24820124E+02 0.33705055E+02 0.10565837E+00 0.0000E+00 0.9000E+01
      -24  1    3    3    0    0 0.22780090E+02 -.16830763E+03 -.13546067E+03 0.23165319E+03 0.80419002E+02 0.0000E+00 0.9000E+01
#aMCatNLO 1  0  0  1  2 0.88691719D+02 0.00000000D+00  -5  7  0 0.00000000D+00 0.00000000D+00 0.00000000D+00 0.00000000D+00 0.00000000D+00
  <mgrwgt>
 0.7102260215D-03    9    2    0
 0.251028528219014D+03 0.000000000000000D+00 0.000000000000000D+00 0.251028528219014D+03
 0.251028528219014D+03 0.000000000000000D+00 0.000000000000000D+00 -.251028528219014D+03
 0.137437080126487D+03 -.907304550933110D+02 0.632374693183684D+02 -.138109388563231D+02
 0.122919682448081D+03 0.817595076797893D+02 0.869238471942154D+02 0.294767031068972D+02
 0.457918421871252D+02 -.138091411192862D+02 0.181463167206536D+02 0.397103465347753D+02
 0.195908451676334D+03 0.227800885328079D+02 -.168307633233237D+03 -.553761107853495D+02
 0.000000000000000D+00 -.000000000000000D+00 0.000000000000000D+00 0.000000000000000D+00
 0.318391998417096D+03 0.000000000000000D+00 0.000000000000000D+00 0.318391998417096D+03
 0.285896238337406D+03 0.000000000000000D+00 0.000000000000000D+00 -.285896238337406D+03
 0.125525626828004D+03 -.863073892080199D+02 0.406172324536664D+02 -.138109388563231D+02
 0.112524385914298D+03 0.857197065944133D+02 0.666707829615454D+02 0.294767031068972D+02
 0.428866519383907D+02 -.123175576675178D+02 0.105181303319601D+02 0.397103465347753D+02
 0.228894198389912D+03 0.299253226660053D+02 -.204849455746931D+03 -.553761107853495D+02
 0.944573736838959D+02 -.170200823848809D+02 0.870433099997595D+02 0.324957600796901D+02
0.407766521615D-05 0.000000000000D+00 0.000000000000D+00 0.483399036695D-07 0.000000000000D+00  7 -2 2 24 -13 13 -24 21 0 0.26434722D-01 0.56421509D-01 0.54474784D+05 0.54474784D+05 0.54474784D+05 0.11440354D+01  1  2  2  1  7  1       -2 0.531675745357D-03 0.100000000000D+01
-.225076388157D-06 0.000000000000D+00 -.156593081039D-07 0.483399036695D-07 0.000000000000D+00  7 -2 2 24 -13 13 -24 21 2 0.26434722D-01 0.56421509D-01 0.54474784D+05 0.54474784D+05 0.54474784D+05 0.11440354D+01  1  2  3  1  7  1       -2 -.384099840390D-04 0.100000000000D+01
0.266009930197D-06 0.000000000000D+00 0.000000000000D+00 0.483399036695D-07 0.000000000000D+00  7 -2 2 24 -13 13 -24 21 2 0.26434722D-01 0.56421509D-01 0.54474784D+05 0.54474784D+05 0.54474784D+05 0.11440354D+01  1  2 15  1  7  1       -2 0.453954200027D-04 0.100000000000D+01
0.233140424913D-05 0.000000000000D+00 0.000000000000D+00 0.483399036695D-07 0.000000000000D+00  7 -2 2 24 -13 13 -24 21 2 0.34970638D-01 0.56421509D-01 0.78495843D+05 0.78495843D+05 0.78495843D+05 0.11304546D+01  1  2 12  1  7  1       -2 0.238104127879D-03 0.100000000000D+01
-.263968604771D-05 0.000000000000D+00 0.000000000000D+00 0.483399036695D-07 0.000000000000D+00  7 -2 2 24 -13 13 -24 21 2 0.26434722D-01 0.56421509D-01 0.54474784D+05 0.54474784D+05 0.54474784D+05 0.11440354D+01  1  2  4  1  7  1       -2 -.450470614846D-03 0.100000000000D+01
-.461651677537D-05 0.000000000000D+00 -.179562229811D-05 0.483399036695D-07 0.000000000000D+00  7 -2 2 24 -13 13 -24 21 2 0.37770126D-01 0.56421509D-01 0.54474784D+05 0.54474784D+05 0.54474784D+05 0.11440354D+01  1  2  5  1  7  1       -2 -.420212721212D-03 0.100000000000D+01
0.504142746783D-05 0.000000000000D+00 0.168706649443D-05 0.483399036695D-07 0.000000000000D+00  7 -2 2 24 -13 13 -24 21 2 0.26434722D-01 0.56421509D-01 0.54474784D+05 0.54474784D+05 0.54474784D+05 0.11440354D+01  1  2  6  1  7  1       -2 0.860335240666D-03 0.100000000000D+01
0.856889324829D-07 0.000000000000D+00 0.000000000000D+00 0.483399036695D-07 0.000000000000D+00  7 21 2 24 -13 13 -24 2 2 0.34970638D-01 0.56421509D-01 0.78495843D+05 0.78495843D+05 0.78495843D+05 0.11304546D+01  1  2 12  3  7  1       -2 0.101477191776D-03 0.100000000000D+01
-.150006960138D-06 0.000000000000D+00 -.786601003558D-07 0.483399036695D-07 0.000000000000D+00  7 21 2 24 -13 13 -24 2 2 0.37770126D-01 0.56421509D-01 0.54474784D+05 0.54474784D+05 0.54474784D+05 0.11440354D+01  1  2  5  3  7  1       -2 -.157668384066D-03 0.100000000000D+01
  </mgrwgt>
  </event>
  <event>
  8     66 0.27011060E-05 0.44439276E+03 0.75467711E-02 0.95899673E-01
       -2 -1    0    0    0  501 0.00000000E+00 0.00000000E+00 0.22608841E+03 0.22608864E+03 0.32000000E+00 0.0000E+00 0.9000E+01
        2 -1    0    0  501    0 0.00000000E+00 0.00000000E+00 -.95994612E+03 0.95994617E+03 0.32000000E+00 0.0000E+00 0.9000E+01
       25  2    1    2    0    0 -.36225810E+03 0.16420620E+03 -.54430695E+03 0.73597788E+03 0.29529439E+03 0.0000E+00 0.0000E+00
       23  2    1    2    0    0 0.36225810E+03 -.16420620E+03 -.18955076E+03 0.45005693E+03 0.91799464E+02 0.0000E+00 0.0000E+00
       24  1    3    3    0    0 0.52052207E+00 0.64315084E+02 -.17259044E+03 0.20097606E+03 0.80419002E+02 0.0000E+00 0.9000E+01
      -11  1    4    4    0    0 0.89754171E+02 -.65859229E+02 -.91830007E+02 0.14431216E+03 0.51099893E-03 0.0000E+00 0.9000E+01
       11  1    4    4    0    0 0.27250393E+03 -.98346973E+02 -.97720752E+02 0.30574477E+03 0.51099893E-03 0.0000E+00 0.9000E+01
      -24  1    3    3    0    0 -.36277863E+03 0.99891118E+02 -.37171650E+03 0.53500181E+03 0.80419002E+02 0.0000E+00 0.9000E+01
#aMCatNLO 1  0  0  1  2 0.62245542D+01 0.00000000D+00  -5  7  0 0.00000000D+00 0.00000000D+00 0.00000000D+00 0.00000000D+00 0.00000000D+00
  <mgrwgt>
 0.1529352090D-02    8    2    0
 0.465867856593004D+03 0.000000000000000D+00 0.000000000000000D+00 0.465867856593004D+03
 0.465867856593004D+03 0.000000000000000D+00 0.000000000000000D+00 -.465867856593004D+03
 0.119892131071758D+03 0.520522063885423D+00 0.643150835581754D+02 -.614020050343869D+02
 0.111371803250066D+03 0.897541705698529D+02 -.658592291903572D+02 -.322945118267502D+01
 0.312224606960165D+03 0.272503933317151D+03 -.983469728519987D+02 0.116420292255945D+03
 0.388247171904018D+03 -.362778625950889D+03 0.998911184841805D+02 -.517888360388827D+02
 0.000000000000000D+00 -.000000000000000D+00 -.000000000000000D+00 -.000000000000000D+00
 0.466182854459358D+03 0.000000000000000D+00 0.000000000000000D+00 0.466182854459358D+03
 0.497678002308885D+03 0.000000000000000D+00 0.000000000000000D+00 -.497678002308885D+03
 0.120298355350134D+03 0.802118617061714D+00 0.650663409840903D+02 -.614020050343869D+02
 0.111172756462694D+03 0.900150792422854D+02 -.651631639316045D+02 -.322945118267502D+01
 0.312255324611205D+03 0.273236066379030D+03 -.963937515029076D+02 0.116420292255945D+03
 0.388030068410392D+03 -.361868527476806D+03 0.102319124897101D+03 -.517888360388827D+02
 0.321043519338180D+02 -.218473676157044D+01 -.582855044667948D+01 -.314951478495275D+02
0.635764583760D-04 0.000000000000D+00 0.000000000000D+00 0.403024040623D-07 0.000000000000D+00  7 -2 2 24 -11 11 -24 21 0 0.34782854D-01 0.14768404D+00 0.19748492D+06 0.19748492D+06 0.19748492D+06 0.10982477D+01  1  2  2  1  7  1       -2 0.162958320509D-02 0.100000000000D+01
-.352246089774D-05 0.000000000000D+00 -.244150340230D-06 0.403024040623D-07 0.000000000000D+00  7 -2 2 24 -11 11 -24 21 2 0.34782854D-01 0.14768404D+00 0.19748492D+06 0.19748492D+06 0.19748492D+06 0.10982477D+01  1  2  3  1  7  1       -2 -.108899786643D-03 0.100000000000D+01
0.404370993059D-05 0.000000000000D+00 0.000000000000D+00 0.403024040623D-07 0.000000000000D+00  7 -2 2 24 -11 11 -24 21 2 0.34782854D-01 0.14768404D+00 0.19748492D+06 0.19748492D+06 0.19748492D+06 0.10982477D+01  1  2 15  1  7  1       -2 0.125014630814D-03 0.100000000000D+01
-.446916701584D-05 0.000000000000D+00 0.000000000000D+00 0.403024040623D-07 0.000000000000D+00  7 -2 2 24 -11 11 -24 21 2 0.34782854D-01 0.14768404D+00 0.19748492D+06 0.19748492D+06 0.19748492D+06 0.10982477D+01  1  2  4  1  7  1       -2 -.138167987843D-03 0.100000000000D+01
0.998549576397D-05 0.000000000000D+00 0.000000000000D+00 0.403024040623D-07 0.000000000000D+00  7 -2 2 24 -11 11 -24 21 2 0.37509044D-01 0.14768404D+00 0.19748492D+06 0.19748492D+06 0.19748492D+06 0.10982477D+01  1  2  5  1  7  1       -2 0.268837280060D-03 0.100000000000D+01
-.995713517389D-05 0.000000000000D+00 0.000000000000D+00 0.403024040623D-07 0.000000000000D+00  7 -2 2 24 -11 11 -24 21 2 0.34782854D-01 0.14768404D+00 0.19748492D+06 0.19748492D+06 0.19748492D+06 0.10982477D+01  1  2  6  1  7  1       -2 -.307833054075D-03 0.100000000000D+01
0.885345300154D-06 0.000000000000D+00 0.000000000000D+00 0.403024040623D-07 0.670262464566D-08  7 -2 2 24 -11 11 -24 21 2 0.34806373D-01 0.15776812D+00 0.20029995D+06 0.20029995D+06 0.20029995D+06 0.10977754D+01  1  2 11  1  7  1       -2 0.248699294382D-04 0.100000000000D+01
0.113104673216D-06 0.000000000000D+00 0.000000000000D+00 0.403024040623D-07 0.884536550740D-12  7 21 2 24 -11 11 -24 2 2 0.34806373D-01 0.15776812D+00 0.20029995D+06 0.20029995D+06 0.20029995D+06 0.10977754D+01  1  2 11  3  7  1       -2 0.359478730164D-04 0.100000000000D+01
  </mgrwgt>
  </event>
  <event>
  8     66 0.27011060E-05 0.13540046E+03 0.75467711E-02 0.92641532E-01
       -2 -1    0    0    0  501 0.00000000E+00 0.00000000E+00 0.23627718E+02 0.23629885E+02 0.32000000E+00 0.0000E+00 0.9000E+01
        2 -1    0    0  501    0 0.00000000E+00 0.00000000E+00 -.22406654E+04 0.22406655E+04 0.32000000E+00 0.0000E+00 0.9000E+01
       25  2    1    2    0    0 -.13114394E+02 -.31840054E+02 -.10375740E+04 0.10811089E+04 0.30174625E+03 0.0000E+00 0.0000E+00
       23  2    1    2    0    0 0.13114394E+02 0.31840054E+02 -.11794637E+04 0.11831865E+04 0.87234169E+02 0.0000E+00 0.0000E+00
       24  1    3    3    0    0 0.45047755E+02 -.13219374E+02 -.92581911E+03 0.93049035E+03 0.80419002E+02 0.0000E+00 0.9000E+01
      -11  1    4    4    0    0 0.33112810E+02 -.62349385E+01 -.88057448E+03 0.88121890E+03 0.51099893E-03 0.0000E+00 0.9000E+01
       11  1    4    4    0    0 -.19998416E+02 0.38074992E+02 -.29888926E+03 0.30196760E+03 0.51099893E-03 0.0000E+00 0.9000E+01
      -24  1    3    3    0    0 -.58162149E+02 -.18620680E+02 -.11175488E+03 0.15061851E+03 0.80419002E+02 0.0000E+00 0.9000E+01
#aMCatNLO 1  0  0  1  2 0.56871091D+03 0.00000000D+00  -5  7  0 0.00000000D+00 0.00000000D+00 0.00000000D+00 0.00000000D+00 0.00000000D+00
  <mgrwgt>
 0.9604221492D-03    5    2    0
 0.230096262186246D+03 0.000000000000000D+00 0.000000000000000D+00 0.230096262186246D+03
 0.230096262186246D+03 0.000000000000000D+00 0.000000000000000D+00 -.230096262186246D+03
 0.118057286549242D+03 0.450477545981023D+02 -.132193736885064D+02 -.725689666314190D+02
 0.935978115863419D+02 0.331128096999309D+02 -.623493839964701D+01 -.873224925817005D+02
 0.458396566108686D+02 -.199984154130665D+02 0.380749920444374D+02 -.158629278503308D+02
 0.202697769626040D+03 -.581621488849668D+02 -.186206799562840D+02 0.175754387063450D+03
 0.000000000000000D+00 0.000000000000000D+00 -.000000000000000D+00 0.000000000000000D+00
 0.211956663151268D+04 0.000000000000000D+00 0.000000000000000D+00 0.211956663151268D+04
 0.411895073148051D+03 0.000000000000000D+00 0.000000000000000D+00 -.411895073148051D+03
 0.167163047142435D+03 0.347153598031471D+02 0.122494315179764D+03 -.725689666314190D+02
 0.138005402091647D+03 0.247227492560349D+02 0.103966624284043D+03 -.873224925817005D+02
 0.121666357710576D+03 -.260664900418884D+02 0.117777791690408D+03 -.158629278503308D+02
 0.304745165919490D+03 -.765447819816493D+02 0.222831083954326D+03 0.175754387063450D+03
 0.179988173179658D+04 0.431731629643557D+02 -.567069815108541D+03 0.170767155836463D+04
0.476254173932D-05 0.000000000000D+00 0.000000000000D+00 0.453068051666D-08 0.000000000000D+00  7 -2 2 24 -11 11 -24 21 0 0.36352020D-02 0.34471793D+00 0.18333284D+05 0.18333284D+05 0.18333284D+05 0.11877161D+01  1  2  2  1  7  1       -2 0.887505581524D-03 0.100000000000D+01
-.174131773899D-06 0.000000000000D+00 -.182894142850D-07 0.453068051666D-08 0.000000000000D+00  7 -2 2 24 -11 11 -24 21 2 0.36352020D-02 0.34471793D+00 0.18333284D+05 0.18333284D+05 0.18333284D+05 0.11877161D+01  1  2  3  1  7  1       -2 -.457757633619D-04 0.100000000000D+01
0.299090559554D-06 0.000000000000D+00 0.000000000000D+00 0.453068051666D-08 0.000000000000D+00  7 -2 2 24 -11 11 -24 21 2 0.36352020D-02 0.34471793D+00 0.18333284D+05 0.18333284D+05 0.18333284D+05 0.11877161D+01  1  2 15  1  7  1       -2 0.786249308291D-04 0.100000000000D+01
0.975432522954D-05 0.000000000000D+00 -.680975986220D-05 0.453068051666D-08 0.000000000000D+00  7 -2 2 24 -11 11 -24 21 2 0.77815241D-01 0.34471793D+00 0.18333284D+05 0.18333284D+05 0.18333284D+05 0.11877161D+01  1  2  5  1  7  1       -2 0.160865571014D-04 0.100000000000D+01
0.137942176010D-05 0.000000000000D+00 -.221271351628D-05 0.453068051666D-08 0.000000000000D+00  7 21 2 24 -11 11 -24 2 2 0.77815241D-01 0.34471793D+00 0.18333284D+05 0.18333284D+05 0.18333284D+05 0.11877161D+01  1  2  5  3  7  1       -2 0.239808431391D-04 0.100000000000D+01
  </mgrwgt>
  </event>
  <event>
  8     66 0.27011060E-05 0.42042324E+03 0.75467711E-02 0.92291452E-01
       -2 -1    0    0    0  501 0.00000000E+00 0.00000000E+00 0.89478224E+03 0.89478230E+03 0.32000000E+00 0.0000E+00 0.9000E+01
        2 -1    0    0  501    0 0.00000000E+00 0.00000000E+00 -.72964132E+03 0.72964139E+03 0.32000000E+00 0.0000E+00 0.9000E+01
       25  2    1    2    0    0 0.25587663E+03 0.48616920E+03 0.63808195E+03 0.89367653E+03 0.29945922E+03 0.0000E+00 0.0000E+00
       23  2    1    2    0    0 -.25587663E+03 -.48616920E+03 -.47294103E+03 0.73074716E+03 0.92113319E+02 0.0000E+00 0.0000E+00
       24  1    3    3    0    0 0.76756076E+02 0.13714734E+03 0.52365190E+02 0.18414727E+03 0.80419002E+02 0.0000E+00 0.9000E+01
      -13  1    4    4    0    0 -.16298563E+02 -.23538164E+02 -.24085395E+01 0.28731525E+02 0.10565837E+00 0.0000E+00 0.9000E+01
       13  1    4    4    0    0 -.23957807E+03 -.46263103E+03 -.47053249E+03 0.70201564E+03 0.10565837E+00 0.0000E+00 0.9000E+01
      -24  1    3    3    0    0 0.17912055E+03 0.34902186E+03 0.58571676E+03 0.70952926E+03 0.80419002E+02 0.0000E+00 0.9000E+01
#aMCatNLO 1  0  0  1  2 0.10544468D+03 0.00000000D+00  -5  7  0 0.00000000D+00 0.00000000D+00 0.00000000D+00 0.00000000D+00 0.00000000D+00
  <mgrwgt>
 0.1161795734D-02    9    2    0
 0.808003835027497D+03 0.000000000000000D+00 0.000000000000000D+00 0.808003835027497D+03
 0.808003835027497D+03 0.000000000000000D+00 0.000000000000000D+00 -.808003835027497D+03
 0.179755055471997D+03 0.767560755137257D+02 0.137147337264284D+03 0.338197688699702D+02
 0.291263333348911D+02 -.162982689188440D+02 -.235375865524114D+02 -.535646740604106D+01
 0.753756655741582D+03 -.239578359207986D+03 -.462631609905522D+03 -.544723140127319D+03
 0.653369625506524D+03 0.179120552613105D+03 0.349021859193650D+03 0.516259838663390D+03
 0.000000000000000D+00 0.000000000000000D+00 0.000000000000000D+00 0.000000000000000D+00
 0.879841625824104D+03 0.000000000000000D+00 0.000000000000000D+00 0.879841625824104D+03
 0.849363595023360D+03 0.000000000000000D+00 0.000000000000000D+00 -.849363595023360D+03
 0.172654463615162D+03 0.658100403652013D+02 0.133669778456393D+03 0.338197688699702D+02
 0.306668436354773D+02 -.181554781635174D+02 -.241276225133120D+02 -.535646740604106D+01
 0.779398395352932D+03 -.287199005554000D+03 -.477760704220588D+03 -.544723140127319D+03
 0.636724452317602D+03 0.139049514925631D+03 0.336291277922841D+03 0.516259838663390D+03
 0.109761065926291D+03 0.100494928426685D+03 0.319272703546665D+02 0.304780308007434D+02
0.363945561516D-03 0.000000000000D+00 0.000000000000D+00 0.978842944970D-05 0.000000000000D+00  7 -2 2 24 -13 13 -24 21 0 0.13765882D+00 0.11225252D+00 0.31731769D+06 0.31731769D+06 0.31731769D+06 0.10827532D+01  1  2  2  1  7  1       -2 0.648609568274D-03 0.100000000000D+01
-.170200973976D-04 0.000000000000D+00 -.139764678529D-05 0.978842944970D-05 0.000000000000D+00  7 -2 2 24 -13 13 -24 21 2 0.13765882D+00 0.11225252D+00 0.31731769D+06 0.31731769D+06 0.31731769D+06 0.10827532D+01  1  2  3  1  7  1       -2 -.355605071220D-04 0.100000000000D+01
0.220804797878D-04 0.000000000000D+00 0.000000000000D+00 0.978842944970D-05 0.000000000000D+00  7 -2 2 24 -13 13 -24 21 2 0.13765882D+00 0.11225252D+00 0.31731769D+06 0.31731769D+06 0.31731769D+06 0.10827532D+01  1  2 15  1  7  1       -2 0.461332882184D-04 0.100000000000D+01
0.570268330884D-03 0.000000000000D+00 0.000000000000D+00 0.978842944970D-05 0.000000000000D+00  7 -2 2 24 -13 13 -24 21 2 0.15317053D+00 0.11225252D+00 0.38135178D+06 0.38135178D+06 0.38135178D+06 0.10769255D+01  1  2 12  1  7  1       -2 0.872812395009D-03 0.100000000000D+01
-.527444676093D-03 0.000000000000D+00 0.000000000000D+00 0.978842944970D-05 0.000000000000D+00  7 -2 2 24 -13 13 -24 21 2 0.13765882D+00 0.11225252D+00 0.31731769D+06 0.31731769D+06 0.31731769D+06 0.10827532D+01  1  2  4  1  7  1       -2 -.110200310389D-02 0.100000000000D+01
-.149887461457D-02 0.000000000000D+00 -.358366849395D-03 0.978842944970D-05 0.000000000000D+00  7 -2 2 24 -13 13 -24 21 2 0.15510692D+00 0.11225252D+00 0.31731769D+06 0.31731769D+06 0.31731769D+06 0.10827532D+01  1  2  5  1  7  1       -2 -.225882768913D-02 0.100000000000D+01
0.153324696586D-02 0.000000000000D+00 0.355830121959D-03 0.978842944970D-05 0.000000000000D+00  7 -2 2 24 -13 13 -24 21 2 0.13765882D+00 0.11225252D+00 0.31731769D+06 0.31731769D+06 0.31731769D+06 0.10827532D+01  1  2  6  1  7  1       -2 0.320345050768D-02 0.100000000000D+01
0.979947194945D-05 0.000000000000D+00 0.000000000000D+00 0.978842944970D-05 0.000000000000D+00  7 21 2 24 -13 13 -24 2 2 0.15317053D+00 0.11225252D+00 0.38135178D+06 0.38135178D+06 0.38135178D+06 0.10769255D+01  1  2 12  3  7  1       -2 0.126048069716D-03 0.100000000000D+01
-.266663198728D-04 0.000000000000D+00 -.676792345478D-05 0.978842944970D-05 0.000000000000D+00  7 21 2 24 -13 13 -24 2 2 0.15510692D+00 0.11225252D+00 0.31731769D+06 0.31731769D+06 0.31731769D+06 0.10827532D+01  1  2  5  3  7  1       -2 -.338866794650D-03 0.100000000000D+01
  </mgrwgt>
  </event>
  <event>
  8     66 0.27011060E-05 0.14974135E+03 0.75467711E-02 0.10345702E+00
       -2 -1    0    0    0  501 0.00000000E+00 0.00000000E+00 0.19072489E+03 0.19072516E+03 0.32000000E+00 0.0000E+00 0.9000E+01
        2 -1    0    0  501    0 0.00000000E+00 0.00000000E+00 -.54277920E+03 0.54277930E+03 0.32000000E+00 0.0000E+00 0.9000E+01
       25  2    1    2    0    0 0.73985468E+02 0.21356425E+02 -.47102158E+03 0.56514439E+03 0.30264982E+03 0.0000E+00 0.0000E+00
       23  2    1    2    0    0 -.73985468E+02 -.21356425E+02 0.11896726E+03 0.16836006E+03 0.90895294E+02 0.0000E+00 0.0000E+00
       24  1    3    3    0    0 0.24054583E+02 0.31734288E+02 -.54166041E+01 0.89901299E+02 0.80419002E+02 0.0000E+00 0.9000E+01
      -11  1    4    4    0    0 0.19124112E+02 -.65408107E+00 0.50644476E+01 0.19794143E+02 0.51099893E-03 0.0000E+00 0.9000E+01
       11  1    4    4    0    0 -.93109580E+02 -.20702344E+02 0.11390282E+03 0.14856592E+03 0.51099893E-03 0.0000E+00 0.9000E+01
      -24  1    3    3    0    0 0.49930885E+02 -.10377863E+02 -.46560497E+03 0.47524309E+03 0.80419002E+02 0.0000E+00 0.9000E+01
#aMCatNLO 1  0  0  1  1 0.14972209D+03 0.00000000D+00  -5  7  0 0.00000000D+00 0.00000000D+00 0.00000000D+00 0.00000000D+00 0.00000000D+00
  <mgrwgt>
 0.7869520132D-03    7    2    0
 0.321747785419050D+03 0.000000000000000D+00 0.000000000000000D+00 0.321747785419050D+03
 0.321747785419050D+03 0.000000000000000D+00 0.000000000000000D+00 -.321747785419050D+03
 0.995128288759363D+02 0.240545829767326D+02 0.317342881267215D+02 0.430104539783825D+02
 0.253335895974158D+02 0.191241116309177D+02 -.654081071053028D+00 0.166021472759093D+02
 0.231662421565012D+03 -.931095799937981D+02 -.207023438276141D+02 0.211114889666237D+03
 0.286986730799736D+03 0.499308853861478D+02 -.103778632280544D+02 -.270727490920528D+03
 0.000000000000000D+00 -.000000000000000D+00 0.000000000000000D+00 0.000000000000000D+00
 0.408031295463392D+03 0.000000000000000D+00 0.000000000000000D+00 0.408031295463392D+03
 0.402477687806262D+03 0.000000000000000D+00 0.000000000000000D+00 -.402477687806262D+03
 0.983892655975766D+02 0.349819000476715D+02 0.118152083387511D+02 0.430104539783825D+02
 0.282838102814436D+02 0.220846377969207D+02 -.605073576059428D+01 0.166021472759093D+02
 0.231653867702599D+03 -.675272130641966D+02 -.673356761202297D+02 0.211114889666237D+03
 0.302356985404977D+03 0.824719540790629D+02 -.696960050438393D+02 -.270727490920528D+03
 0.149825054283058D+03 -.720112788594585D+02 0.131267208585912D+03 0.555360765713001D+01
0.115353667147D-04 0.000000000000D+00 0.000000000000D+00 0.101640954745D-06 0.000000000000D+00  7 -2 2 24 -11 11 -24 21 0 0.29342319D-01 0.83504521D-01 0.22422472D+05 0.22422472D+05 0.22422472D+05 0.11792520D+01  1  2  2  1  7  1       -2 0.820500121691D-03 0.100000000000D+01
-.185024041430D-06 0.000000000000D+00 -.442988455163D-07 0.101640954745D-06 0.000000000000D+00  7 -2 2 24 -11 11 -24 21 2 0.29342319D-01 0.83504521D-01 0.22422472D+05 0.22422472D+05 0.22422472D+05 0.11792520D+01  1  2  3  1  7  1       -2 -.183015826080D-04 0.100000000000D+01
0.703811195706D-06 0.000000000000D+00 0.000000000000D+00 0.101640954745D-06 0.000000000000D+00  7 -2 2 24 -11 11 -24 21 2 0.29342319D-01 0.83504521D-01 0.22422472D+05 0.22422472D+05 0.22422472D+05 0.11792520D+01  1  2 15  1  7  1       -2 0.696172164389D-04 0.100000000000D+01
-.413705704607D-05 0.000000000000D+00 0.000000000000D+00 0.101640954745D-06 0.000000000000D+00  7 -2 2 24 -11 11 -24 21 2 0.29342319D-01 0.83504521D-01 0.22422472D+05 0.22422472D+05 0.22422472D+05 0.11792520D+01  1  2  4  1  7  1       -2 -.409215422479D-03 0.100000000000D+01
-.132678155453D-05 0.000000000000D+00 -.435774650976D-05 0.101640954745D-06 0.000000000000D+00  7 -2 2 24 -11 11 -24 21 2 0.45930350D-01 0.83504521D-01 0.22422472D+05 0.22422472D+05 0.22422472D+05 0.11792520D+01  1  2  5  1  7  1       -2 -.587299118583D-04 0.100000000000D+01
0.334195745292D-05 0.000000000000D+00 0.395408990606D-05 0.101640954745D-06 0.000000000000D+00  7 -2 2 24 -11 11 -24 21 2 0.29342319D-01 0.83504521D-01 0.22422472D+05 0.22422472D+05 0.22422472D+05 0.11792520D+01  1  2  6  1  7  1       -2 0.330568448967D-03 0.100000000000D+01
0.103771176451D-06 0.000000000000D+00 -.225724371049D-06 0.101640954745D-06 0.000000000000D+00  7 21 2 24 -11 11 -24 2 2 0.45930350D-01 0.83504521D-01 0.22422472D+05 0.22422472D+05 0.22422472D+05 0.11792520D+01  1  2  5  3  7  1       -2 0.525131430674D-04 0.100000000000D+01
  </mgrwgt>
  </event>
  <event>
  8     66 0.27011060E-05 0.30914879E+03 0.75467711E-02 0.83697155E-01
       -2 -1    0    0    0  501 0.00000000E+00 0.00000000E+00 0.70019251E+03 0.70019258E+03 0.32000000E+00 0.0000E+00 0.9000E+01
        2 -1    0    0  501    0 0.00000000E+00 0.00000000E+00 -.14370345E+03 0.14370381E+03 0.32000000E+00 0.0000E+00 0.9000E+01
       25  2    1    2    0    0 0.34566396E+02 0.23232800E+03 0.37206084E+03 0.53281550E+03 0.30048619E+03 0.0000E+00 0.0000E+00
       23  2    1    2    0    0 -.34566396E+02 -.23232800E+03 0.18442821E+03 0.31108088E+03 0.87100024E+02 0.0000E+00 0.0000E+00
       24  1    3    3    0    0 0.13636850E+03 0.15617164E+03 0.16514992E+03 0.27699759E+03 0.80419002E+02 0.0000E+00 0.9000E+01
      -11  1    4    4    0    0 0.20859842E+02 -.97488847E+02 0.45098156E+02 0.10942144E+03 0.51099893E-03 0.0000E+00 0.9000E+01
       11  1    4    4    0    0 -.55426239E+02 -.13483916E+03 0.13933006E+03 0.20165944E+03 0.51099893E-03 0.0000E+00 0.9000E+01
      -24  1    3    3    0    0 -.10180211E+03 0.76156361E+02 0.20691092E+03 0.25581792E+03 0.80419002E+02 0.0000E+00 0.9000E+01
#aMCatNLO 1  0  0  2  1 0.14377182D+04 0.00000000D+00  -5  7  0 0.00000000D+00 0.00000000D+00 0.00000000D+00 0.00000000D+00 0.00000000D+00
  <mgrwgt>
 0.5018971133D-03    3    2    0
 0.317206969319002D+03 0.000000000000000D+00 0.000000000000000D+00 0.317206969319002D+03
 0.317206969319002D+03 0.000000000000000D+00 0.000000000000000D+00 -.317206969319002D+03
 0.223597136762316D+03 0.136368504413978D+03 0.156171643287388D+03 -.232918966756106D+02
 0.105993461835640D+03 0.208598424788483D+02 -.974888469655665D+02 -.359917440670120D+02
 0.146030877095986D+03 -.554262387683937D+02 -.134839157053749D+03 0.844694302374421D+01
 0.158792462944062D+03 -.101802108124433D+03 0.761563607319277D+02 0.508366977188785D+02
 0.000000000000000D+00 0.000000000000000D+00 -.000000000000000D+00 0.000000000000000D+00
 0.234270252385567D+04 0.000000000000000D+00 0.000000000000000D+00 0.234270252385567D+04
 0.111763493173529D+04 0.000000000000000D+00 0.000000000000000D+00 -.111763493173529D+04
 0.797502959326493D+03 -.652801029545437D+02 0.790404801280736D+03 -.232918966756106D+02
 0.376814588258851D+02 -.751332855125175D+01 -.824842968949410D+01 -.359917440670120D+02
 0.108572843438139D+03 -.105705820440361D+03 0.233021675134850D+02 0.844694302374421D+01
 0.627711689980703D+03 -.257122304189760D+03 0.564675571135540D+03 0.508366977188785D+02
 0.188886850401975D+04 0.435621556135916D+03 -.137013411024027D+04 0.122506759212038D+04
0.228038788003D-04 0.000000000000D+00 0.000000000000D+00 0.333658484582D-07 0.000000000000D+00  7 -2 2 24 -11 11 -24 21 0 0.10772196D+00 0.22108256D-01 0.95572977D+05 0.95572977D+05 0.95572977D+05 0.11233394D+01  1  2  2  2  7  2        2 0.497700344938D-03 0.100000000000D+01
-.126586225722D-05 0.000000000000D+00 -.875728989924D-07 0.333658484582D-07 0.000000000000D+00  7 -2 2 24 -11 11 -24 21 2 0.10772196D+00 0.22108256D-01 0.95572977D+05 0.95572977D+05 0.95572977D+05 0.11233394D+01  1  2  3  2  7  2        2 -.348632297267D-04 0.100000000000D+01
0.141824431491D-05 0.000000000000D+00 0.000000000000D+00 0.333658484582D-07 0.000000000000D+00  7 -2 2 24 -11 11 -24 21 2 0.10772196D+00 0.22108256D-01 0.95572977D+05 0.95572977D+05 0.95572977D+05 0.11233394D+01  1  2 15  2  7  2        2 0.390599980979D-04 0.100000000000D+01
  </mgrwgt>
  </event>
  <event>
  8     66 0.27011060E-05 0.89379919E+02 0.75467711E-02 0.10474199E+00
       -2 -1    0    0    0  501 0.00000000E+00 0.00000000E+00 0.50655884E+02 0.50656895E+02 0.32000000E+00 0.0000E+00 0.9000E+01
        2 -1    0    0  501    0 0.00000000E+00 0.00000000E+00 -.84651086E+03 0.84651092E+03 0.32000000E+00 0.0000E+00 0.9000E+01
       25  2    1    2    0    0 0.28007093E+02 0.20564524E+02 -.48410890E+03 0.57071055E+03 0.30023624E+03 0.0000E+00 0.0000E+00
       23  2    1    2    0    0 -.28007093E+02 -.20564524E+02 -.31174607E+03 0.32645727E+03 0.90451298E+02 0.0000E+00 0.0000E+00
       24  1    3    3    0    0 -.30119898E+02 -.93405620E+02 -.11258382E+03 0.16962945E+03 0.80419002E+02 0.0000E+00 0.9000E+01
      -11  1    4    4    0    0 -.22482542E+02 -.14176025E+02 -.31592014E+03 0.31703621E+03 0.51099893E-03 0.0000E+00 0.9000E+01
       11  1    4    4    0    0 -.55245508E+01 -.63884987E+01 0.41740636E+01 0.94210607E+01 0.51099893E-03 0.0000E+00 0.9000E+01
      -24  1    3    3    0    0 0.58126991E+02 0.11397014E+03 -.37152509E+03 0.40108110E+03 0.80419002E+02 0.0000E+00 0.9000E+01
#aMCatNLO 1  0  0  1  2 0.13947916D+03 0.00000000D+00  -5  7  0 0.00000000D+00 0.00000000D+00 0.00000000D+00 0.00000000D+00 0.00000000D+00
  <mgrwgt>
 0.1735667580D-02    7    2    0
 0.207077850691219D+03 0.000000000000000D+00 0.000000000000000D+00 0.207077850691219D+03
 0.207077850691219D+03 0.000000000000000D+00 0.000000000000000D+00 -.207077850691219D+03
 0.151116333914135D+03 -.301198982795068D+02 -.934056201216227D+02 0.820799139778133D+02
 0.796996613251013D+02 -.224825419650704D+02 -.141760253925057D+02 -.751372851931432D+02
 0.284294569048485D+02 -.552455081753629D+01 -.638849874740539D+01 0.271459102246267D+02
 0.154910249238353D+03 0.581269910621136D+02 0.113970144261534D+03 -.340885390092969D+02
 0.000000000000000D+00 -.000000000000000D+00 -.000000000000000D+00 0.000000000000000D+00
 0.325634541186704D+03 0.000000000000000D+00 0.000000000000000D+00 0.325634541186704D+03
 0.263905664402087D+03 0.000000000000000D+00 0.000000000000000D+00 -.263905664402087D+03
 0.131996372786781D+03 0.628420238773943D+01 -.646469101832477D+02 0.820799139778133D+02
 0.751972085325866D+02 -.256509880594863D+01 0.155846495414415D+01 -.751372851931432D+02
 0.272047436037013D+02 0.162918332409154D+01 -.737152844485519D+00 0.271459102246267D+02
 0.202613553045073D+03 0.104099256457506D+03 0.150287565142243D+03 -.340885390092969D+02
 0.152528327620650D+03 -.109447543363389D+03 -.864619670686541D+02 0.617288767846163D+02
0.535217612676D-05 0.000000000000D+00 0.000000000000D+00 0.342812017205D-06 0.000000000000D+00  7 -2 2 24 -11 11 -24 21 0 0.77932953D-02 0.13023252D+00 0.24495317D+05 0.24495317D+05 0.24495317D+05 0.11755934D+01  1  2  2  1  7  1       -2 0.184964267032D-02 0.100000000000D+01
-.269004307195D-06 0.000000000000D+00 -.205537655871D-07 0.342812017205D-06 0.000000000000D+00  7 -2 2 24 -11 11 -24 21 2 0.77932953D-02 0.13023252D+00 0.24495317D+05 0.24495317D+05 0.24495317D+05 0.11755934D+01  1  2  3  1  7  1       -2 -.128478654920D-03 0.100000000000D+01
0.325514681904D-06 0.000000000000D+00 0.000000000000D+00 0.342812017205D-06 0.000000000000D+00  7 -2 2 24 -11 11 -24 21 2 0.77932953D-02 0.13023252D+00 0.24495317D+05 0.24495317D+05 0.24495317D+05 0.11755934D+01  1  2 15  1  7  1       -2 0.155468471578D-03 0.100000000000D+01
0.434033134260D-07 0.000000000000D+00 0.000000000000D+00 0.342812017205D-06 0.000000000000D+00  7 -2 2 24 -11 11 -24 21 2 0.12830251D-01 0.13023252D+00 0.50034290D+05 0.50034290D+05 0.50034290D+05 0.11472692D+01  1  2 12  1  7  1       -2 0.930199571581D-05 0.100000000000D+01
-.115838067769D-05 0.000000000000D+00 -.169106811761D-05 0.342812017205D-06 0.000000000000D+00  7 -2 2 24 -11 11 -24 21 2 0.15637058D-01 0.13023252D+00 0.24495317D+05 0.24495317D+05 0.24495317D+05 0.11755934D+01  1  2  5  1  7  1       -2 -.190684550857D-03 0.100000000000D+01
0.244153711230D-08 0.000000000000D+00 0.000000000000D+00 0.342812017205D-06 0.000000000000D+00  7 21 2 24 -11 11 -24 2 2 0.12830251D-01 0.13023252D+00 0.50034290D+05 0.50034290D+05 0.50034290D+05 0.11472692D+01  1  2 12  3  7  1       -2 0.740852089368D-05 0.100000000000D+01
0.144511537143D-07 0.000000000000D+00 -.127404980669D-06 0.342812017205D-06 0.000000000000D+00  7 21 2 24 -11 11 -24 2 2 0.15637058D-01 0.13023252D+00 0.24495317D+05 0.24495317D+05 0.24495317D+05 0.11755934D+01  1  2  5  3  7  1       -2 0.330091276846D-04 0.100000000000D+01
  </mgrwgt>
  </event>
  <event>
  7     66 0.27011060E-05 0.28595538E+03 0.75467711E-02 0.90594727E-01
       -2 -1    0    0    0  501 0.00000000E+00 0.00000000E+00 0.16094877E+04 0.16094877E+04 0.32000000E+00 0.0000E+00 0.9000E+01
        2 -1    0    0  501    0 0.00000000E+00 0.00000000E+00 -.23955022E+03 0.23955043E+03 0.32000000E+00 0.0000E+00 0.9000E+01
       25  2    1    2    0    0 -.35000635E+03 -.21686697E+03 0.70779490E+03 0.87219852E+03 0.30036796E+03 0.0000E+00 0.0000E+00
       24  1    3    3    0    0 -.31599513E+03 -.25246601E+03 0.61031410E+03 0.73657486E+03 0.80419002E+02 0.0000E+00 0.9000E+01
      -11  1    1    2    0    0 0.27129879E+03 0.28974546E+03 0.10654679E+03 0.41098380E+03 0.51099893E-03 0.0000E+00 0.9000E+01
       11  1    1    2    0    0 0.78707566E+02 -.72878493E+02 0.55559579E+03 0.56585584E+03 0.51099893E-03 0.0000E+00 0.9000E+01
      -24  1    3    3    0    0 -.34011223E+02 0.35599041E+02 0.97480805E+02 0.13562366E+03 0.80419002E+02 0.0000E+00 0.9000E+01
#aMCatNLO 1  0  0  2  1 0.41228574D+03 0.00000000D+00  -5  7  0 0.00000000D+00 0.00000000D+00 0.00000000D+00 0.00000000D+00 0.00000000D+00
  <mgrwgt>
 0.1789062870D-01    9    2    0
 0.620929430282358D+03 0.000000000000000D+00 0.000000000000000D+00 0.620929430282358D+03
 0.620929430282358D+03 0.000000000000000D+00 0.000000000000000D+00 -.620929430282358D+03
 0.423448285365353D+03 -.315995226727470D+03 -.252466066114850D+03 0.961724314470288D+02
 0.494389733172938D+03 0.271298854848478D+03 0.289745449997105D+03 -.294729899790789D+03
 0.229621446800201D+03 0.787076159662874D+02 -.728784112622600D+02 0.203026740089600D+03
 0.943993952262232D+02 -.340112440872955D+02 0.355990273800057D+02 -.446927174583935D+01
 0.000000000000000D+00 0.000000000000000D+00 -.000000000000000D+00 -.000000000000000D+00
 0.797145009485641D+03 0.000000000000000D+00 0.000000000000000D+00 0.797145009485641D+03
 0.951647551407172D+03 0.000000000000000D+00 0.000000000000000D+00 -.951647551407172D+03
 0.529079963726446D+03 -.465879909806122D+03 -.217175424786077D+03 0.961724314470288D+02
 0.455297611735250D+03 0.121861201055964D+03 0.324930837407489D+03 -.294729899790789D+03
 0.210965134192086D+03 0.937929932717468D+01 -.565549237238125D+02 0.203026740089600D+03
 0.113165205315966D+03 -.666724847384531D+02 0.432891802728660D+02 -.446927174583935D+01
 0.440284645923065D+03 0.401311894161437D+03 -.944896691704649D+02 -.154502541921531D+03
0.181755029236D-01 0.000000000000D+00 0.000000000000D+00 0.238508085556D-09 0.000000000000D+00  7 -2 2 24 -11 11 -24 21 0 0.24761351D+00 0.36853899D-01 0.25546725D+06 0.25546725D+06 0.25546725D+06 0.10897530D+01  1  2  2  2  7  2        2 0.191763844271D-01 0.100000000000D+01
-.957755913150D-03 0.000000000000D+00 -.697987169466D-04 0.238508085556D-09 0.000000000000D+00  7 -2 2 24 -11 11 -24 21 2 0.24761351D+00 0.36853899D-01 0.25546725D+06 0.25546725D+06 0.25546725D+06 0.10897530D+01  1  2  3  2  7  2        2 -.120002774857D-02 0.100000000000D+01
0.112861231695D-02 0.000000000000D+00 0.000000000000D+00 0.238508085556D-09 0.000000000000D+00  7 -2 2 24 -11 11 -24 21 2 0.24761351D+00 0.36853899D-01 0.25546725D+06 0.25546725D+06 0.25546725D+06 0.10897530D+01  1  2 15  2  7  2        2 0.141410361358D-02 0.100000000000D+01
0.516880540561D-03 0.000000000000D+00 0.000000000000D+00 0.238508085556D-09 0.000000000000D+00  7 -2 2 24 -11 11 -24 21 2 0.24761351D+00 0.59464714D-01 0.52561512D+06 0.52561512D+06 0.52561512D+06 0.10669803D+01  1  2 12  2  7  2        2 0.351461638940D-03 0.100000000000D+01
-.769399800325D-02 0.000000000000D+00 0.000000000000D+00 0.238508085556D-09 0.000000000000D+00  7 -2 2 24 -11 11 -24 21 2 0.24761351D+00 0.36853899D-01 0.25546725D+06 0.25546725D+06 0.25546725D+06 0.10897530D+01  1  2  4  2  7  2        2 -.964025486511D-02 0.100000000000D+01
-.517847307742D-02 0.000000000000D+00 -.632871477687D-02 0.238508085556D-09 0.000000000000D+00  7 -2 2 24 -11 11 -24 21 2 0.24761351D+00 0.72497256D-01 0.25546725D+06 0.25546725D+06 0.25546725D+06 0.10897530D+01  1  2  5  2  7  2        2 -.306021556153D-02 0.100000000000D+01
0.862535388461D-02 0.000000000000D+00 0.511307619725D-02 0.238508085556D-09 0.000000000000D+00  7 -2 2 24 -11 11 -24 21 2 0.24761351D+00 0.36853899D-01 0.25546725D+06 0.25546725D+06 0.25546725D+06 0.10897530D+01  1  2  6  2  7  2        2 0.108072044877D-01 0.100000000000D+01
0.281518550774D-04 0.000000000000D+00 0.000000000000D+00 0.238508085556D-09 0.000000000000D+00  7 -2 21 24 -11 11 -24 -2 2 0.24761351D+00 0.59464714D-01 0.52561512D+06 0.52561512D+06 0.52561512D+06 0.10669803D+01  1  2 12  4  7  2        2 0.480413727796D-04 0.100000000000D+01
-.505045941349D-05 0.000000000000D+00 -.463734899455D-03 0.238508085556D-09 0.000000000000D+00  7 -2 21 24 -11 11 -24 -2 2 0.24761351D+00 0.72497256D-01 0.25546725D+06 0.25546725D+06 0.25546725D+06 0.10897530D+01  1  2  5  4  7  2        2 -.606866333596D-05 0.100000000000D+01
  </mgrwgt>
  </event>
  <event>
  8     66 0.27011060E-05 0.26241746E+03 0.75467711E-02 0.85172027E-01
       -2 -1    0    0    0  501 0.00000000E+00 0.00000000E+00 0.60144514E+02 0.60145366E+02 0.32000000E+00 0.0000E+00 0.9000E+01
        2 -1    0    0  501    0 0.00000000E+00 0.00000000E+00 -.18982466E+04 0.18982466E+04 0.32000000E+00 0.0000E+00 0.9000E+01
       25  2    1    2    0    0 -.80407056E+02 -.16357650E+03 -.53955328E+03 0.64374298E+03 0.30010785E+03 0.0000E+00 0.0000E+00
       23  2    1    2    0    0 0.80407056E+02 0.16357650E+03 -.12985488E+04 0.13146490E+04 0.94076801E+02 0.0000E+00 0.0000E+00
       24  1    3    3    0    0 -.25230037E+02 -.20901814E+03 -.45183272E+03 0.50492095E+03 0.80419002E+02 0.0000E+00 0.9000E+01
      -13  1    4    4    0    0 0.28002739E+02 0.12143446E+03 -.10422859E+04 0.10497097E+04 0.10565837E+00 0.0000E+00 0.9000E+01
       13  1    4    4    0    0 0.52404317E+02 0.42142038E+02 -.25626285E+03 0.26493929E+03 0.10565837E+00 0.0000E+00 0.9000E+01
      -24  1    3    3    0    0 -.55177019E+02 0.45441639E+02 -.87720554E+02 0.13882204E+03 0.80419002E+02 0.0000E+00 0.9000E+01
#aMCatNLO 1  0  0  1  2 0.12085182D+04 0.00000000D+00  -5  7  0 0.00000000D+00 0.00000000D+00 0.00000000D+00 0.00000000D+00 0.00000000D+00
  <mgrwgt>
 0.6337876659D-03    5    2    0
 0.337890480807948D+03 0.000000000000000D+00 0.000000000000000D+00 0.337890480807948D+03
 0.337890480807948D+03 0.000000000000000D+00 0.000000000000000D+00 -.337890480807948D+03
 0.234274825952335D+03 -.252300376370153D+02 -.209018139613481D+03 0.639714048148089D+02
 0.207042295581677D+03 0.280027132919057D+02 0.121434563694896D+03 -.165336042496039D+03
 0.707589809934480D+02 0.524043435347244D+02 0.421419381139063D+02 -.220153406044381D+02
 0.163704859088437D+03 -.551770191896147D+02 0.454416378046789D+02 0.123379978285668D+03
 0.000000000000000D+00 -.000000000000000D+00 -.000000000000000D+00 0.000000000000000D+00
 0.270217986942606D+04 0.000000000000000D+00 0.000000000000000D+00 0.270217986942606D+04
 0.873982644786054D+03 0.000000000000000D+00 0.000000000000000D+00 -.873982644786054D+03
 0.105710009215250D+03 0.199149734746098D+02 -.147798271790690D+02 0.639714048148089D+02
 0.647079084060969D+03 0.141417534148951D+03 0.609406609019102D+03 -.165336042496039D+03
 0.239603335527543D+03 0.936159176364440D+02 0.219456472082920D+03 -.220153406044381D+02
 0.392236080750824D+03 0.186438025363881D+02 0.363058833625638D+03 0.123379978285668D+03
 0.219153400465753D+04 -.273592227796393D+03 -.117714208754859D+04 0.182819722464001D+04
0.884714451338D-05 0.000000000000D+00 0.000000000000D+00 0.335252929081D-06 0.000000000000D+00  7 -2 2 24 -13 13 -24 21 0 0.92530697D-02 0.29203800D+00 0.68862925D+05 0.68862925D+05 0.68862925D+05 0.11352648D+01  1  2  2  1  7  1       -2 0.616855353813D-03 0.100000000000D+01
-.453321037018D-06 0.000000000000D+00 -.339753644380D-07 0.335252929081D-06 0.000000000000D+00  7 -2 2 24 -13 13 -24 21 2 0.92530697D-02 0.29203800D+00 0.68862925D+05 0.68862925D+05 0.68862925D+05 0.11352648D+01  1  2  3  1  7  1       -2 -.407361894592D-04 0.100000000000D+01
0.547891305926D-06 0.000000000000D+00 0.000000000000D+00 0.335252929081D-06 0.000000000000D+00  7 -2 2 24 -13 13 -24 21 2 0.92530697D-02 0.29203800D+00 0.68862925D+05 0.68862925D+05 0.68862925D+05 0.11352648D+01  1  2 15  1  7  1       -2 0.492344325956D-04 0.100000000000D+01
0.579084692188D-04 0.000000000000D+00 -.179944503142D-04 0.335252929081D-06 0.000000000000D+00  7 -2 2 24 -13 13 -24 21 2 0.28801476D+00 0.29203800D+00 0.68862925D+05 0.68862925D+05 0.68862925D+05 0.11352648D+01  1  2  5  1  7  1       -2 0.289716769367D-05 0.100000000000D+01
0.143704352629D-04 0.000000000000D+00 -.611864287322D-05 0.335252929081D-06 0.000000000000D+00  7 21 2 24 -13 13 -24 2 2 0.28801476D+00 0.29203800D+00 0.68862925D+05 0.68862925D+05 0.68862925D+05 0.11352648D+01  1  2  5  3  7  1       -2 0.553690126166D-05 0.100000000000D+01
  </mgrwgt>
  </event>
  <event>
  8     66 0.27011060E-05 0.53303797E+03 0.75467711E-02 0.88608300E-01
       -2 -1    0    0    0  501 0.00000000E+00 0.00000000E+00 0.10742787E+04 0.10742787E+04 0.32000000E+00 0.0000E+00 0.9000E+01
        2 -1    0    0  501    0 0.00000000E+00 0.00000000E+00 -.70426368E+03 0.70426376E+03 0.32000000E+00 0.0000E+00 0.9000E+01
       25  2    1    2    0    0 0.42329254E+03 0.29065837E+03 -.49132539E+03 0.77153896E+03 0.30035458E+03 0.0000E+00 0.0000E+00
       23  2    1    2    0    0 -.42329254E+03 -.29065837E+03 0.86134037E+03 0.10070035E+04 0.92141012E+02 0.0000E+00 0.0000E+00
       24  1    3    3    0    0 0.18370970E+03 0.20206588E+03 -.39509173E+03 0.48697491E+03 0.80419002E+02 0.0000E+00 0.9000E+01
      -11  1    4    4    0    0 -.45189820E+02 -.27067180E+02 0.43888229E+02 0.68563319E+02 0.51099893E-03 0.0000E+00 0.9000E+01
       11  1    4    4    0    0 -.37810272E+03 -.26359119E+03 0.81745214E+03 0.93844019E+03 0.51099893E-03 0.0000E+00 0.9000E+01
      -24  1    3    3    0    0 0.23958284E+03 0.88592488E+02 -.96233655E+02 0.28456405E+03 0.80419002E+02 0.0000E+00 0.9000E+01
#aMCatNLO 1  0  0  1  1 0.57826993D+03 0.00000000D+00  -5  7  0 0.00000000D+00 0.00000000D+00 0.00000000D+00 0.00000000D+00 0.00000000D+00
  <mgrwgt>
 0.1107442339D-02    3    2    0
 0.869813519453267D+03 0.000000000000000D+00 0.000000000000000D+00 0.869813519453267D+03
 0.869813519453267D+03 0.000000000000000D+00 0.000000000000000D+00 -.869813519453267D+03
 0.581903709727074D+03 0.183709701742326D+03 0.202065883473710D+03 -.507508458709305D+03
 0.607621463857265D+02 -.451898201127766D+02 -.270671801110267D+02 0.302867355852787D+02
 0.785562744159326D+03 -.378102722028599D+03 -.263591191227214D+03 0.636134294401044D+03
 0.311398438634408D+03 0.239582840399049D+03 0.885924878645314D+02 -.158912571277017D+03
 0.000000000000000D+00 -.000000000000000D+00 -.000000000000000D+00 -.000000000000000D+00
 0.102911925916962D+04 0.000000000000000D+00 0.000000000000000D+00 0.102911925916962D+04
 0.165965418084231D+04 0.000000000000000D+00 0.000000000000000D+00 -.165965418084231D+04
 0.688378801229953D+03 0.212938145624158D+03 0.405574491930973D+03 -.507508458709305D+03
 0.529896649661418D+02 -.425724586944492D+02 -.884330263650241D+01 0.302867355852787D+02
 0.723228448516583D+03 -.343386335457783D+03 -.218717363614475D+02 0.636134294401044D+03
 0.368623841647473D+03 0.255229747985489D+03 0.197537062623605D+03 -.158912571277017D+03
 0.855552683651773D+03 -.822090994574151D+02 -.572396515556628D+03 -.630534921672688D+03
0.961156428984D-03 0.000000000000D+00 0.000000000000D+00 0.122475915437D-04 0.000000000000D+00  7 -2 2 24 -11 11 -24 21 0 0.16527365D+00 0.10834827D+00 0.28412948D+06 0.28412948D+06 0.28412948D+06 0.10863026D+01  1  2  2  1  7  1       -2 0.108402060486D-02 0.100000000000D+01
-.378293662537D-04 0.000000000000D+00 -.369109376560D-05 0.122475915437D-04 0.000000000000D+00  7 -2 2 24 -11 11 -24 21 2 0.16527365D+00 0.10834827D+00 0.28412948D+06 0.28412948D+06 0.28412948D+06 0.10863026D+01  1  2  3  1  7  1       -2 -.503470654759D-04 0.100000000000D+01
0.554277975145D-04 0.000000000000D+00 0.000000000000D+00 0.122475915437D-04 0.000000000000D+00  7 -2 2 24 -11 11 -24 21 2 0.16527365D+00 0.10834827D+00 0.28412948D+06 0.28412948D+06 0.28412948D+06 0.10863026D+01  1  2 15  1  7  1       -2 0.737687999299D-04 0.100000000000D+01
  </mgrwgt>
  </event>
  <event>
  9     66 0.27011060E-05 0.22137537E+03 0.75467711E-02 0.10261598E+00
       21 -1    0    0  502  501 0.00000000E+00 0.00000000E+00 0.19263156E+03 0.19263302E+03 0.75000000E+00 0.0000E+00 0.9000E+01
        2 -1    0    0  501    0 0.00000000E+00 0.00000000E+00 -.59006945E+03 0.59006953E+03 0.32000000E+00 0.0000E+00 0.9000E+01
       25  2    1    2    0    0 -.49723373E+02 0.89398268E+02 -.41165620E+03 0.51929434E+03 0.29956855E+03 0.0000E+00 0.0000E+00
       23  2    1    2    0    0 0.10943666E+03 -.42789639E+02 0.75872807E+02 0.16573827E+03 0.88910936E+02 0.0000E+00 0.0000E+00
       24  1    3    3    0    0 0.30422435E+02 -.76696809E+02 -.14243169E+03 0.18319914E+03 0.80419002E+02 0.0000E+00 0.9000E+01
      -13  1    4    4    0    0 0.79862278E+02 -.16552682E+01 0.69259989E+01 0.80179199E+02 0.10565837E+00 0.0000E+00 0.9000E+01
       13  1    4    4    0    0 0.29574380E+02 -.41134371E+02 0.68946808E+02 0.85559067E+02 0.10565837E+00 0.0000E+00 0.9000E+01
      -24  1    3    3    0    0 -.80145808E+02 0.16609508E+03 -.26922452E+03 0.33609520E+03 0.80419002E+02 0.0000E+00 0.9000E+01
        2  1    1    2  502    0 -.59713285E+02 -.46608629E+02 -.61654489E+02 0.97669950E+02 0.32000000E+00 0.0000E+00 0.9000E+01
#aMCatNLO 2  0  0  1  1 0.75749856D+02 0.00000000D+00  -5  7  0 0.00000000D+00 0.00000000D+00 0.00000000D+00 0.00000000D+00 0.00000000D+00
  <mgrwgt>
 0.1942056652D-03    1    2    0
 0.296133898445381D+03 0.000000000000000D+00 0.000000000000000D+00 0.296133898445381D+03
 0.296133898445381D+03 0.000000000000000D+00 0.000000000000000D+00 -.296133898445381D+03
 0.134110451201161D+03 0.171583083121294D+02 -.870499950388320D+02 -.603845012119306D+02
 0.887424079364303D+02 0.705930053699630D+02 -.889030896328044D+01 0.530358837555253D+02
 0.138304360744112D+03 0.157556509487171D+02 -.519204475309995D+02 0.127216833761104D+03
 0.231110577009060D+03 -.103506964630809D+03 0.147860751533112D+03 -.119868216304698D+03
 0.000000000000000D+00 -.000000000000000D+00 -.000000000000000D+00 -.000000000000000D+00
 0.329332644505776D+03 0.000000000000000D+00 0.000000000000000D+00 0.329332644505776D+03
 0.345141555027339D+03 0.000000000000000D+00 0.000000000000000D+00 -.345141555027339D+03
 0.130082393021501D+03 0.304224349515355D+02 -.766968088308478D+02 -.603845012119306D+02
 0.958829462104312D+02 0.798623483207708D+02 -.165521266148011D+01 0.530358837555253D+02
 0.136933573820478D+03 0.295743099316091D+02 -.411344264469214D+02 0.127216833761104D+03
 0.234193361177903D+03 -.801458081994693D+02 0.166095077029445D+03 -.119868216304698D+03
 0.773819253028021D+02 -.597132850044461D+02 -.466086290901956D+02 -.158089105215636D+02
0.197642497212D-06 0.000000000000D+00 0.000000000000D+00 0.179887708753D-06 0.405177706210D-11  7 21 2 24 -13 13 -24 2 2 0.29635715D-01 0.90779944D-01 0.68304182D+05 0.68304182D+05 0.68304182D+05 0.11355662D+01  1  2  1  3  7  1       -2 0.194205665206D-03 0.100000000000D+01
  </mgrwgt>
  </event>
  <event>
  8     66 0.27011060E-05 0.14213683E+03 0.75467711E-02 0.97317079E-01
       -2 -1    0    0    0  501 0.00000000E+00 0.00000000E+00 0.11852226E+03 0.11852269E+03 0.32000000E+00 0.0000E+00 0.9000E+01
        2 -1    0    0  501    0 0.00000000E+00 0.00000000E+00 -.14412574E+04 0.14412574E+04 0.32000000E+00 0.0000E+00 0.9000E+01
       25  2    1    2    0    0 -.31556349E+03 0.14357592E+03 -.84455636E+03 0.96098281E+03 0.30003026E+03 0.0000E+00 0.0000E+00
       23  2    1    2    0    0 0.31556349E+03 -.14357592E+03 -.47817875E+03 0.59879729E+03 0.98533833E+02 0.0000E+00 0.0000E+00
       24  1    3    3    0    0 -.17991949E+03 -.19009457E+02 -.57921066E+03 0.61211485E+03 0.80419002E+02 0.0000E+00 0.9000E+01
      -13  1    4    4    0    0 0.16956747E+02 -.82969060E+01 0.19220515E+00 0.18879036E+02 0.10565837E+00 0.0000E+00 0.9000E+01
       13  1    4    4    0    0 0.29860674E+03 -.13527902E+03 -.47837096E+03 0.57991826E+03 0.10565837E+00 0.0000E+00 0.9000E+01
      -24  1    3    3    0    0 -.13564400E+03 0.16258538E+03 -.26534570E+03 0.34886796E+03 0.80419002E+02 0.0000E+00 0.9000E+01
#aMCatNLO 1  0  0  2  1 0.22637740D+02 0.00000000D+00  -5  7  0 0.00000000D+00 0.00000000D+00 0.00000000D+00 0.00000000D+00 0.00000000D+00
  <mgrwgt>
 0.1082042198D-02    6    2    0
 0.413305514528528D+03 0.000000000000000D+00 0.000000000000000D+00 0.413305514528528D+03
 0.413305514528528D+03 0.000000000000000D+00 0.000000000000000D+00 -.413305514528528D+03
 0.228187474761834D+03 -.179919490252065D+03 -.190094566042887D+02 -.113445693046756D+03
 0.359311703401898D+02 0.169564249575656D+02 -.829676088520302D+01 0.305727397118404D+02
 0.328796934010012D+03 0.298607064714151D+03 -.135279163530414D+03 0.253138821932703D+02
 0.233695449945021D+03 -.135643999419651D+03 0.162585381019906D+03 0.575590711416448D+02
 0.000000000000000D+00 0.000000000000000D+00 -.000000000000000D+00 0.000000000000000D+00
 0.428166174903229D+03 0.000000000000000D+00 0.000000000000000D+00 0.428166174903229D+03
 0.422172528397461D+03 0.000000000000000D+00 0.000000000000000D+00 -.422172528397461D+03
 0.228013263215778D+03 -.180249186983587D+03 -.127725318098814D+02 -.113445693046756D+03
 0.356932286328610D+02 0.169046619324918D+02 -.731755161908065D+01 0.305727397118404D+02
 0.324788904697038D+03 0.298134717572087D+03 -.126343698540207D+03 0.253138821932703D+02
 0.238425555324800D+03 -.135985201744335D+03 0.169039958925197D+03 0.575590711416448D+02
 0.234177514302126D+02 0.119500922334263D+01 -.226061769560278D+02 0.599364650576830D+01
0.152421549335D-04 0.000000000000D+00 0.000000000000D+00 0.117712545705D-06 0.000000000000D+00  7 -2 2 24 -13 13 -24 21 0 0.18234230D-01 0.22173194D+00 0.14868100D+06 0.14868100D+06 0.14868100D+06 0.11078547D+01  1  2  2  2  7  2        2 0.629792850555D-03 0.100000000000D+01
-.841826483245D-06 0.000000000000D+00 -.585338882961D-07 0.117712545705D-06 0.000000000000D+00  7 -2 2 24 -13 13 -24 21 2 0.18234230D-01 0.22173194D+00 0.14868100D+06 0.14868100D+06 0.14868100D+06 0.11078547D+01  1  2  3  2  7  2        2 -.426913182453D-04 0.100000000000D+01
0.983738620810D-06 0.000000000000D+00 0.000000000000D+00 0.117712545705D-06 0.000000000000D+00  7 -2 2 24 -13 13 -24 21 2 0.18234230D-01 0.22173194D+00 0.14868100D+06 0.14868100D+06 0.14868100D+06 0.11078547D+01  1  2 15  2  7  2        2 0.498880700086D-04 0.100000000000D+01
0.262385478652D-04 0.000000000000D+00 0.000000000000D+00 0.117712545705D-06 0.000000000000D+00  7 -2 2 24 -13 13 -24 21 2 0.18234230D-01 0.23036412D+00 0.15761723D+06 0.15761723D+06 0.15761723D+06 0.11058583D+01  1  2 12  2  7  2        2 0.123401485591D-02 0.100000000000D+01
-.156571408377D-04 0.000000000000D+00 0.000000000000D+00 0.117712545705D-06 0.000000000000D+00  7 -2 2 24 -13 13 -24 21 2 0.18234230D-01 0.22173194D+00 0.14868100D+06 0.14868100D+06 0.14868100D+06 0.11078547D+01  1  2  4  2  7  2        2 -.794016339019D-03 0.100000000000D+01
0.296633665279D-06 0.000000000000D+00 0.000000000000D+00 0.117712545705D-06 0.000000000000D+00  7 -2 21 24 -13 13 -24 -2 2 0.18234230D-01 0.23036412D+00 0.15761723D+06 0.15761723D+06 0.15761723D+06 0.11058583D+01  1  2 12  4  7  2        2 0.505407858311D-05 0.100000000000D+01
  </mgrwgt>
  </event>
  <event>
  8     66 0.27011060E-05 0.33426335E+03 0.75467711E-02 0.99405934E-01
       -2 -1    0    0    0  501 0.00000000E+00 0.00000000E+00 0.21597559E+03 0.21597582E+03 0.32000000E+00 0.0000E+00 0.9000E+01
        2 -1    0    0  501    0 0.00000000E+00 0.00000000E+00 -.89677952E+03 0.89677958E+03 0.32000000E+00 0.0000E+00 0.9000E+01
       25  2    1    2    0    0 0.59689515E+02 -.26314775E+03 -.72469596E+03 0.82443558E+03 0.28583248E+03 0.0000E+00 0.0000E+00
       23  2    1    2    0    0 -.59689515E+02 0.26314775E+03 0.43892025E+02 0.28831983E+03 0.91609134E+02 0.0000E+00 0.0000E+00
       24  1    3    3    0    0 0.75320937E+02 -.28418209E+03 -.51668789E+03 0.59988857E+03 0.80419002E+02 0.0000E+00 0.9000E+01
      -11  1    4    4    0    0 0.14817404E+02 0.81159874E+02 -.13200129E+02 0.83550728E+02 0.51099893E-03 0.0000E+00 0.9000E+01
       11  1    4    4    0    0 -.74506920E+02 0.18198788E+03 0.57092154E+02 0.20476910E+03 0.51099893E-03 0.0000E+00 0.9000E+01
      -24  1    3    3    0    0 -.15631422E+02 0.21034339E+02 -.20800807E+03 0.22454701E+03 0.80419002E+02 0.0000E+00 0.9000E+01
#aMCatNLO 1  0  0  2  2 0.11314981D+01 0.00000000D+00  -5  7  0 0.00000000D+00 0.00000000D+00 0.00000000D+00 0.00000000D+00 0.00000000D+00
  <mgrwgt>
 0.8939832317D-03    6    2    0
 0.440093906602612D+03 0.000000000000000D+00 0.000000000000000D+00 0.440093906602612D+03
 0.440093906602612D+03 0.000000000000000D+00 0.000000000000000D+00 -.440093906602612D+03
 0.358748545968020D+03 0.753209373734446D+02 -.284182092213947D+03 -.189210459906125D+03
 0.954169350983570D+02 0.148174044736849D+02 0.811598742095271D+02 0.479365293541472D+02
 0.303033601685257D+03 -.745069199072452D+02 0.181987879405411D+03 0.230561259507742D+03
 0.122988730453590D+03 -.156314219398843D+02 0.210343385990087D+02 -.892873289557637D+02
 0.000000000000000D+00 0.000000000000000D+00 -.000000000000000D+00 0.000000000000000D+00
 0.442197930822013D+03 0.000000000000000D+00 0.000000000000000D+00 0.442197930822013D+03
 0.440246420261751D+03 0.000000000000000D+00 0.000000000000000D+00 -.440246420261751D+03
 0.358546251476450D+03 0.748813986521368D+02 -.284042913116056D+03 -.189210459906125D+03
 0.954303499821207D+02 0.147004584537944D+02 0.811969049437064D+02 0.479365293541472D+02
 0.303195787194576D+03 -.748784007702833D+02 0.182105508112268D+03 0.230561259507742D+03
 0.123016151832913D+03 -.157821670335068D+02 0.210820717454295D+02 -.892873289557637D+02
 0.225581059770503D+01 0.107871069785887D+01 -.341571685347820D+00 0.195151056026142D+01
0.294149728789D-04 0.000000000000D+00 0.000000000000D+00 0.430538069897D-08 0.000000000000D+00  7 -2 2 24 -11 11 -24 21 0 0.33227036D-01 0.13796610D+00 0.11173199D+06 0.11173199D+06 0.11173199D+06 0.11177898D+01  1  2  2  2  7  2        2 0.908766613219D-03 0.100000000000D+01
-.148384091329D-05 0.000000000000D+00 -.112961240995D-06 0.430538069897D-08 0.000000000000D+00  7 -2 2 24 -11 11 -24 21 2 0.33227036D-01 0.13796610D+00 0.11173199D+06 0.11173199D+06 0.11173199D+06 0.11177898D+01  1  2  3  2  7  2        2 -.572784901938D-04 0.100000000000D+01
0.189164826269D-05 0.000000000000D+00 0.000000000000D+00 0.430538069897D-08 0.000000000000D+00  7 -2 2 24 -11 11 -24 21 2 0.33227036D-01 0.13796610D+00 0.11173199D+06 0.11173199D+06 0.11173199D+06 0.11177898D+01  1  2 15  2  7  2        2 0.730204670153D-04 0.100000000000D+01
-.124258822956D-03 0.000000000000D+00 0.000000000000D+00 0.430538069897D-08 0.000000000000D+00  7 -2 2 24 -11 11 -24 21 2 0.33227036D-01 0.13796610D+00 0.11173199D+06 0.11173199D+06 0.11173199D+06 0.11177898D+01  1  2  4  2  7  2        2 -.479657738807D-02 0.100000000000D+01
0.124259521119D-03 0.000000000000D+00 0.000000000000D+00 0.430538069897D-08 0.224040860213D-07  7 -2 2 24 -11 11 -24 21 2 0.33385889D-01 0.13801391D+00 0.11213299D+06 0.11213299D+06 0.11213299D+06 0.11176635D+01  1  2 11  2  7  2        2 0.475218452115D-02 0.100000000000D+01
0.420633890079D-06 0.000000000000D+00 0.000000000000D+00 0.430538069897D-08 0.145648520585D-11  7 -2 21 24 -11 11 -24 -2 2 0.33385889D-01 0.13801391D+00 0.11213299D+06 0.11213299D+06 0.11213299D+06 0.11176635D+01  1  2 11  4  7  2        2 0.138675085624D-04 0.100000000000D+01
  </mgrwgt>
  </event>
  <event>
  8     66 0.27011060E-05 0.35197247E+03 0.75467711E-02 0.88141650E-01
       -2 -1    0    0    0  501 0.00000000E+00 0.00000000E+00 0.15792461E+03 0.15792494E+03 0.32000000E+00 0.0000E+00 0.9000E+01
        2 -1    0    0  501    0 0.00000000E+00 0.00000000E+00 -.10314661E+04 0.10314661E+04 0.32000000E+00 0.0000E+00 0.9000E+01
       25  2    1    2    0    0 -.61048449E+02 0.31826135E+03 -.33516143E+03 0.55438014E+03 0.29997826E+03 0.0000E+00 0.0000E+00
       23  2    1    2    0    0 0.61048449E+02 -.31826135E+03 -.53838003E+03 0.63501092E+03 0.91480105E+02 0.0000E+00 0.0000E+00
       24  1    3    3    0    0 0.12651888E+02 0.21021308E+03 -.33139393E+03 0.40079766E+03 0.80419002E+02 0.0000E+00 0.9000E+01
      -11  1    4    4    0    0 0.13140319E+02 -.29776618E+02 -.15818068E+02 0.36187377E+02 0.51099893E-03 0.0000E+00 0.9000E+01
       11  1    4    4    0    0 0.47908130E+02 -.28848473E+03 -.52256197E+03 0.59882355E+03 0.51099893E-03 0.0000E+00 0.9000E+01
      -24  1    3    3    0    0 -.73700337E+02 0.10804827E+03 -.37674941E+01 0.15358248E+03 0.80419002E+02 0.0000E+00 0.9000E+01
#aMCatNLO 1  0  0  2  2 0.80489677D+03 0.00000000D+00  -5  7  0 0.00000000D+00 0.00000000D+00 0.00000000D+00 0.00000000D+00 0.00000000D+00
  <mgrwgt>
 0.1261253042D-02    3    2    0
 0.403601417892286D+03 0.000000000000000D+00 0.000000000000000D+00 0.403601417892286D+03
 0.403601417892286D+03 0.000000000000000D+00 0.000000000000000D+00 -.403601417892286D+03
 0.231935282197606D+03 0.126518881370775D+02 0.210213084963605D+03 -.545632459661622D+02
 0.362030500405305D+02 0.131403187348626D+02 -.297766184244627D+02 0.158538907208080D+02
 0.316842086479852D+03 0.479081300237905D+02 -.288484733777964D+03 -.121943746127411D+03
 0.222222417066584D+03 -.737003368957307D+02 0.108048267238822D+03 0.160653101372765D+03
 0.000000000000000D+00 -.000000000000000D+00 0.000000000000000D+00 0.000000000000000D+00
 0.179183351785422D+04 0.000000000000000D+00 0.000000000000000D+00 0.179183351785422D+04
 0.702518679458533D+03 0.000000000000000D+00 0.000000000000000D+00 -.702518679458533D+03
 0.268215049877985D+03 0.207113280870085D+03 0.139996564613368D+03 -.545632459661622D+02
 0.735335999832137D+02 0.558065741163481D+02 -.451826378258344D+02 0.158538907208080D+02
 0.590070013339729D+03 0.400520892041666D+03 -.415806876399741D+03 -.121943746127411D+03
 0.208109068599563D+03 0.936150774362458D+02 0.476336727003591D+02 0.160653101372765D+03
 0.135442446551227D+04 -.757055824464345D+03 0.273359276911848D+03 0.108931483839569D+04
0.283853050441D-04 0.000000000000D+00 0.000000000000D+00 0.446804796328D-05 0.000000000000D+00  7 -2 2 24 -11 11 -24 21 0 0.24296123D-01 0.15868712D+00 0.12388462D+06 0.12388462D+06 0.12388462D+06 0.11141679D+01  1  2  2  2  7  2        2 0.124647643652D-02 0.100000000000D+01
-.154104028194D-05 0.000000000000D+00 -.109007045392D-06 0.446804796328D-05 0.000000000000D+00  7 -2 2 24 -11 11 -24 21 2 0.24296123D-01 0.15868712D+00 0.12388462D+06 0.12388462D+06 0.12388462D+06 0.11141679D+01  1  2  3  2  7  2        2 -.840051225145D-04 0.100000000000D+01
0.181211118128D-05 0.000000000000D+00 0.000000000000D+00 0.446804796328D-05 0.000000000000D+00  7 -2 2 24 -11 11 -24 21 2 0.24296123D-01 0.15868712D+00 0.12388462D+06 0.12388462D+06 0.12388462D+06 0.11141679D+01  1  2 15  2  7  2        2 0.987817278868D-04 0.100000000000D+01
  </mgrwgt>
  </event>
  <event>
  9     66 -.27011060E-05 0.63244535E+03 0.75467711E-02 0.91550860E-01
       -2 -1    0    0    0  501 0.00000000E+00 0.00000000E+00 0.60018844E+03 0.60018852E+03 0.32000000E+00 0.0000E+00 0.9000E+01
        2 -1    0    0  502    0 0.00000000E+00 0.00000000E+00 -.76688641E+03 0.76688648E+03 0.32000000E+00 0.0000E+00 0.9000E+01
       25  2    1    2    0    0 -.44373809E+02 -.59799753E+03 0.92036677E+01 0.67044885E+03 0.29974467E+03 0.0000E+00 0.0000E+00
       23  2    1    2    0    0 0.10157520E+03 0.60174720E+03 -.16070087E+03 0.63731608E+03 0.89049469E+02 0.0000E+00 0.0000E+00
       24  1    3    3    0    0 -.57103102E+02 -.54857412E+03 -.47852053E+02 0.55942057E+03 0.80419002E+02 0.0000E+00 0.9000E+01
      -13  1    4    4    0    0 0.80074032E+01 0.23819466E+03 -.32005598E+02 0.24046867E+03 0.10565837E+00 0.0000E+00 0.9000E+01
       13  1    4    4    0    0 0.93567794E+02 0.36355254E+03 -.12869527E+03 0.39684741E+03 0.10565837E+00 0.0000E+00 0.9000E+01
      -24  1    3    3    0    0 0.12729293E+02 -.49423404E+02 0.57055720E+02 0.11102828E+03 0.80419002E+02 0.0000E+00 0.9000E+01
       21  1    1    2  502  501 -.57201389E+02 -.37496716E+01 -.15200772E+02 0.59310074E+02 0.75000000E+00 0.0000E+00 0.9000E+01
#aMCatNLO 2  0  0  2  1 0.57324156D+02 0.00000000D+00  -5  7  0 0.00000000D+00 0.00000000D+00 0.00000000D+00 0.00000000D+00 0.00000000D+00
  <mgrwgt>
 -.2525408639D-03    3    2    0
 0.648847371893223D+03 0.000000000000000D+00 0.000000000000000D+00 0.648847371893223D+03
 0.648847371893223D+03 0.000000000000000D+00 0.000000000000000D+00 -.648847371893223D+03
 0.562277451488778D+03 -.817734360466881D+02 -.550191316734359D+03 0.170685865136730D+02
 0.237556861079714D+03 -.247675429752961D+01 0.237507228089487D+03 -.417666606813836D+01
 0.379727980157147D+03 0.767322178365284D+02 0.362449105257893D+03 -.832835623509669D+02
 0.118132451060806D+03 0.751797250768933D+01 -.497650166130203D+02 0.703916419054323D+02
 0.000000000000000D+00 -.000000000000000D+00 -.000000000000000D+00 -.000000000000000D+00
 0.674254074176758D+03 0.000000000000000D+00 0.000000000000000D+00 0.674254074176758D+03
 0.682640540761250D+03 0.000000000000000D+00 0.000000000000000D+00 -.682640540761250D+03
 0.557631497209216D+03 -.571031015739384D+02 -.548574124317291D+03 0.170685865136730D+02
 0.238365624310641D+03 0.800728274077844D+01 0.238194478812307D+03 -.417666606813836D+01
 0.384527875617006D+03 0.935679147086948D+02 0.363552720668855D+03 -.832835623509669D+02
 0.118435243573507D+03 0.127292927305172D+02 -.494234035896306D+02 0.703916419054323D+02
 0.579343742276383D+02 -.572013886060520D+02 -.374967157423995D+01 -.838646658449176D+01
-.217249050233D-03 0.000000000000D+00 0.000000000000D+00 0.125613713325D-05 0.000000000000D+00  7 -2 2 24 -13 13 -24 21 2 0.88857019D-01 0.12007807D+00 0.43802593D+06 0.43802593D+06 0.43802593D+06 0.10725959D+01  1  2 13  2  7  2        2 -.120688856505D-02 0.100000000000D+01
-.546414737749D-05 0.000000000000D+00 0.000000000000D+00 0.125613713325D-05 0.000000000000D+00  7 -2 2 24 -13 13 -24 21 2 0.88857019D-01 0.11214157D+00 0.39998713D+06 0.39998713D+06 0.39998713D+06 0.10754286D+01  1  2  8  2  7  2        2 -.333784246573D-04 0.100000000000D+01
0.190242264393D-03 0.000000000000D+00 0.000000000000D+00 0.125613713325D-05 0.234819690709D-08  7 -2 2 24 -13 13 -24 21 2 0.92336364D-01 0.11798211D+00 0.43802593D+06 0.43802593D+06 0.43802593D+06 0.10725959D+01  1  2  1  2  7  2        2 0.987726125774D-03 0.100000000000D+01
  </mgrwgt>
  </event>
  <event>
  9     66 0.27011060E-05 0.21946227E+03 0.75467711E-02 0.10423182E+00
       -2 -1    0    0    0  501 0.00000000E+00 0.00000000E+00 0.75843697E+03 0.75843704E+03 0.32000000E+00 0.0000E+00 0.9000E+01
        2 -1    0    0  502    0 0.00000000E+00 0.00000000E+00 -.13281274E+03 0.13281312E+03 0.32000000E+00 0.0000E+00 0.9000E+01
       25  2    1    2    0    0 -.42143337E+02 -.11570108E+03 0.11433144E+03 0.34369266E+03 0.29981688E+03 0.0000E+00 0.0000E+00
       23  2    1    2    0    0 0.21945603E+02 0.13124632E+03 0.46649108E+03 0.49600793E+03 0.10345403E+03 0.0000E+00 0.0000E+00
       24  1    3    3    0    0 0.67956941E+02 -.33268190E-01 0.12637920E+03 0.16449032E+03 0.80419002E+02 0.0000E+00 0.9000E+01
      -13  1    4    4    0    0 0.10545806E+02 0.13985974E+03 0.32730831E+03 0.35609367E+03 0.10565837E+00 0.0000E+00 0.9000E+01
       13  1    4    4    0    0 0.11399797E+02 -.86134213E+01 0.13918277E+03 0.13991426E+03 0.10565837E+00 0.0000E+00 0.9000E+01
      -24  1    3    3    0    0 -.11010028E+03 -.11566781E+03 -.12047753E+02 0.17920234E+03 0.80419002E+02 0.0000E+00 0.9000E+01
       21  1    1    2  502  501 0.20197734E+02 -.15545239E+02 0.44801713E+02 0.51549577E+02 0.75000000E+00 0.0000E+00 0.9000E+01
#aMCatNLO 2  0  0  2  1 0.25487309D+02 0.00000000D+00  -5  7  0 0.00000000D+00 0.00000000D+00 0.00000000D+00 0.00000000D+00 0.00000000D+00
  <mgrwgt>
 0.4430617189D-03    2    2    0
 0.302940867103402D+03 0.000000000000000D+00 0.000000000000000D+00 0.302940867103402D+03
 0.302940867103402D+03 0.000000000000000D+00 0.000000000000000D+00 -.302940867103402D+03
 0.109083698482008D+03 0.715524233980491D+02 -.280056913992550D+01 0.174483477298570D+02
 0.176507958105867D+03 0.164786144423267D+02 0.135293592307297D+03 0.112156847411786D+03
 0.610839142638240D+02 0.134242745788307D+02 -.101715194580879D+02 0.587160423201028D+02
 0.259206163355104D+03 -.101455312419207D+03 -.122321503709284D+03 -.188321237461746D+03
 0.000000000000000D+00 0.000000000000000D+00 -.000000000000000D+00 0.000000000000000D+00
 0.323769760762785D+03 0.000000000000000D+00 0.000000000000000D+00 0.323769760762785D+03
 0.311107283538521D+03 0.000000000000000D+00 0.000000000000000D+00 -.311107283538521D+03
 0.106723038903281D+03 0.679569358599203D+02 -.332927831208059D-01 0.174483477298570D+02
 0.179585986485962D+03 0.105458462827432D+02 0.139859762787466D+03 0.112156847411786D+03
 0.604294512343340D+02 0.113997789738363D+02 -.861336113804217D+01 0.587160423201028D+02
 0.259679101243135D+03 -.110100295079089D+03 -.115667870268482D+03 -.188321237461746D+03
 0.284594664345930D+02 0.201977339625891D+02 -.155452385978211D+02 0.126624772242644D+02
-.267178552368D-06 0.000000000000D+00 0.000000000000D+00 0.189064318501D-07 0.000000000000D+00  7 -2 2 24 -13 13 -24 21 2 0.10917445D+00 0.19896101D-01 0.48163686D+05 0.48163686D+05 0.48163686D+05 0.11487275D+01  1  2  8  2  7  2        2 -.849252821148D-05 0.100000000000D+01
0.174165909083D-04 0.000000000000D+00 0.000000000000D+00 0.189064318501D-07 0.203723543176D-09  7 -2 2 24 -13 13 -24 21 2 0.11668081D+00 0.20432443D-01 0.53850921D+05 0.53850921D+05 0.53850921D+05 0.11444718D+01  1  2  1  2  7  2        2 0.451554247069D-03 0.100000000000D+01
  </mgrwgt>
  </event>
  <event>
  8     66 0.27011060E-05 0.29792678E+03 0.75467711E-02 0.99837230E-01
       -2 -1    0    0    0  501 0.00000000E+00 0.00000000E+00 0.11736041E+03 0.11736084E+03 0.32000000E+00 0.0000E+00 0.9000E+01
        2 -1    0    0  501    0 0.00000000E+00 0.00000000E+00 -.12783129E+04 0.12783129E+04 0.32000000E+00 0.0000E+00 0.9000E+01
       25  2    1    2    0    0 -.13465249E+03 -.17145647E+03 -.10863789E+04 0.11479439E+04 0.30004573E+03 0.0000E+00 0.0000E+00
       23  2    1    2    0    0 0.13465249E+03 0.17145647E+03 -.74573572E+02 0.24772987E+03 0.90995908E+02 0.0000E+00 0.0000E+00
       24  1    3    3    0    0 -.18931403E+02 0.58466815E+02 -.29717240E+03 0.31393537E+03 0.80419002E+02 0.0000E+00 0.9000E+01
      -13  1    4    4    0    0 0.11840637E+03 0.11076002E+03 -.86512739E+02 0.18377246E+03 0.10565837E+00 0.0000E+00 0.9000E+01
       13  1    4    4    0    0 0.16246121E+02 0.60696452E+02 0.11939167E+02 0.63957413E+02 0.10565837E+00 0.0000E+00 0.9000E+01
      -24  1    3    3    0    0 -.11572109E+03 -.22992329E+03 -.78920652E+03 0.83400854E+03 0.80419002E+02 0.0000E+00 0.9000E+01
#aMCatNLO 1  0  0  2  2 0.47554571D+02 0.00000000D+00  -5  7  0 0.00000000D+00 0.00000000D+00 0.00000000D+00 0.00000000D+00 0.00000000D+00
  <mgrwgt>
 0.4480734145D-03    4    2    0
 0.387328869997795D+03 0.000000000000000D+00 0.000000000000000D+00 0.387328869997795D+03
 0.387328869997795D+03 0.000000000000000D+00 0.000000000000000D+00 -.387328869997795D+03
 0.120244495417589D+03 -.189314031468541D+02 0.584668152584254D+02 -.649211538120556D+02
 0.201442892233895D+03 0.118406511388692D+03 0.110760089790663D+03 0.119546390166666D+03
 0.133122556832271D+03 0.162459831760691D+02 0.606963848308611D+02 0.117361118078638D+03
 0.319847795511834D+03 -.115721091417907D+03 -.229923289879949D+03 -.171986354433248D+03
 0.000000000000000D+00 0.000000000000000D+00 -.000000000000000D+00 0.000000000000000D+00
 0.434841021102335D+03 0.000000000000000D+00 0.000000000000000D+00 0.434841021102335D+03
 0.400142713757988D+03 0.000000000000000D+00 0.000000000000000D+00 -.400142713757988D+03
 0.123914021526773D+03 -.239475039144562D+02 0.640252264388455D+02 -.649211538120556D+02
 0.202000112763178D+03 0.110117999513799D+03 0.119944705333478D+03 0.119546390166666D+03
 0.135471175777476D+03 0.107278745097067D+02 0.668110779614267D+02 0.117361118078638D+03
 0.314730693737496D+03 -.128758153105797D+03 -.215476740098926D+03 -.171986354433248D+03
 0.588677310554008D+02 0.318597829967472D+02 -.353042696348247D+02 0.346983073443472D+02
0.164081526941D-04 0.000000000000D+00 0.000000000000D+00 0.290605648034D-05 0.000000000000D+00  7 -2 2 24 -13 13 -24 21 0 0.18055484D-01 0.19666356D+00 0.88760368D+05 0.88760368D+05 0.88760368D+05 0.11259962D+01  1  2  2  2  7  2        2 0.855472477126D-03 0.100000000000D+01
-.835236085330D-06 0.000000000000D+00 -.630116267112D-07 0.290605648034D-05 0.000000000000D+00  7 -2 2 24 -13 13 -24 21 2 0.18055484D-01 0.19666356D+00 0.88760368D+05 0.88760368D+05 0.88760368D+05 0.11259962D+01  1  2  3  2  7  2        2 -.552114874506D-04 0.100000000000D+01
0.106774462471D-05 0.000000000000D+00 0.000000000000D+00 0.290605648034D-05 0.000000000000D+00  7 -2 2 24 -13 13 -24 21 2 0.18055484D-01 0.19666356D+00 0.88760368D+05 0.88760368D+05 0.88760368D+05 0.11259962D+01  1  2 15  2  7  2        2 0.705809650507D-04 0.100000000000D+01
-.639561723119D-05 0.000000000000D+00 0.000000000000D+00 0.290605648034D-05 0.000000000000D+00  7 -2 2 24 -13 13 -24 21 2 0.18055484D-01 0.19666356D+00 0.88760368D+05 0.88760368D+05 0.88760368D+05 0.11259962D+01  1  2  4  2  7  2        2 -.422768540178D-03 0.100000000000D+01
  </mgrwgt>
  </event>
  <event>
  8     66 0.27011060E-05 0.93169469E+02 0.75467711E-02 0.93057078E-01
       -2 -1    0    0    0  501 0.00000000E+00 0.00000000E+00 0.46683986E+03 0.46683997E+03 0.32000000E+00 0.0000E+00 0.9000E+01
        2 -1    0    0  501    0 0.00000000E+00 0.00000000E+00 -.13179983E+04 0.13179983E+04 0.32000000E+00 0.0000E+00 0.9000E+01
       25  2    1    2    0    0 -.89108382E+01 -.44888788E+03 -.11273971E+04 0.12501613E+04 0.30049825E+03 0.0000E+00 0.0000E+00
       23  2    1    2    0    0 0.89108382E+01 0.44888788E+03 0.27623870E+03 0.53467702E+03 0.89397798E+02 0.0000E+00 0.0000E+00
       24  1    3    3    0    0 0.67142079E+02 -.63688616E+02 -.14965268E+03 0.19346173E+03 0.80419002E+02 0.0000E+00 0.9000E+01
      -13  1    4    4    0    0 -.24887802E+02 0.38219880E+03 0.22942103E+03 0.44646315E+03 0.10565837E+00 0.0000E+00 0.9000E+01
       13  1    4    4    0    0 0.33798640E+02 0.66689077E+02 0.46817669E+02 0.88213867E+02 0.10565837E+00 0.0000E+00 0.9000E+01
      -24  1    3    3    0    0 -.76052917E+02 -.38519926E+03 -.97774445E+03 0.10566995E+04 0.80419002E+02 0.0000E+00 0.9000E+01
#aMCatNLO 1  0  0  2  1 0.16425998D+03 0.00000000D+00  -5  7  0 0.00000000D+00 0.00000000D+00 0.00000000D+00 0.00000000D+00 0.00000000D+00
  <mgrwgt>
 0.9130615606D-03    9    2    0
 0.784406954162422D+03 0.000000000000000D+00 0.000000000000000D+00 0.784406954162422D+03
 0.784406954162422D+03 0.000000000000000D+00 0.000000000000000D+00 -.784406954162422D+03
 0.138907333501240D+03 0.671420785736937D+02 -.636886158057908D+02 -.652972652382967D+02
 0.632413625097497D+03 -.248878839487508D+02 0.382199244095850D+03 0.503240821331171D+03
 0.125761016606856D+03 0.337987221790929D+02 0.666886366696640D+02 0.101124207864349D+03
 0.671731933119250D+03 -.760529168040357D+02 -.385199264959723D+03 -.539067763957224D+03
 0.000000000000000D+00 0.000000000000000D+00 0.000000000000000D+00 -.000000000000000D+00
 0.826980877001100D+03 0.000000000000000D+00 0.000000000000000D+00 0.826980877001100D+03
 0.964877669135334D+03 0.000000000000000D+00 0.000000000000000D+00 -.964877669135334D+03
 0.143085169171546D+03 0.614299522414830D+02 -.772578656350807D+02 -.652972652382967D+02
 0.599998943021234D+03 -.498520096463303D+02 0.322896553878712D+03 0.503240821331171D+03
 0.118639917939851D+03 0.288480621416483D+02 0.549282625180705D+02 0.101124207864349D+03
 0.715665718411815D+03 -.104156467726288D+03 -.451959711311164D+03 -.539067763957224D+03
 0.214468797591989D+03 0.637304629894868D+02 0.151392760549463D+03 -.137896792134234D+03
0.202181328349D-03 0.000000000000D+00 0.000000000000D+00 0.362735588914D-05 0.000000000000D+00  7 -2 2 24 -13 13 -24 21 0 0.71821529D-01 0.20276898D+00 0.24067004D+06 0.24067004D+06 0.24067004D+06 0.10917039D+01  1  2  2  2  7  2        2 0.751722695801D-03 0.100000000000D+01
-.822400804135D-05 0.000000000000D+00 -.776429536428D-06 0.362735588914D-05 0.000000000000D+00  7 -2 2 24 -13 13 -24 21 2 0.71821529D-01 0.20276898D+00 0.24067004D+06 0.24067004D+06 0.24067004D+06 0.10917039D+01  1  2  3  2  7  2        2 -.364426449041D-04 0.100000000000D+01
0.112092454799D-04 0.000000000000D+00 0.000000000000D+00 0.362735588914D-05 0.000000000000D+00  7 -2 2 24 -13 13 -24 21 2 0.71821529D-01 0.20276898D+00 0.24067004D+06 0.24067004D+06 0.24067004D+06 0.10917039D+01  1  2 15  2  7  2        2 0.496709816688D-04 0.100000000000D+01
0.274031719241D-03 0.000000000000D+00 0.000000000000D+00 0.362735588914D-05 0.000000000000D+00  7 -2 2 24 -13 13 -24 21 2 0.71821529D-01 0.25400909D+00 0.33123973D+06 0.33123973D+06 0.33123973D+06 0.10813833D+01  1  2 12  2  7  2        2 0.767918122612D-03 0.100000000000D+01
-.308531887862D-03 0.000000000000D+00 0.000000000000D+00 0.362735588914D-05 0.000000000000D+00  7 -2 2 24 -13 13 -24 21 2 0.71821529D-01 0.20276898D+00 0.24067004D+06 0.24067004D+06 0.24067004D+06 0.10917039D+01  1  2  4  2  7  2        2 -.136718227589D-02 0.100000000000D+01
-.431324639598D-03 0.000000000000D+00 -.115281102583D-03 0.362735588914D-05 0.000000000000D+00  7 -2 2 24 -13 13 -24 21 2 0.71821529D-01 0.25542745D+00 0.24067004D+06 0.24067004D+06 0.24067004D+06 0.10917039D+01  1  2  5  2  7  2        2 -.123879997303D-02 0.100000000000D+01
0.448927765124D-03 0.000000000000D+00 0.112275561399D-03 0.362735588914D-05 0.000000000000D+00  7 -2 2 24 -13 13 -24 21 2 0.71821529D-01 0.20276898D+00 0.24067004D+06 0.24067004D+06 0.24067004D+06 0.10917039D+01  1  2  6  2  7  2        2 0.198931166528D-02 0.100000000000D+01
0.858357630190D-05 0.000000000000D+00 0.000000000000D+00 0.362735588914D-05 0.000000000000D+00  7 -2 21 24 -13 13 -24 -2 2 0.71821529D-01 0.25400909D+00 0.33123973D+06 0.33123973D+06 0.33123973D+06 0.10813833D+01  1  2 12  4  7  2        2 0.699867646255D-05 0.100000000000D+01
-.120662262453D-04 0.000000000000D+00 -.367760958785D-05 0.362735588914D-05 0.000000000000D+00  7 -2 21 24 -13 13 -24 -2 2 0.71821529D-01 0.25542745D+00 0.24067004D+06 0.24067004D+06 0.24067004D+06 0.10917039D+01  1  2  5  4  7  2        2 -.101356873528D-04 0.100000000000D+01
  </mgrwgt>
  </event>
</LesHouchesEvents>
