<event>
12    1  0.4820219E-008  0.1760839E+04  0.7818608E-02  0.8727406E-01
         -1   -1    0    0    0  501 -0.00000000000E+00  0.00000000000E+00  0.28202943780E+03  0.28202943780E+03  0.00000000000E+00 0.  1.
          1   -1    0    0  501    0  0.00000000000E+00 -0.00000000000E+00 -0.27484315797E+04  0.27484315797E+04  0.00000000000E+00 0. -1.
         23    2    1    2    0    0 -0.88275854645E+02 -0.55838674557E+03 -0.14467958951E+04  0.15559443651E+04  0.90311246582E+02 0.  0.
        254    2    1    2    0    0  0.88275854645E+02  0.55838674557E+03 -0.10196062468E+04  0.14745166523E+04  0.90278129986E+03 0.  0.
         23    2    4    4    0    0 -0.19713705914E+03  0.69619766510E+03 -0.76960839629E+03  0.10606044440E+04  0.95028911282E+02 0.  0.
         23    2    4    4    0    0  0.28541291378E+03 -0.13781091953E+03 -0.24999785050E+03  0.41391220835E+03  0.91498688896E+02 0.  0.
         13    1    3    3    0    0 -0.45648351213E+02 -0.22566134748E+03 -0.70965794112E+03  0.74607051216E+03  0.00000000000E+00 0. -1.
        -13    1    3    3    0    0 -0.42627503432E+02 -0.33272539809E+03 -0.73713795396E+03  0.80987385298E+03  0.00000000000E+00 0.  1.
          4    1    5    5  502    0 -0.15360115308E+02  0.20699811811E+03 -0.23367969008E+03  0.31255455780E+03  0.00000000000E+00 0. -1.
          1    1    6    6  503    0  0.41571752388E+02 -0.58713015294E+02 -0.72318735268E+02  0.10200700090E+03  0.00000000000E+00 0. -1.
         -4    1    5    5    0  502 -0.18177694383E+03  0.48919954699E+03 -0.53592870621E+03  0.74804988619E+03  0.00000000000E+00 0.  1.
         -1    1    6    6    0  503  0.24384116140E+03 -0.79097904236E+02 -0.17767911523E+03  0.31190520745E+03  0.00000000000E+00 0.  1.
<mgrwt>
<rscale>  0 0.17608391E+04</rscale>
<asrwt>0</asrwt>
<pdfrwt beam="1">  1        1 0.42283562E+00 0.17608391E+04</pdfrwt>
<pdfrwt beam="2">  1       -1 0.43389145E-01 0.17608391E+04</pdfrwt>
<totfact> 0.45104980E+00</totfact>
</mgrwt>
</event>
<event>
12    1  0.4820219E-008  0.1508072E+04  0.7818608E-02  0.8879103E-01
         -1   -1    0    0    0  501 -0.00000000000E+00  0.00000000000E+00  0.23292694601E+03  0.23292694601E+03  0.00000000000E+00 0.  1.
          1   -1    0    0  501    0  0.00000000000E+00 -0.00000000000E+00 -0.24409797948E+04  0.24409797948E+04  0.00000000000E+00 0. -1.
         23    2    1    2    0    0 -0.38721669735E+03 -0.28865507619E+03 -0.70354100059E+03  0.85822504721E+03  0.91223727415E+02 0.  0.
        254    2    1    2    0    0  0.38721669735E+03  0.28865507619E+03 -0.15045118482E+04  0.18156816935E+04  0.89436323010E+03 0.  0.
         23    2    4    4    0    0  0.43792075166E+03  0.92448936750E+02 -0.15256648711E+04  0.15924813140E+04  0.89565873114E+02 0.  0.
         23    2    4    4    0    0 -0.50704054312E+02  0.19620613944E+03  0.21153022986E+02  0.22320037960E+03  0.91121944628E+02 0.  0.
         11    1    3    3    0    0 -0.36267864674E+03 -0.25730399676E+03 -0.67835737390E+03  0.81111643694E+03  0.00000000000E+00 0.  1.
        -11    1    3    3    0    0 -0.24538050606E+02 -0.31351079427E+02 -0.25183626691E+02  0.47108610276E+02  0.00000000000E+00 0. -1.
          3    1    5    5  502    0  0.29216913137E+03  0.99547305039E+02 -0.96661303420E+03  0.10146985883E+04  0.00000000000E+00 0. -1.
          3    1    6    6  503    0 -0.37348411995E+02  0.11895179713E+03  0.56884958969E+02  0.13704135316E+03  0.00000000000E+00 0. -1.
         -3    1    5    5    0  502  0.14575162029E+03 -0.70983682891E+01 -0.55905183694E+03  0.57778272563E+03  0.00000000000E+00 0.  1.
         -3    1    6    6    0  503 -0.13355642317E+02  0.77254342313E+02 -0.35731935982E+02  0.86159026439E+02  0.00000000000E+00 0.  1.
<mgrwt>
<rscale>  0 0.15080716E+04</rscale>
<asrwt>0</asrwt>
<pdfrwt beam="1">  1        1 0.37553532E+00 0.15080716E+04</pdfrwt>
<pdfrwt beam="2">  1       -1 0.35834918E-01 0.15080716E+04</pdfrwt>
<totfact> 0.10726885E+01</totfact>
</mgrwt>
</event>
<event>
12    1  0.4820219E-008  0.1150205E+04  0.7818608E-02  0.9157595E-01
         -1   -1    0    0    0  501 -0.00000000000E+00  0.00000000000E+00  0.24347437664E+03  0.24347437664E+03  0.00000000000E+00 0.  1.
          1   -1    0    0  501    0  0.00000000000E+00 -0.00000000000E+00 -0.13584294422E+04  0.13584294422E+04  0.00000000000E+00 0. -1.
         23    2    1    2    0    0 -0.10670733540E+03 -0.17311551715E+03 -0.25482446634E+03  0.33879251180E+03  0.92138046951E+02 0.  0.
        254    2    1    2    0    0  0.10670733540E+03  0.17311551715E+03 -0.86013059924E+03  0.12631113071E+04  0.90236915315E+03 0.  0.
         23    2    4    4    0    0  0.12085661582E+03  0.49630140025E+03 -0.26977518386E+03  0.58401310759E+03  0.85856033725E+02 0.  0.
         23    2    4    4    0    0 -0.14149280414E+02 -0.32318588310E+03 -0.59035541538E+03  0.67909819947E+03  0.89473632371E+02 0.  0.
         11    1    3    3    0    0 -0.10578349917E+03 -0.87282582244E+02 -0.16488021978E+03  0.21446184914E+03  0.00000000000E+00 0. -1.
        -11    1    3    3    0    0 -0.92383623235E+00 -0.85832934909E+02 -0.89944246563E+02  0.12433066266E+03  0.00000000000E+00 0.  1.
          2    1    5    5  502    0  0.19838101276E+02  0.17911206462E+03 -0.13369559142E+03  0.22438625876E+03  0.00000000000E+00 0.  1.
          3    1    6    6  503    0 -0.13867569413E+02 -0.29094471130E+03 -0.57226366094E+03  0.64212680379E+03  0.00000000000E+00 0. -1.
         -2    1    5    5    0  502  0.10101851454E+03  0.31718933563E+03 -0.13607959244E+03  0.35962684883E+03  0.00000000000E+00 0. -1.
         -3    1    6    6    0  503 -0.28171100088E+00 -0.32241171798E+02 -0.18091754441E+02  0.36971395683E+02  0.00000000000E+00 0.  1.
<mgrwt>
<rscale>  0 0.11502048E+04</rscale>
<asrwt>0</asrwt>
<pdfrwt beam="1">  1        1 0.20898915E+00 0.11502048E+04</pdfrwt>
<pdfrwt beam="2">  1       -1 0.37457596E-01 0.11502048E+04</pdfrwt>
<totfact> 0.56017981E+01</totfact>
</mgrwt>
</event>
<event>
12    1  0.4820219E-008  0.1701165E+04  0.7818608E-02  0.8760700E-01
         -2   -1    0    0    0  501 -0.00000000000E+00  0.00000000000E+00  0.45524919710E+03  0.45524919710E+03  0.00000000000E+00 0.  1.
          2   -1    0    0  501    0  0.00000000000E+00 -0.00000000000E+00 -0.15892181172E+04  0.15892181172E+04  0.00000000000E+00 0. -1.
         23    2    1    2    0    0  0.62787350900E+02  0.45499951808E+03 -0.88664513340E+03  0.10023859430E+04  0.87585234662E+02 0.  0.
        254    2    1    2    0    0 -0.62787350900E+02 -0.45499951808E+03 -0.24732378672E+03  0.10420813713E+04  0.90210737499E+03 0.  0.
         23    2    4    4    0    0 -0.33522693259E+03  0.64941504993E+02 -0.27582024059E+03  0.44869617426E+03  0.93042765825E+02 0.  0.
         23    2    4    4    0    0  0.27243958169E+03 -0.51994102307E+03  0.28496453873E+02  0.59338519702E+03  0.82048467517E+02 0.  0.
         11    1    3    3    0    0 -0.17474752672E+02  0.47482784250E+02 -0.72431845588E+02  0.88353573987E+02  0.00000000000E+00 0.  1.
        -11    1    3    3    0    0  0.80262103571E+02  0.40751673383E+03 -0.81421328781E+03  0.91403236905E+03  0.00000000000E+00 0. -1.
          4    1    5    5  502    0 -0.12587939860E+03  0.24103783431E+01 -0.15268671410E+03  0.19790064573E+03  0.00000000000E+00 0. -1.
          4    1    6    6  503    0  0.26895290562E+03 -0.46593430772E+03  0.18199261087E+02  0.53829513991E+03  0.00000000000E+00 0. -1.
         -4    1    5    5    0  502 -0.20934753398E+03  0.62531126650E+02 -0.12313352649E+03  0.25079552853E+03  0.00000000000E+00 0.  1.
         -4    1    6    6    0  503  0.34866760670E+01 -0.54006715352E+02  0.10297192786E+02  0.55090057110E+02  0.00000000000E+00 0.  1.
<mgrwt>
<rscale>  0 0.17011646E+04</rscale>
<asrwt>0</asrwt>
<pdfrwt beam="1">  1        2 0.24449509E+00 0.17011646E+04</pdfrwt>
<pdfrwt beam="2">  1       -2 0.70038339E-01 0.17011646E+04</pdfrwt>
<totfact> 0.19974851E+01</totfact>
</mgrwt>
</event>
<event>
12    1  0.4820219E-008  0.1409704E+04  0.7818608E-02  0.8946824E-01
          1   -1    0    0  501    0  0.00000000000E+00  0.00000000000E+00  0.16441912361E+04  0.16441912361E+04  0.00000000000E+00 0. -1.
         -1   -1    0    0    0  501 -0.00000000000E+00 -0.00000000000E+00 -0.30216448072E+03  0.30216448072E+03  0.00000000000E+00 0.  1.
         23    2    1    2    0    0 -0.18686383249E+03 -0.11199865331E+03 -0.84430783809E+02  0.25106480433E+03  0.91886824321E+02 0.  0.
        254    2    1    2    0    0  0.18686383249E+03  0.11199865331E+03  0.14264575392E+04  0.16952909125E+04  0.88981367521E+03 0.  0.
         23    2    4    4    0    0  0.16259289682E+03  0.32789270913E+03  0.16593143376E+03  0.41289894356E+03  0.94880019434E+02 0.  0.
         23    2    4    4    0    0  0.24270935678E+02 -0.21589405583E+03  0.12605261054E+04  0.12823919689E+04  0.91672121318E+02 0.  0.
         11    1    3    3    0    0 -0.85551734654E+02 -0.99576512839E+02 -0.27285721395E+02  0.13408613576E+03  0.00000000000E+00 0.  1.
        -11    1    3    3    0    0 -0.10131209784E+03 -0.12422140466E+02 -0.57145062414E+02  0.11697866857E+03  0.00000000000E+00 0. -1.
          1    1    6    6  502    0 -0.69750839644E+01  0.20881448447E+01  0.15369838564E+03  0.15387074411E+03  0.00000000000E+00 0. -1.
          1    1    5    5  503    0  0.38421211527E+02  0.15256546028E+02  0.23901060307E+02  0.47751569353E+02  0.00000000000E+00 0. -1.
         -1    1    5    5    0  503  0.12417168529E+03  0.31263616310E+03  0.14203037345E+03  0.36514737421E+03  0.00000000000E+00 0.  1.
         -1    1    6    6    0  502  0.31246019643E+02 -0.21798220067E+03  0.11068277198E+04  0.11285212248E+04  0.00000000000E+00 0.  1.
<mgrwt>
<rscale>  0 0.14097038E+04</rscale>
<asrwt>0</asrwt>
<pdfrwt beam="1">  1        1 0.25295249E+00 0.14097038E+04</pdfrwt>
<pdfrwt beam="2">  1       -1 0.46486844E-01 0.14097038E+04</pdfrwt>
<totfact> 0.23363183E+01</totfact>
</mgrwt>
</event>
<event>
12    1  0.4820219E-008  0.2240128E+04  0.7818608E-02  0.8501909E-01
          1   -1    0    0  501    0  0.00000000000E+00  0.00000000000E+00  0.36927842185E+04  0.36927842185E+04  0.00000000000E+00 0.  1.
         -1   -1    0    0    0  501 -0.00000000000E+00 -0.00000000000E+00 -0.33972839868E+03  0.33972839868E+03  0.00000000000E+00 0. -1.
         23    2    1    2    0    0 -0.17734411819E+03 -0.57519978712E+03  0.11653345590E+03  0.61974547348E+03  0.90546530563E+02 0.  0.
        254    2    1    2    0    0  0.17734411819E+03  0.57519978712E+03  0.32365223640E+04  0.34127671437E+04  0.89977599076E+03 0.  0.
         23    2    4    4    0    0  0.10569565742E+03  0.69060778460E+03  0.31497559124E+04  0.32276355931E+04  0.92512322461E+02 0.  0.
         23    2    4    4    0    0  0.71648460775E+02 -0.11540799748E+03  0.86766451562E+02  0.18513155066E+03  0.91064626061E+02 0.  0.
         13    1    3    3    0    0 -0.18053966299E+03 -0.57279933717E+03  0.10784758348E+03  0.61018419501E+03  0.00000000000E+00 0. -1.
        -13    1    3    3    0    0  0.31955447970E+01 -0.24004499557E+01  0.86858724147E+01  0.95612784786E+01  0.00000000000E+00 0.  1.
          4    1    5    5  502    0  0.76088216382E+01  0.41746035354E+01  0.83693070856E+02  0.84141853977E+02  0.00000000000E+00 0.  1.
          3    1    6    6  503    0  0.33937800720E+02 -0.96693782440E+01 -0.10261078012E+02  0.36749978439E+02  0.00000000000E+00 0.  1.
         -4    1    5    5    0  502  0.98086835777E+02  0.68643318107E+03  0.30660628415E+04  0.31434937391E+04  0.00000000000E+00 0. -1.
         -3    1    6    6    0  503  0.37710660056E+02 -0.10573861924E+03  0.97027529574E+02  0.14838157222E+03  0.00000000000E+00 0. -1.
<mgrwt>
<rscale>  0 0.22401283E+04</rscale>
<asrwt>0</asrwt>
<pdfrwt beam="1">  1        1 0.56812062E+00 0.22401283E+04</pdfrwt>
<pdfrwt beam="2">  1       -1 0.52265910E-01 0.22401283E+04</pdfrwt>
<totfact> 0.58787014E-01</totfact>
</mgrwt>
</event>
<event>
12    1  0.5331298E-008  0.2452942E+04  0.7818608E-02  0.8419944E-01
          2   -1    0    0  501    0  0.00000000000E+00  0.00000000000E+00  0.10693801288E+04  0.10693801288E+04  0.00000000000E+00 0.  1.
         -2   -1    0    0    0  501 -0.00000000000E+00 -0.00000000000E+00 -0.14066387615E+04  0.14066387615E+04  0.00000000000E+00 0. -1.
         23    2    1    2    0    0 -0.70604668794E+03 -0.48863956602E+03 -0.76880077212E+03  0.11564897891E+04  0.95621410334E+02 0.  0.
        254    2    1    2    0    0  0.70604668794E+03  0.48863956602E+03  0.43154213947E+03  0.13195291012E+04  0.90424436946E+03 0.  0.
         23    2    4    4    0    0  0.54815774752E+03  0.65620488435E+03  0.45957545741E+02  0.86133219740E+03  0.93269994402E+02 0.  0.
         23    2    4    4    0    0  0.15788894042E+03 -0.16756531833E+03  0.38558459373E+03  0.45819690378E+03  0.90894831008E+02 0.  0.
         13    1    3    3    0    0 -0.99971231034E+02 -0.33256153895E+02 -0.10708907284E+03  0.15022745531E+03  0.00000000000E+00 0.  1.
        -13    1    3    3    0    0 -0.60607545690E+03 -0.45538341213E+03 -0.66171169927E+03  0.10062623338E+04  0.00000000000E+00 0. -1.
          2    1    5    5  502    0  0.11789631407E+03  0.14317916421E+03  0.48701419058E+02  0.19175933394E+03  0.00000000000E+00 0. -1.
          1    1    6    6  503    0  0.26096157111E+02 -0.74709621003E+02  0.79065759965E+02  0.11186568413E+03  0.00000000000E+00 0. -1.
         -2    1    5    5    0  502  0.43026143345E+03  0.51302572014E+03 -0.27438733169E+01  0.66957286345E+03  0.00000000000E+00 0.  1.
         -1    1    6    6    0  503  0.13179278331E+03 -0.92855697326E+02  0.30651883376E+03  0.34633121966E+03  0.00000000000E+00 0.  1.
<mgrwt>
<rscale>  0 0.24529423E+04</rscale>
<asrwt>0</asrwt>
<pdfrwt beam="1">  1        2 0.16452002E+00 0.24529423E+04</pdfrwt>
<pdfrwt beam="2">  1       -2 0.21640596E+00 0.24529423E+04</pdfrwt>
<totfact> 0.21227490E+00</totfact>
</mgrwt>
</event>
<event>
12    1  0.4820219E-008  0.1418739E+04  0.7818608E-02  0.8940365E-01
          2   -1    0    0  501    0  0.00000000000E+00  0.00000000000E+00  0.11561638752E+04  0.11561638752E+04  0.00000000000E+00 0. -1.
         -2   -1    0    0    0  501 -0.00000000000E+00 -0.00000000000E+00 -0.43523657940E+03  0.43523657940E+03  0.00000000000E+00 0.  1.
         23    2    1    2    0    0 -0.25739335513E+03  0.89123102674E+02  0.56791507200E+03  0.63640886664E+03  0.91073870194E+02 0.  0.
        254    2    1    2    0    0  0.25739335513E+03 -0.89123102674E+02  0.15301222381E+03  0.95499158797E+03  0.90244220079E+03 0.  0.
         23    2    4    4    0    0 -0.15462471445E+03  0.22061719789E+03 -0.17799499939E+03  0.33559722358E+03  0.91446849827E+02 0.  0.
         23    2    4    4    0    0  0.41201806958E+03 -0.30974030057E+03  0.33100722319E+03  0.61939436439E+03  0.91573213207E+02 0.  0.
         13    1    3    3    0    0 -0.94813433657E+02  0.37233046199E+02  0.12188943763E+03  0.15884873918E+03  0.00000000000E+00 0.  1.
        -13    1    3    3    0    0 -0.16257992147E+03  0.51890056476E+02  0.44602563437E+03  0.47756012746E+03  0.00000000000E+00 0. -1.
          1    1    5    5  502    0 -0.12909395273E+03  0.22421349261E+03 -0.16163962257E+03  0.30506443005E+03  0.00000000000E+00 0. -1.
          3    1    6    6  503    0  0.76668679948E+02 -0.86795330672E+02  0.39869177369E+02  0.12247884395E+03  0.00000000000E+00 0. -1.
         -1    1    5    5    0  502 -0.25530761721E+02 -0.35962947163E+01 -0.16355376813E+02  0.30532793525E+02  0.00000000000E+00 0.  1.
         -3    1    6    6    0  503  0.33534938963E+03 -0.22294496990E+03  0.29113804582E+03  0.49691552044E+03  0.00000000000E+00 0.  1.
<mgrwt>
<rscale>  0 0.14187386E+04</rscale>
<asrwt>0</asrwt>
<pdfrwt beam="1">  1        2 0.17787136E+00 0.14187386E+04</pdfrwt>
<pdfrwt beam="2">  1       -2 0.66959474E-01 0.14187386E+04</pdfrwt>
<totfact> 0.40062858E+01</totfact>
</mgrwt>
</event>
<event>
12    1  0.4820219E-008  0.1894763E+04  0.7818608E-02  0.8657468E-01
         -1   -1    0    0    0  501 -0.00000000000E+00  0.00000000000E+00  0.95272692317E+03  0.95272692317E+03  0.00000000000E+00 0.  1.
          1   -1    0    0  501    0  0.00000000000E+00 -0.00000000000E+00 -0.94206604114E+03  0.94206604114E+03  0.00000000000E+00 0. -1.
         23    2    1    2    0    0  0.29508560171E+02  0.71725878036E+03 -0.69011046008E+02  0.72671098925E+03  0.89528901974E+02 0.  0.
        254    2    1    2    0    0 -0.29508560171E+02 -0.71725878036E+03  0.79671928043E+02  0.11680819751E+04  0.91800706491E+03 0.  0.
         23    2    4    4    0    0  0.31986949796E+03 -0.17892478620E+03  0.30015897628E+03  0.48322240164E+03  0.95278032969E+02 0.  0.
         23    2    4    4    0    0 -0.34937805814E+03 -0.53833399416E+03 -0.22048704823E+03  0.68485957342E+03  0.92463939376E+02 0.  0.
         13    1    3    3    0    0  0.22856419461E+02  0.68419574442E+03 -0.46483874051E+02  0.68615376056E+03  0.00000000000E+00 0. -1.
        -13    1    3    3    0    0  0.66521407100E+01  0.33063035945E+02 -0.22527171957E+02  0.40557228682E+02  0.00000000000E+00 0.  1.
          2    1    5    5  502    0  0.49076956342E+02  0.53163499798E+01  0.56345210977E+02  0.74910573492E+02  0.00000000000E+00 0. -1.
          3    1    6    6  503    0 -0.17208673157E+02 -0.42398318305E+02  0.65828497175E+01  0.46228667916E+02  0.00000000000E+00 0. -1.
         -2    1    5    5    0  502  0.27079254162E+03 -0.18424113618E+03  0.24381376530E+03  0.40831182815E+03  0.00000000000E+00 0.  1.
         -3    1    6    6    0  503 -0.33216938498E+03 -0.49593567586E+03 -0.22706989795E+03  0.63863090550E+03  0.00000000000E+00 0.  1.
<mgrwt>
<rscale>  0 0.18947630E+04</rscale>
<asrwt>0</asrwt>
<pdfrwt beam="1">  1        1 0.14493324E+00 0.18947630E+04</pdfrwt>
<pdfrwt beam="2">  1       -1 0.14657337E+00 0.18947630E+04</pdfrwt>
<totfact> 0.58452767E+00</totfact>
</mgrwt>
</event>
<event>
12    1  0.4820219E-008  0.1518920E+04  0.7818608E-02  0.8871968E-01
         -1   -1    0    0    0  501 -0.00000000000E+00  0.00000000000E+00  0.84852093033E+03  0.84852093033E+03  0.00000000000E+00 0.  1.
          1   -1    0    0  501    0  0.00000000000E+00 -0.00000000000E+00 -0.67974687524E+03  0.67974687524E+03  0.00000000000E+00 0. -1.
         23    2    1    2    0    0 -0.43020841435E+03  0.17747578267E+03 -0.19625264213E+02  0.47486371928E+03  0.92376770227E+02 0.  0.
        254    2    1    2    0    0  0.43020841435E+03 -0.17747578267E+03  0.18839931930E+03  0.10534040863E+04  0.92606097655E+03 0.  0.
         23    2    4    4    0    0 -0.52253864203E+02  0.32053373654E+03  0.67562922965E+02  0.34345476515E+03  0.89017327268E+02 0.  0.
         23    2    4    4    0    0  0.48246227855E+03 -0.49800951922E+03  0.12083639634E+03  0.70994932115E+03  0.92969201674E+02 0.  0.
         11    1    3    3    0    0 -0.10312177761E+03  0.70183252557E+02 -0.37239259122E+02  0.13017892447E+03  0.00000000000E+00 0.  1.
        -11    1    3    3    0    0 -0.32708663674E+03  0.10729253012E+03  0.17613994909E+02  0.34468479481E+03  0.00000000000E+00 0. -1.
          1    1    5    5  502    0 -0.18413117728E+02  0.14819314366E+03 -0.13650264564E+02  0.14995526151E+03  0.00000000000E+00 0. -1.
          3    1    6    6  503    0  0.13826123600E+03 -0.13765751461E+03  0.76822711780E+02  0.20968426206E+03  0.00000000000E+00 0. -1.
         -1    1    5    5    0  502 -0.33840746475E+02  0.17234059288E+03  0.81213187529E+02  0.19349950363E+03  0.00000000000E+00 0.  1.
         -3    1    6    6    0  503  0.34420104255E+03 -0.36035200461E+03  0.44013684557E+02  0.50026505909E+03  0.00000000000E+00 0.  1.
<mgrwt>
<rscale>  0 0.15189199E+04</rscale>
<asrwt>0</asrwt>
<pdfrwt beam="1">  1        1 0.10457644E+00 0.15189199E+04</pdfrwt>
<pdfrwt beam="2">  1       -1 0.13054168E+00 0.15189199E+04</pdfrwt>
<totfact> 0.13809589E+01</totfact>
</mgrwt>
</event>
<event>
12    1  0.4820219E-008  0.2239577E+04  0.7818608E-02  0.8502133E-01
         -2   -1    0    0    0  501 -0.00000000000E+00  0.00000000000E+00  0.70131776816E+03  0.70131776816E+03  0.00000000000E+00 0.  1.
          2   -1    0    0  501    0  0.00000000000E+00 -0.00000000000E+00 -0.17879581117E+04  0.17879581117E+04  0.00000000000E+00 0. -1.
         23    2    1    2    0    0  0.52687979673E+03  0.31244004811E+03 -0.12487139755E+04  0.13938460499E+04  0.91099475617E+02 0.  0.
        254    2    1    2    0    0 -0.52687979673E+03 -0.31244004811E+03  0.16207363201E+03  0.10954298299E+04  0.89357570810E+03 0.  0.
         23    2    4    4    0    0 -0.47700719394E+03 -0.10088475581E+02  0.45199554495E+03  0.66355928348E+03  0.91505790120E+02 0.  0.
         23    2    4    4    0    0 -0.49872602789E+02 -0.30235157253E+03 -0.28992191294E+03  0.43187054639E+03  0.92486233109E+02 0.  0.
         13    1    3    3    0    0  0.49905099158E+03  0.26992796003E+03 -0.11212560078E+04  0.12566336104E+04  0.00000000000E+00 0. -1.
        -13    1    3    3    0    0  0.27828805153E+02  0.42512088086E+02 -0.12745796774E+03  0.13721243956E+03  0.00000000000E+00 0.  1.
          4    1    6    6  502    0 -0.43795253253E+02 -0.11620579333E+03 -0.66053062043E+02  0.14065851419E+03  0.00000000000E+00 0. -1.
          4    1    5    5  503    0 -0.83752094292E+01 -0.14955385818E+02  0.15115372946E+02  0.22853494202E+02  0.00000000000E+00 0. -1.
         -4    1    5    5    0  503 -0.46863198452E+03  0.48669102370E+01  0.43688017200E+03  0.64070578928E+03  0.00000000000E+00 0.  1.
         -4    1    6    6    0  502 -0.60773495359E+01 -0.18614577921E+03 -0.22386885090E+03  0.29121203220E+03  0.00000000000E+00 0.  1.
<mgrwt>
<rscale>  0 0.22395775E+04</rscale>
<asrwt>0</asrwt>
<pdfrwt beam="1">  1        2 0.27507048E+00 0.22395775E+04</pdfrwt>
<pdfrwt beam="2">  1       -2 0.10789504E+00 0.22395775E+04</pdfrwt>
<totfact> 0.54965942E+00</totfact>
</mgrwt>
</event>
<event>
12    1  0.4820219E-008  0.1665734E+04  0.7818608E-02  0.8781152E-01
          2   -1    0    0  501    0  0.00000000000E+00  0.00000000000E+00  0.14960025789E+04  0.14960025789E+04  0.00000000000E+00 0. -1.
         -2   -1    0    0    0  501 -0.00000000000E+00 -0.00000000000E+00 -0.46368082287E+03  0.46368082287E+03  0.00000000000E+00 0.  1.
         23    2    1    2    0    0  0.47120996547E+03  0.12244721258E+03 -0.18855477386E+02  0.49588415633E+03  0.92268174606E+02 0.  0.
        254    2    1    2    0    0 -0.47120996547E+03 -0.12244721258E+03  0.10511772334E+04  0.14637992454E+04  0.89481981620E+03 0.  0.
         23    2    4    4    0    0  0.17732131681E+03 -0.23363996744E+03  0.55774947045E+03  0.63658076005E+03  0.90111644672E+02 0.  0.
         23    2    4    4    0    0 -0.64853128228E+03  0.11119275486E+03  0.49342776298E+03  0.82721848539E+03  0.88672501222E+02 0.  0.
         13    1    3    3    0    0  0.38021357807E+03  0.11983336105E+03 -0.44968605801E+02  0.40117898110E+03  0.00000000000E+00 0.  1.
        -13    1    3    3    0    0  0.90996387404E+02  0.26138515308E+01  0.26113128415E+02  0.94705175233E+02  0.00000000000E+00 0. -1.
          1    1    5    5  502    0 -0.13302201207E+01 -0.49537204093E+02  0.74803593524E+02  0.89728934458E+02  0.00000000000E+00 0. -1.
          1    1    6    6  503    0 -0.19015266531E+03  0.32706908395E+02  0.96121524957E+02  0.21556234722E+03  0.00000000000E+00 0. -1.
         -1    1    5    5    0  502  0.17865153693E+03 -0.18410276334E+03  0.48294587692E+03  0.54685182559E+03  0.00000000000E+00 0.  1.
         -1    1    6    6    0  503 -0.45837861697E+03  0.78485846461E+02  0.39730623802E+03  0.61165613817E+03  0.00000000000E+00 0.  1.
<mgrwt>
<rscale>  0 0.16657343E+04</rscale>
<asrwt>0</asrwt>
<pdfrwt beam="1">  1        2 0.23015424E+00 0.16657343E+04</pdfrwt>
<pdfrwt beam="2">  1       -2 0.71335512E-01 0.16657343E+04</pdfrwt>
<totfact> 0.21711756E+01</totfact>
</mgrwt>
</event>
<event>
12    1  0.4820219E-008  0.2062672E+04  0.7818608E-02  0.8577867E-01
         -2   -1    0    0    0  501 -0.00000000000E+00  0.00000000000E+00  0.40172522924E+03  0.40172522924E+03  0.00000000000E+00 0.  1.
          2   -1    0    0  501    0  0.00000000000E+00 -0.00000000000E+00 -0.26477162237E+04  0.26477162237E+04  0.00000000000E+00 0. -1.
         23    2    1    2    0    0  0.43367852415E+03  0.42062831757E+03 -0.17635301371E+04  0.18663623974E+04  0.90911000971E+02 0.  0.
        254    2    1    2    0    0 -0.43367852415E+03 -0.42062831757E+03 -0.48246085735E+03  0.11830790555E+04  0.89548999374E+03 0.  0.
         23    2    4    4    0    0 -0.69698756389E+03 -0.37575799132E+03 -0.34684535101E+03  0.86931481593E+03  0.91765022861E+02 0.  0.
         23    2    4    4    0    0  0.26330903974E+03 -0.44870326255E+02 -0.13561550634E+03  0.31376423959E+03  0.93335073276E+02 0.  0.
         13    1    3    3    0    0  0.18277546879E+02  0.78635349935E+01 -0.25601585992E+02  0.32424452313E+02  0.00000000000E+00 0.  1.
        -13    1    3    3    0    0  0.41540097728E+03  0.41276478258E+03 -0.17379285511E+04  0.18339379451E+04  0.00000000000E+00 0. -1.
          1    1    6    6  502    0  0.18678018231E+03  0.10825986392E+02 -0.10349889184E+03  0.21381314061E+03  0.00000000000E+00 0. -1.
          1    1    5    5  503    0 -0.64504097059E+03 -0.34548132167E+03 -0.29171255569E+03  0.78773816240E+03  0.00000000000E+00 0. -1.
         -1    1    5    5    0  503 -0.51946593301E+02 -0.30276669653E+02 -0.55132795321E+02  0.81576653528E+02  0.00000000000E+00 0.  1.
         -1    1    6    6    0  502  0.76528857428E+02 -0.55696312647E+02 -0.32116614499E+02  0.99951098987E+02  0.00000000000E+00 0.  1.
<mgrwt>
<rscale>  0 0.20626724E+04</rscale>
<asrwt>0</asrwt>
<pdfrwt beam="1">  1        2 0.40734095E+00 0.20626724E+04</pdfrwt>
<pdfrwt beam="2">  1       -2 0.61803883E-01 0.20626724E+04</pdfrwt>
<totfact> 0.64170124E+00</totfact>
</mgrwt>
</event>
<event>
12    1  0.4820219E-008  0.2822463E+04  0.7818608E-02  0.8296328E-01
         -1   -1    0    0    0  501 -0.00000000000E+00  0.00000000000E+00  0.10671215084E+04  0.10671215084E+04  0.00000000000E+00 0.  1.
          1   -1    0    0  501    0  0.00000000000E+00 -0.00000000000E+00 -0.18663052815E+04  0.18663052815E+04  0.00000000000E+00 0. -1.
         23    2    1    2    0    0 -0.66957493759E+03 -0.10710140543E+04 -0.28381971535E+03  0.12976338141E+04  0.88871722111E+02 0.  0.
        254    2    1    2    0    0  0.66957493759E+03  0.10710140543E+04 -0.51536405780E+03  0.16357929759E+04  0.90267205905E+03 0.  0.
         23    2    4    4    0    0  0.67853042629E+03  0.11618053788E+04 -0.29460650438E+03  0.13803170129E+04  0.91031785649E+02 0.  0.
         23    2    4    4    0    0 -0.89554886925E+01 -0.90791324467E+02 -0.22075755342E+03  0.25547596299E+03  0.90613491821E+02 0.  0.
         13    1    3    3    0    0 -0.99512289219E+02 -0.20097154889E+03 -0.24228720637E+02  0.22556438121E+03  0.00000000000E+00 0.  1.
        -13    1    3    3    0    0 -0.57006264837E+03 -0.87004250544E+03 -0.25959099472E+03  0.10720694329E+04  0.00000000000E+00 0. -1.
          3    1    6    6  502    0  0.33041966239E+02 -0.77352441338E+02 -0.15390282349E+03  0.17538885595E+03  0.00000000000E+00 0. -1.
          3    1    5    5  503    0  0.49329026238E+03  0.83969290734E+03 -0.25455057202E+03  0.10065860397E+04  0.00000000000E+00 0. -1.
         -3    1    5    5    0  503  0.18524016390E+03  0.32211247145E+03 -0.40055932358E+02  0.37373097317E+03  0.00000000000E+00 0.  1.
         -3    1    6    6    0  502 -0.41997454932E+02 -0.13438883129E+02 -0.66854729931E+02  0.80087107044E+02  0.00000000000E+00 0.  1.
<mgrwt>
<rscale>  0 0.28224631E+04</rscale>
<asrwt>0</asrwt>
<pdfrwt beam="1">  1        1 0.28712389E+00 0.28224631E+04</pdfrwt>
<pdfrwt beam="2">  1       -1 0.16417254E+00 0.28224631E+04</pdfrwt>
<totfact> 0.86259446E-01</totfact>
</mgrwt>
</event>
<event>
12    1  0.4820219E-008  0.1914878E+04  0.7818608E-02  0.8647486E-01
         -2   -1    0    0    0  501 -0.00000000000E+00  0.00000000000E+00  0.10803346318E+04  0.10803346318E+04  0.00000000000E+00 0.  1.
          2   -1    0    0  501    0  0.00000000000E+00 -0.00000000000E+00 -0.84852324361E+03  0.84852324361E+03  0.00000000000E+00 0. -1.
         23    2    1    2    0    0 -0.51781068547E+03  0.47883008594E+03  0.32603617650E+03  0.78236567484E+03  0.91598600458E+02 0.  0.
        254    2    1    2    0    0  0.51781068547E+03 -0.47883008594E+03 -0.94224788272E+02  0.11464922006E+04  0.89897713995E+03 0.  0.
         23    2    4    4    0    0 -0.15365614012E+03 -0.90525282943E+02 -0.28004544499E+03  0.34447543925E+03  0.91830500035E+02 0.  0.
         23    2    4    4    0    0  0.67146682559E+03 -0.38830480299E+03  0.18582065672E+03  0.80201676136E+03  0.83983636217E+02 0.  0.
         11    1    3    3    0    0 -0.42637822177E+03  0.39721850734E+03  0.30596371933E+03  0.65817530197E+03  0.00000000000E+00 0.  1.
        -11    1    3    3    0    0 -0.91432463691E+02  0.81611578595E+02  0.20072457171E+02  0.12419037287E+03  0.00000000000E+00 0. -1.
          4    1    6    6  502    0  0.17530983472E+02 -0.29425177149E+02  0.84804046037E+01  0.35285885195E+02  0.00000000000E+00 0. -1.
          4    1    5    5  503    0 -0.48393651628E+02 -0.97637793701E+01 -0.15305596704E+03  0.16082103703E+03  0.00000000000E+00 0. -1.
         -4    1    5    5    0  503 -0.10526248849E+03 -0.80761503573E+02 -0.12698947795E+03  0.18365440221E+03  0.00000000000E+00 0.  1.
         -4    1    6    6    0  502  0.65393584211E+03 -0.35887962584E+03  0.17734025211E+03  0.76673087617E+03  0.00000000000E+00 0.  1.
<mgrwt>
<rscale>  0 0.19148776E+04</rscale>
<asrwt>0</asrwt>
<pdfrwt beam="1">  1        2 0.13054204E+00 0.19148776E+04</pdfrwt>
<pdfrwt beam="2">  1       -2 0.16620533E+00 0.19148776E+04</pdfrwt>
<totfact> 0.67504042E+00</totfact>
</mgrwt>
</event>
<event>
12    1  0.4820219E-008  0.1711596E+04  0.7818608E-02  0.8754778E-01
          2   -1    0    0  501    0  0.00000000000E+00  0.00000000000E+00  0.67859519500E+03  0.67859519500E+03  0.00000000000E+00 0.  1.
         -2   -1    0    0    0  501 -0.00000000000E+00 -0.00000000000E+00 -0.10792746191E+04  0.10792746191E+04  0.00000000000E+00 0. -1.
         23    2    1    2    0    0  0.15419375719E+03  0.74967198395E+02 -0.74980615320E+03  0.77478347125E+03  0.93189936996E+02 0.  0.
        254    2    1    2    0    0 -0.15419375719E+03 -0.74967198395E+02  0.34912672911E+03  0.98308634285E+03  0.90286958578E+03 0.  0.
         23    2    4    4    0    0 -0.13866808241E+03 -0.31383046774E+03  0.55201607395E+03  0.65618097947E+03  0.90184989652E+02 0.  0.
         23    2    4    4    0    0 -0.15525674780E+02  0.23886326935E+03 -0.20288934484E+03  0.32690536337E+03  0.91685998549E+02 0.  0.
         13    1    3    3    0    0  0.90781978253E+02  0.66105657876E+02 -0.29790322703E+03  0.31836717521E+03  0.00000000000E+00 0. -1.
        -13    1    3    3    0    0  0.63411778939E+02  0.88615405183E+01 -0.45190292617E+03  0.45641629604E+03  0.00000000000E+00 0.  1.
          4    1    5    5  502    0 -0.83727631519E+02 -0.16918709065E+03  0.22003424284E+03  0.28991318691E+03  0.00000000000E+00 0. -1.
          3    1    6    6  503    0 -0.32579806705E+02  0.50604898143E+02 -0.18814806073E+02  0.63057881733E+02  0.00000000000E+00 0. -1.
         -4    1    5    5    0  502 -0.54940450894E+02 -0.14464337709E+03  0.33198183111E+03  0.36626779256E+03  0.00000000000E+00 0.  1.
         -3    1    6    6    0  503  0.17054131925E+02  0.18825837120E+03 -0.18407453877E+03  0.26384748164E+03  0.00000000000E+00 0.  1.
<mgrwt>
<rscale>  0 0.17115964E+04</rscale>
<asrwt>0</asrwt>
<pdfrwt beam="1">  1        2 0.10439926E+00 0.17115964E+04</pdfrwt>
<pdfrwt beam="2">  1       -2 0.16604225E+00 0.17115964E+04</pdfrwt>
<totfact> 0.92105467E+00</totfact>
</mgrwt>
</event>
<event>
12    1  0.4820219E-008  0.1296096E+04  0.7818608E-02  0.9032667E-01
         -3   -1    0    0    0  501 -0.00000000000E+00  0.00000000000E+00  0.17489387291E+04  0.17489387291E+04  0.00000000000E+00 0.  1.
          3   -1    0    0  501    0  0.00000000000E+00 -0.00000000000E+00 -0.24012621457E+03  0.24012621457E+03  0.00000000000E+00 0. -1.
         23    2    1    2    0    0 -0.24084599128E+03  0.10555889592E+03  0.69668515022E+03  0.75028615259E+03  0.91704090521E+02 0.  0.
        254    2    1    2    0    0  0.24084599128E+03 -0.10555889592E+03  0.81212736427E+03  0.12387787910E+04  0.89770405218E+03 0.  0.
         23    2    4    4    0    0 -0.24511348150E+03 -0.24347907920E+03  0.56673670338E+03  0.66959284533E+03  0.88325572388E+02 0.  0.
         23    2    4    4    0    0  0.48595947278E+03  0.13792018328E+03  0.24539066089E+03  0.56918594570E+03  0.92614675923E+02 0.  0.
         11    1    3    3    0    0 -0.31515043816E+02 -0.12864296028E+02  0.51511669516E+02  0.61742531495E+02  0.00000000000E+00 0. -1.
        -11    1    3    3    0    0 -0.20933094746E+03  0.11842319195E+03  0.64517348070E+03  0.68854362110E+03  0.00000000000E+00 0.  1.
          4    1    5    5  502    0 -0.74511872568E+02 -0.57422296768E+02  0.90212862884E+02  0.13033687103E+03  0.00000000000E+00 0. -1.
          3    1    6    6  503    0  0.28115275334E+03  0.58397909199E+02  0.93125741161E+02  0.30187677979E+03  0.00000000000E+00 0. -1.
         -4    1    5    5    0  502 -0.17060160893E+03 -0.18605678244E+03  0.47652384050E+03  0.53925597430E+03  0.00000000000E+00 0.  1.
         -3    1    6    6    0  503  0.20480671944E+03  0.79522274082E+02  0.15226491973E+03  0.26730916591E+03  0.00000000000E+00 0.  1.
<mgrwt>
<rscale>  0 0.12960957E+04</rscale>
<asrwt>0</asrwt>
<pdfrwt beam="1">  1        3 0.36942496E-01 0.12960957E+04</pdfrwt>
<pdfrwt beam="2">  1       -3 0.26906749E+00 0.12960957E+04</pdfrwt>
<totfact> 0.10659991E+00</totfact>
</mgrwt>
</event>
<event>
12    1  0.4820219E-008  0.2556197E+04  0.7818608E-02  0.8383234E-01
          2   -1    0    0  501    0  0.00000000000E+00  0.00000000000E+00  0.20539105023E+04  0.20539105023E+04  0.00000000000E+00 0. -1.
         -2   -1    0    0    0  501 -0.00000000000E+00 -0.00000000000E+00 -0.79532944734E+03  0.79532944734E+03  0.00000000000E+00 0.  1.
         23    2    1    2    0    0 -0.21830509149E+03 -0.10959692634E+04  0.54560719599E+03  0.12469528536E+04  0.91643152867E+02 0.  0.
        254    2    1    2    0    0  0.21830509149E+03  0.10959692634E+04  0.71297385899E+03  0.16022870961E+04  0.90010359141E+03 0.  0.
         23    2    4    4    0    0  0.16024001093E+03  0.10619523268E+04  0.88550314979E+03  0.13954884301E+04  0.99259884768E+02 0.  0.
         23    2    4    4    0    0  0.58065080558E+02  0.34016936580E+02 -0.17252929080E+03  0.20679866594E+03  0.92036006518E+02 0.  0.
         13    1    3    3    0    0 -0.21863719895E+03 -0.93277661760E+03  0.46663370775E+03  0.10656554135E+04  0.00000000000E+00 0. -1.
        -13    1    3    3    0    0  0.33210746300E+00 -0.16319264582E+03  0.78973488243E+02  0.18129744011E+03  0.00000000000E+00 0.  1.
          4    1    5    5  502    0 -0.66799444278E+01  0.95280379430E+02  0.55351843246E+02  0.11039383548E+03  0.00000000000E+00 0. -1.
          1    1    6    6  503    0  0.57662137782E+02  0.42834706382E+00 -0.40252362558E+02  0.70323241580E+02  0.00000000000E+00 0. -1.
         -4    1    5    5    0  502  0.16691995536E+03  0.96667194741E+03  0.83015130655E+03  0.12850945946E+04  0.00000000000E+00 0.  1.
         -1    1    6    6    0  503  0.40294277513E+00  0.33588589517E+02 -0.13227692825E+03  0.13647542436E+03  0.00000000000E+00 0.  1.
<mgrwt>
<rscale>  0 0.25561968E+04</rscale>
<asrwt>0</asrwt>
<pdfrwt beam="1">  1        2 0.31598623E+00 0.25561968E+04</pdfrwt>
<pdfrwt beam="2">  1       -2 0.12235838E+00 0.25561968E+04</pdfrwt>
<totfact> 0.27997681E+00</totfact>
</mgrwt>
</event>
<event>
12    1  0.4820219E-008  0.1419979E+04  0.7818608E-02  0.8939483E-01
         -2   -1    0    0    0  501 -0.00000000000E+00  0.00000000000E+00  0.24856972956E+03  0.24856972956E+03  0.00000000000E+00 0.  1.
          2   -1    0    0  501    0  0.00000000000E+00 -0.00000000000E+00 -0.20279411639E+04  0.20279411639E+04  0.00000000000E+00 0. -1.
         23    2    1    2    0    0  0.19978489293E+03  0.35202134491E+03 -0.37481927820E+03  0.56062749311E+03  0.99903273282E+02 0.  0.
        254    2    1    2    0    0 -0.19978489293E+03 -0.35202134491E+03 -0.14045521561E+04  0.17158834003E+04  0.89869686408E+03 0.  0.
         23    2    4    4    0    0 -0.26359746934E+03 -0.17931191201E+03 -0.37658897061E+02  0.33367974469E+03  0.91036211799E+02 0.  0.
         23    2    4    4    0    0  0.63812576411E+02 -0.17270943290E+03 -0.13668932590E+04  0.13822036556E+04  0.90494037745E+02 0.  0.
         11    1    3    3    0    0  0.21027057748E+03  0.33109803184E+03 -0.34245053892E+03  0.52068415959E+03  0.00000000000E+00 0.  1.
        -11    1    3    3    0    0 -0.10485684556E+02  0.20923313069E+02 -0.32368739279E+02  0.39943333523E+02  0.00000000000E+00 0. -1.
          4    1    6    6  502    0  0.24241573087E+02 -0.81997069617E+02 -0.34135567773E+03  0.35190179313E+03  0.00000000000E+00 0. -1.
          4    1    5    5  503    0 -0.13362029262E+03 -0.52154319323E+02 -0.48784468296E+02  0.15150702944E+03  0.00000000000E+00 0. -1.
         -4    1    5    5    0  503 -0.12997717672E+03 -0.12715759268E+03  0.11125571234E+02  0.18217271525E+03  0.00000000000E+00 0.  1.
         -4    1    6    6    0  502  0.39571003323E+02 -0.90712363283E+02 -0.10255375813E+04  0.10303018625E+04  0.00000000000E+00 0.  1.
<mgrwt>
<rscale>  0 0.14199786E+04</rscale>
<asrwt>0</asrwt>
<pdfrwt beam="1">  1        2 0.31199095E+00 0.14199786E+04</pdfrwt>
<pdfrwt beam="2">  1       -2 0.38241497E-01 0.14199786E+04</pdfrwt>
<totfact> 0.40479243E+01</totfact>
</mgrwt>
</event>
<event>
12    1  0.4820219E-008  0.2282482E+04  0.7818608E-02  0.8484860E-01
         -2   -1    0    0    0  501 -0.00000000000E+00  0.00000000000E+00  0.34881274396E+03  0.34881274396E+03  0.00000000000E+00 0.  1.
          2   -1    0    0  501    0  0.00000000000E+00 -0.00000000000E+00 -0.37338983527E+04  0.37338983527E+04  0.00000000000E+00 0. -1.
         23    2    1    2    0    0  0.47025005722E+03  0.69212632571E+03 -0.64017320459E+03  0.10575671192E+04  0.91937547469E+02 0.  0.
        254    2    1    2    0    0 -0.47025005722E+03 -0.69212632571E+03 -0.27449124042E+04  0.30251439775E+04  0.95748525366E+03 0.  0.
         23    2    4    4    0    0  0.12506419209E+03  0.15339553830E+03 -0.31362198424E+03  0.38151899398E+03  0.89592133902E+02 0.  0.
         23    2    4    4    0    0 -0.59531424932E+03 -0.84552186401E+03 -0.24312904200E+04  0.26436249835E+04  0.90959713443E+02 0.  0.
         11    1    3    3    0    0  0.27930187999E+02  0.48055415704E+02 -0.74563010806E+02  0.93000327744E+02  0.00000000000E+00 0. -1.
        -11    1    3    3    0    0  0.44231986922E+03  0.64407091000E+03 -0.56561019379E+03  0.96456679144E+03  0.00000000000E+00 0.  1.
          3    1    5    5  502    0  0.55172926849E+02  0.84694965752E+01 -0.92841888664E+02  0.10833005363E+03  0.00000000000E+00 0. -1.
          3    1    6    6  503    0 -0.12723021354E+03 -0.13920298470E+03 -0.51128991774E+03  0.54496089600E+03  0.00000000000E+00 0. -1.
         -3    1    5    5    0  502  0.69891265243E+02  0.14492604172E+03 -0.22078009557E+03  0.27318894035E+03  0.00000000000E+00 0.  1.
         -3    1    6    6    0  503 -0.46808403578E+03 -0.70631887931E+03 -0.19200005022E+04  0.20986640875E+04  0.00000000000E+00 0.  1.
<mgrwt>
<rscale>  0 0.22824823E+04</rscale>
<asrwt>0</asrwt>
<pdfrwt beam="1">  1        2 0.57444590E+00 0.22824823E+04</pdfrwt>
<pdfrwt beam="2">  1       -2 0.53663499E-01 0.22824823E+04</pdfrwt>
<totfact> 0.16430969E+00</totfact>
</mgrwt>
</event>
<event>
12    1  0.4820219E-008  0.1223044E+04  0.7818608E-02  0.9092922E-01
          2   -1    0    0  501    0  0.00000000000E+00  0.00000000000E+00  0.11417353081E+04  0.11417353081E+04  0.00000000000E+00 0. -1.
         -2   -1    0    0    0  501 -0.00000000000E+00 -0.00000000000E+00 -0.32753601996E+03  0.32753601996E+03  0.00000000000E+00 0.  1.
         23    2    1    2    0    0  0.12027948341E+03 -0.82220433945E+02  0.45691098546E+03  0.48812778220E+03  0.90960041953E+02 0.  0.
        254    2    1    2    0    0 -0.12027948341E+03  0.82220433945E+02  0.35728830270E+03  0.98114354588E+03  0.90208667682E+03 0.  0.
         23    2    4    4    0    0 -0.32617507158E+02  0.46919619007E+03  0.74639008381E+02  0.48548408039E+03  0.94418452553E+02 0.  0.
         23    2    4    4    0    0 -0.87661976251E+02 -0.38697575613E+03  0.28264929431E+03  0.49565946550E+03  0.91393786698E+02 0.  0.
         11    1    3    3    0    0  0.84034233380E+01 -0.36835590207E+02  0.20893113591E+03  0.21231980073E+03  0.00000000000E+00 0. -1.
        -11    1    3    3    0    0  0.11187606007E+03 -0.45384843738E+02  0.24797984955E+03  0.27580798147E+03  0.00000000000E+00 0.  1.
          1    1    5    5  502    0  0.28352082802E+02  0.12215205309E+03  0.39017077366E+02  0.13132896481E+03  0.00000000000E+00 0. -1.
          3    1    6    6  503    0 -0.57425355414E+02 -0.12986932566E+03  0.14296105800E+03  0.20149833075E+03  0.00000000000E+00 0. -1.
         -1    1    5    5    0  502 -0.60969589960E+02  0.34704413699E+03  0.35621931014E+02  0.35415511557E+03  0.00000000000E+00 0.  1.
         -3    1    6    6    0  503 -0.30236620837E+02 -0.25710643047E+03  0.13968823632E+03  0.29416113475E+03  0.00000000000E+00 0.  1.
<mgrwt>
<rscale>  0 0.12230445E+04</rscale>
<asrwt>0</asrwt>
<pdfrwt beam="1">  1        2 0.17565158E+00 0.12230445E+04</pdfrwt>
<pdfrwt beam="2">  1       -2 0.50390158E-01 0.12230445E+04</pdfrwt>
<totfact> 0.75353324E+01</totfact>
</mgrwt>
</event>
<event>
12    1  0.5194399E-008  0.2380518E+04  0.7818608E-02  0.8446834E-01
         -2   -1    0    0    0  501 -0.00000000000E+00  0.00000000000E+00  0.92332861269E+03  0.92332861269E+03  0.00000000000E+00 0.  1.
          2   -1    0    0  501    0  0.00000000000E+00 -0.00000000000E+00 -0.15343576057E+04  0.15343576057E+04  0.00000000000E+00 0. -1.
         23    2    1    2    0    0 -0.69360861849E+03 -0.35425317048E+03 -0.93835380468E+03  0.12232152573E+04  0.95705164546E+02 0.  0.
        254    2    1    2    0    0  0.69360861849E+03  0.35425317048E+03  0.32732481164E+03  0.12344709611E+04  0.90010488117E+03 0.  0.
         23    2    4    4    0    0 -0.49557089987E+02  0.36185712922E+03  0.30575822102E+03  0.48530846181E+03  0.92950127755E+02 0.  0.
         23    2    4    4    0    0  0.74316570848E+03 -0.76039587440E+01  0.21566590618E+02  0.74916249931E+03  0.91794564631E+02 0.  0.
         11    1    3    3    0    0 -0.12030864363E+03 -0.99234920878E+02 -0.21563950897E+03  0.26612428879E+03  0.00000000000E+00 0.  1.
        -11    1    3    3    0    0 -0.57329997486E+03 -0.25501824960E+03 -0.72271429570E+03  0.95709096852E+03  0.00000000000E+00 0. -1.
          4    1    5    5  502    0 -0.66113150249E+02  0.32754388249E+03  0.24803484320E+03  0.41614568007E+03  0.00000000000E+00 0. -1.
          3    1    6    6  503    0  0.73199456589E+03  0.46859838959E+01  0.23849553836E+02  0.73239798208E+03  0.00000000000E+00 0. -1.
         -4    1    5    5    0  502  0.16556060262E+02  0.34313246728E+02  0.57723377817E+02  0.69162781747E+02  0.00000000000E+00 0.  1.
         -3    1    6    6    0  503  0.11171142581E+02 -0.12289942640E+02 -0.22829632186E+01  0.16764517223E+02  0.00000000000E+00 0.  1.
<mgrwt>
<rscale>  0 0.23805178E+04</rscale>
<asrwt>0</asrwt>
<pdfrwt beam="1">  1        2 0.23605501E+00 0.23805178E+04</pdfrwt>
<pdfrwt beam="2">  1       -2 0.14205056E+00 0.23805178E+04</pdfrwt>
<totfact> 0.37816004E+00</totfact>
</mgrwt>
</event>
<event>
12    1  0.4820219E-008  0.2553361E+04  0.7818608E-02  0.8384218E-01
          1   -1    0    0  501    0  0.00000000000E+00  0.00000000000E+00  0.12353656783E+04  0.12353656783E+04  0.00000000000E+00 0. -1.
         -1   -1    0    0    0  501 -0.00000000000E+00 -0.00000000000E+00 -0.13193772558E+04  0.13193772558E+04  0.00000000000E+00 0.  1.
         23    2    1    2    0    0 -0.37521362878E+03  0.22285603608E+02 -0.10888777443E+04  0.11555725408E+04  0.91712810467E+02 0.  0.
        254    2    1    2    0    0  0.37521362878E+03 -0.22285603608E+02  0.10048661668E+04  0.13991703934E+04  0.89813131629E+03 0.  0.
         23    2    4    4    0    0 -0.12801929729E+03  0.25274046502E+03  0.65923576061E+03  0.72351680607E+03  0.92833708616E+02 0.  0.
         23    2    4    4    0    0  0.50323292607E+03 -0.27502606863E+03  0.34563040615E+03  0.67565358733E+03  0.90358597281E+02 0.  0.
         13    1    3    3    0    0 -0.10362594164E+03 -0.16705897944E+02 -0.20848891527E+03  0.23342033030E+03  0.00000000000E+00 0. -1.
        -13    1    3    3    0    0 -0.27158768714E+03  0.38991501552E+02 -0.88038882901E+03  0.92215221045E+03  0.00000000000E+00 0.  1.
          1    1    5    5  502    0 -0.27513694971E+02  0.14763695025E+03  0.28778187628E+03  0.32461066034E+03  0.00000000000E+00 0. -1.
          3    1    6    6  503    0  0.43219398527E+03 -0.26732894380E+03  0.29013060084E+03  0.58517704213E+03  0.00000000000E+00 0. -1.
         -1    1    5    5    0  502 -0.10050560232E+03  0.10510351477E+03  0.37145388433E+03  0.39890614573E+03  0.00000000000E+00 0.  1.
         -3    1    6    6    0  503  0.71038940804E+02 -0.76971248350E+01  0.55499805306E+02  0.90476545194E+02  0.00000000000E+00 0.  1.
<mgrwt>
<rscale>  0 0.25533612E+04</rscale>
<asrwt>0</asrwt>
<pdfrwt beam="1">  1        1 0.19005626E+00 0.25533612E+04</pdfrwt>
<pdfrwt beam="2">  1       -1 0.20298112E+00 0.25533612E+04</pdfrwt>
<totfact> 0.12783606E+00</totfact>
</mgrwt>
</event>
<event>
12    1  0.4820219E-008  0.1894018E+04  0.7818608E-02  0.8657840E-01
          1   -1    0    0  501    0  0.00000000000E+00  0.00000000000E+00  0.24952869597E+04  0.24952869597E+04  0.00000000000E+00 0. -1.
         -1   -1    0    0    0  501 -0.00000000000E+00 -0.00000000000E+00 -0.35940786918E+03  0.35940786918E+03  0.00000000000E+00 0.  1.
         23    2    1    2    0    0 -0.14478472084E+03 -0.62625412481E+03  0.31630044717E+03  0.72235983216E+03  0.92741091287E+02 0.  0.
        254    2    1    2    0    0  0.14478472084E+03  0.62625412481E+03  0.18195786433E+04  0.21323349967E+04  0.90709936316E+03 0.  0.
         23    2    4    4    0    0  0.22759451966E+03 -0.91490157534E+02  0.10101965941E+04  0.10435184417E+04  0.90905803738E+02 0.  0.
         23    2    4    4    0    0 -0.82809798816E+02  0.71774428234E+03  0.80938204924E+03  0.10888165550E+04  0.91694444682E+02 0.  0.
         13    1    3    3    0    0 -0.49102529384E+02 -0.84552424880E+02  0.30282760891E+02  0.10235827545E+03  0.00000000000E+00 0. -1.
        -13    1    3    3    0    0 -0.95682191460E+02 -0.54170169993E+03  0.28601768628E+03  0.62000155672E+03  0.00000000000E+00 0.  1.
          4    1    5    5  502    0  0.11146175318E+03 -0.68843026172E+02  0.37071393622E+03  0.39318177372E+03  0.00000000000E+00 0.  1.
          3    1    6    6  503    0 -0.51388523685E+02  0.17398105192E+03  0.16665079364E+03  0.24633853498E+03  0.00000000000E+00 0. -1.
         -4    1    5    5    0  502  0.11613276648E+03 -0.22647131362E+02  0.63948265788E+03  0.65033666800E+03  0.00000000000E+00 0. -1.
         -3    1    6    6    0  503 -0.31421275132E+02  0.54376323042E+03  0.64273125560E+03  0.84247802001E+03  0.00000000000E+00 0.  1.
<mgrwt>
<rscale>  0 0.18940177E+04</rscale>
<asrwt>0</asrwt>
<pdfrwt beam="1">  1        1 0.38389029E+00 0.18940177E+04</pdfrwt>
<pdfrwt beam="2">  1       -1 0.55293520E-01 0.18940177E+04</pdfrwt>
<totfact> 0.42283365E+00</totfact>
</mgrwt>
</event>
<event>
12    1  0.4820219E-008  0.2268216E+04  0.7818608E-02  0.8490560E-01
         -2   -1    0    0    0  501 -0.00000000000E+00  0.00000000000E+00  0.20624824834E+04  0.20624824834E+04  0.00000000000E+00 0.  1.
          2   -1    0    0  501    0  0.00000000000E+00 -0.00000000000E+00 -0.62361788052E+03  0.62361788052E+03  0.00000000000E+00 0. -1.
         23    2    1    2    0    0 -0.87973463331E+03 -0.10890431004E+03  0.10139749834E+04  0.13497806262E+04  0.89270925458E+02 0.  0.
        254    2    1    2    0    0  0.87973463331E+03  0.10890431004E+03  0.42488961948E+03  0.13363197377E+04  0.90522156343E+03 0.  0.
         23    2    4    4    0    0  0.99580338064E+03 -0.34333101592E+02  0.18008338341E+03  0.10165210920E+04  0.89899781184E+02 0.  0.
         23    2    4    4    0    0 -0.11606874733E+03  0.14323741164E+03  0.24480623606E+03  0.31979864577E+03  0.91390209659E+02 0.  0.
         11    1    3    3    0    0 -0.27523708259E+03 -0.59898868831E+02  0.37228142721E+03  0.46683700278E+03  0.00000000000E+00 0. -1.
        -11    1    3    3    0    0 -0.60449755073E+03 -0.49005441214E+02  0.64169355624E+03  0.88294362347E+03  0.00000000000E+00 0.  1.
          2    1    5    5  502    0  0.82122982616E+03 -0.58186329791E+02  0.16518708487E+03  0.83969687945E+03  0.00000000000E+00 0. -1.
          1    1    6    6  503    0 -0.68567117161E+02  0.14031814352E+03  0.16745963901E+03  0.22898332178E+03  0.00000000000E+00 0. -1.
         -2    1    5    5    0  502  0.17457355448E+03  0.23853228199E+02  0.14896298543E+02  0.17682421251E+03  0.00000000000E+00 0.  1.
         -1    1    6    6    0  503 -0.47501630166E+02  0.29192681134E+01  0.77346597057E+02  0.90815323988E+02  0.00000000000E+00 0.  1.
<mgrwt>
<rscale>  0 0.22682160E+04</rscale>
<asrwt>0</asrwt>
<pdfrwt beam="1">  1        2 0.95941213E-01 0.22682160E+04</pdfrwt>
<pdfrwt beam="2">  1       -2 0.31730500E+00 0.22682160E+04</pdfrwt>
<totfact> 0.10708208E+00</totfact>
</mgrwt>
</event>
<event>
12    1  0.4820219E-008  0.1373231E+04  0.7818608E-02  0.8973427E-01
         -2   -1    0    0    0  501 -0.00000000000E+00  0.00000000000E+00  0.17151323896E+03  0.17151323896E+03  0.00000000000E+00 0.  1.
          2   -1    0    0  501    0  0.00000000000E+00 -0.00000000000E+00 -0.27487134929E+04  0.27487134929E+04  0.00000000000E+00 0. -1.
         23    2    1    2    0    0  0.35104687985E+03  0.64444182047E+02 -0.46860673999E+03  0.59588554719E+03  0.90001911846E+02 0.  0.
        254    2    1    2    0    0 -0.35104687985E+03 -0.64444182047E+02 -0.21085935140E+04  0.23243411847E+04  0.91049896828E+03 0.  0.
         23    2    4    4    0    0  0.18520217293E+03 -0.30461410826E+03 -0.10117950675E+04  0.10767285393E+04  0.92333573242E+02 0.  0.
         23    2    4    4    0    0 -0.53624905278E+03  0.24016992621E+03 -0.10967984465E+04  0.12476126455E+04  0.91246045858E+02 0.  0.
         11    1    3    3    0    0  0.14986388214E+03  0.44632510433E+01 -0.25874376896E+03  0.29904421372E+03  0.00000000000E+00 0. -1.
        -11    1    3    3    0    0  0.20118299771E+03  0.59980931004E+02 -0.20986297102E+03  0.29684133347E+03  0.00000000000E+00 0.  1.
          2    1    5    5  502    0  0.89269776259E+02 -0.20039876418E+03 -0.71435307433E+03  0.74728112009E+03  0.00000000000E+00 0.  1.
          3    1    6    6  503    0 -0.16204942683E+03  0.34671958922E+02 -0.35409460105E+03  0.39095415072E+03  0.00000000000E+00 0. -1.
         -2    1    5    5    0  502  0.95932396672E+02 -0.10421534408E+03 -0.29744199322E+03  0.32944741918E+03  0.00000000000E+00 0. -1.
         -3    1    6    6    0  503 -0.37419962596E+03  0.20549796729E+03 -0.74270384540E+03  0.85665849473E+03  0.00000000000E+00 0.  1.
<mgrwt>
<rscale>  0 0.13732309E+04</rscale>
<asrwt>0</asrwt>
<pdfrwt beam="1">  1        2 0.42287899E+00 0.13732309E+04</pdfrwt>
<pdfrwt beam="2">  1       -2 0.26386653E-01 0.13732309E+04</pdfrwt>
<totfact> 0.31687867E+01</totfact>
</mgrwt>
</event>
<event>
12    1  0.4820219E-008  0.1551668E+04  0.7818608E-02  0.8850803E-01
          1   -1    0    0  501    0  0.00000000000E+00  0.00000000000E+00  0.22716996191E+04  0.22716996191E+04  0.00000000000E+00 0. -1.
         -1   -1    0    0    0  501 -0.00000000000E+00 -0.00000000000E+00 -0.26496391254E+03  0.26496391254E+03  0.00000000000E+00 0.  1.
         23    2    1    2    0    0  0.41862151394E+03 -0.15390401071E+03  0.10230946636E+04  0.11199207736E+04  0.92571226174E+02 0.  0.
        254    2    1    2    0    0 -0.41862151394E+03  0.15390401071E+03  0.98364104290E+03  0.14167427580E+04  0.91688599329E+03 0.  0.
         23    2    4    4    0    0 -0.26404768338E+03  0.34815415963E+02  0.11243664002E+04  0.11593004117E+04  0.94044406374E+02 0.  0.
         23    2    4    4    0    0 -0.15457383056E+03  0.11908859475E+03 -0.14072535735E+03  0.25744234628E+03  0.91639363626E+02 0.  0.
         11    1    3    3    0    0  0.37893447911E+02 -0.25239811658E+02  0.52964131953E+02  0.69843831228E+02  0.00000000000E+00 0.  1.
        -11    1    3    3    0    0  0.38072806603E+03 -0.12866419906E+03  0.97013053166E+03  0.10500769423E+04  0.00000000000E+00 0. -1.
          1    1    5    5  502    0 -0.25311882688E+03  0.13472827579E+02  0.94763915434E+03  0.98095393594E+03  0.00000000000E+00 0. -1.
          1    1    6    6  503    0 -0.39804303371E+02  0.85391116205E+01 -0.74457543348E+02  0.84860030376E+02  0.00000000000E+00 0. -1.
         -1    1    5    5    0  502 -0.10928856497E+02  0.21342588384E+02  0.17672724590E+03  0.17834647579E+03  0.00000000000E+00 0.  1.
         -1    1    6    6    0  503 -0.11476952719E+03  0.11054948313E+03 -0.66267814000E+02  0.17258231591E+03  0.00000000000E+00 0.  1.
<mgrwt>
<rscale>  0 0.15516680E+04</rscale>
<asrwt>0</asrwt>
<pdfrwt beam="1">  1        1 0.34949224E+00 0.15516680E+04</pdfrwt>
<pdfrwt beam="2">  1       -1 0.40763680E-01 0.15516680E+04</pdfrwt>
<totfact> 0.11043577E+01</totfact>
</mgrwt>
</event>
<event>
12    1  0.4820219E-008  0.1477611E+04  0.7818608E-02  0.8899480E-01
         -2   -1    0    0    0  501 -0.00000000000E+00  0.00000000000E+00  0.19930852607E+03  0.19930852607E+03  0.00000000000E+00 0.  1.
          2   -1    0    0  501    0  0.00000000000E+00 -0.00000000000E+00 -0.27386349390E+04  0.27386349390E+04  0.00000000000E+00 0. -1.
         23    2    1    2    0    0 -0.32513023481E+03  0.21051144799E+03 -0.31047373263E+03  0.50478388568E+03  0.91586534294E+02 0.  0.
        254    2    1    2    0    0  0.32513023481E+03 -0.21051144799E+03 -0.22288526803E+04  0.24331595793E+04  0.89579937986E+03 0.  0.
         23    2    4    4    0    0  0.13276199027E+03 -0.14241231198E+03 -0.21750946202E+02  0.21483120771E+03  0.88160827374E+02 0.  0.
         23    2    4    4    0    0  0.19236824454E+03 -0.68099136011E+02 -0.22071017341E+04  0.22183283716E+04  0.89664185125E+02 0.  0.
         13    1    3    3    0    0 -0.19692767800E+03  0.14887396693E+03 -0.14394085739E+03  0.28576728088E+03  0.00000000000E+00 0.  1.
        -13    1    3    3    0    0 -0.12820255681E+03  0.61637481058E+02 -0.16653287524E+03  0.21901660481E+03  0.00000000000E+00 0. -1.
          4    1    5    5  502    0  0.43332833547E+02 -0.68476690463E+01  0.18342145586E+02  0.47550597676E+02  0.00000000000E+00 0. -1.
          1    1    6    6  503    0  0.10463584143E+03 -0.45722933371E+02 -0.77498478681E+03  0.78335219776E+03  0.00000000000E+00 0. -1.
         -4    1    5    5    0  502  0.89429156722E+02 -0.13556464293E+03 -0.40093091788E+02  0.16728061004E+03  0.00000000000E+00 0.  1.
         -1    1    6    6    0  503  0.87732403110E+02 -0.22376202640E+02 -0.14321169472E+04  0.14349761739E+04  0.00000000000E+00 0.  1.
<mgrwt>
<rscale>  0 0.14776106E+04</rscale>
<asrwt>0</asrwt>
<pdfrwt beam="1">  1        2 0.42132844E+00 0.14776106E+04</pdfrwt>
<pdfrwt beam="2">  1       -2 0.30662851E-01 0.14776106E+04</pdfrwt>
<totfact> 0.24106841E+01</totfact>
</mgrwt>
</event>
<event>
12    1  0.4820219E-008  0.3396491E+04  0.7818608E-02  0.8138768E-01
         -2   -1    0    0    0  501 -0.00000000000E+00  0.00000000000E+00  0.15816958834E+04  0.15816958834E+04  0.00000000000E+00 0.  1.
          2   -1    0    0  501    0  0.00000000000E+00 -0.00000000000E+00 -0.18233830498E+04  0.18233830498E+04  0.00000000000E+00 0. -1.
         23    2    1    2    0    0 -0.93267855605E+03  0.11330589657E+04 -0.69121183689E+03  0.16246886492E+04  0.90152619611E+02 0.  0.
        254    2    1    2    0    0  0.93267855605E+03 -0.11330589657E+04  0.44952467045E+03  0.17803902840E+04  0.90222238136E+03 0.  0.
         23    2    4    4    0    0 -0.67930822123E+02  0.81356064463E+02 -0.17230137027E+01  0.14092555953E+03  0.92863549009E+02 0.  0.
         23    2    4    4    0    0  0.10006093782E+04 -0.12144150301E+04  0.45124768415E+03  0.16394647245E+04  0.90537932512E+02 0.  0.
         13    1    3    3    0    0 -0.93085232521E+03  0.11346635319E+04 -0.69121089692E+03  0.16222576509E+04  0.00000000000E+00 0. -1.
        -13    1    3    3    0    0 -0.18262308324E+01 -0.16045662149E+01 -0.93996217522E-03  0.24309982877E+01  0.00000000000E+00 0.  1.
          3    1    5    5  502    0 -0.91156627370E+02  0.59610718191E+02 -0.43218302461E+01  0.10900296626E+03  0.00000000000E+00 0. -1.
          3    1    6    6  503    0  0.63329059519E+03 -0.71918168445E+03  0.24218456984E+03  0.98839902827E+03  0.00000000000E+00 0. -1.
         -3    1    5    5    0  502  0.23225805248E+02  0.21745346272E+02  0.25988165434E+01  0.31922593273E+02  0.00000000000E+00 0.  1.
         -3    1    6    6    0  503  0.36731878298E+03 -0.49523334568E+03  0.20906311431E+03  0.65106569620E+03  0.00000000000E+00 0.  1.
<mgrwt>
<rscale>  0 0.33964908E+04</rscale>
<asrwt>0</asrwt>
<pdfrwt beam="1">  1        2 0.28052047E+00 0.33964908E+04</pdfrwt>
<pdfrwt beam="2">  1       -2 0.24333783E+00 0.33964908E+04</pdfrwt>
<totfact> 0.49023475E-01</totfact>
</mgrwt>
</event>
<event>
12    1  0.4820219E-008  0.2374830E+04  0.7818608E-02  0.8448988E-01
          2   -1    0    0  501    0  0.00000000000E+00  0.00000000000E+00  0.10981358843E+04  0.10981358843E+04  0.00000000000E+00 0. -1.
         -2   -1    0    0    0  501 -0.00000000000E+00 -0.00000000000E+00 -0.12839520276E+04  0.12839520276E+04  0.00000000000E+00 0.  1.
         23    2    1    2    0    0 -0.97805384041E+03 -0.72438669337E+02  0.17366385820E+03  0.10000178076E+04  0.89664955836E+02 0.  0.
        254    2    1    2    0    0  0.97805384041E+03  0.72438669337E+02 -0.35948000151E+03  0.13820701043E+04  0.90501669942E+03 0.  0.
         23    2    4    4    0    0  0.15618306742E+03  0.58323941662E+02  0.27816483757E+03  0.33752646371E+03  0.93560697521E+02 0.  0.
         23    2    4    4    0    0  0.82187077299E+03  0.14114727675E+02 -0.63764483909E+03  0.10445436406E+04  0.93859913258E+02 0.  0.
         11    1    3    3    0    0 -0.30580237700E+03  0.39425550449E+01  0.86667247568E+02  0.31787080602E+03  0.00000000000E+00 0.  1.
        -11    1    3    3    0    0 -0.67225146341E+03 -0.76381224382E+02  0.86996610635E+02  0.68214700158E+03  0.00000000000E+00 0. -1.
          2    1    5    5  502    0  0.14882594384E+03  0.33581812079E+02  0.27056858554E+03  0.31061915450E+03  0.00000000000E+00 0. -1.
          1    1    6    6  503    0  0.37675042938E+03  0.44366888860E+02 -0.32776695597E+03  0.50133869219E+03  0.00000000000E+00 0. -1.
         -2    1    5    5    0  502  0.73571235866E+01  0.24742129584E+02  0.75962520308E+01  0.26907309206E+02  0.00000000000E+00 0.  1.
         -1    1    6    6    0  503  0.44512034360E+03 -0.30252161185E+02 -0.30987788312E+03  0.54320494843E+03  0.00000000000E+00 0.  1.
<mgrwt>
<rscale>  0 0.23748295E+04</rscale>
<asrwt>0</asrwt>
<pdfrwt beam="1">  1        2 0.16894398E+00 0.23748295E+04</pdfrwt>
<pdfrwt beam="2">  1       -2 0.19753108E+00 0.23748295E+04</pdfrwt>
<totfact> 0.27175182E+00</totfact>
</mgrwt>
</event>
<event>
12    1  0.4820219E-008  0.1751167E+04  0.7818608E-02  0.8732708E-01
          2   -1    0    0  501    0  0.00000000000E+00  0.00000000000E+00  0.24611988903E+04  0.24611988903E+04  0.00000000000E+00 0. -1.
         -2   -1    0    0    0  501 -0.00000000000E+00 -0.00000000000E+00 -0.31149316134E+03  0.31149316134E+03  0.00000000000E+00 0.  1.
         23    2    1    2    0    0  0.37316494557E+03  0.30386381197E+03  0.10571339811E+04  0.11651828727E+04  0.92377378241E+02 0.  0.
        254    2    1    2    0    0 -0.37316494557E+03 -0.30386381197E+03  0.10925717479E+04  0.16075091790E+04  0.10764698990E+04 0.  0.
         23    2    4    4    0    0  0.22937279203E+02  0.30964270984E+03  0.46468721046E+02  0.32780515282E+03  0.94298195317E+02 0.  0.
         23    2    4    4    0    0 -0.39610222477E+03 -0.61350652181E+03  0.10461030269E+04  0.12797040262E+04  0.10011806530E+03 0.  0.
         13    1    3    3    0    0  0.30580767055E+03  0.23781581501E+03  0.75381833462E+03  0.84753570712E+03  0.00000000000E+00 0. -1.
        -13    1    3    3    0    0  0.67357275016E+02  0.66047996957E+02  0.30331564648E+03  0.31764716557E+03  0.00000000000E+00 0.  1.
          2    1    5    5  502    0  0.13543909057E+02  0.30161088416E+03  0.61736339121E+02  0.30816219509E+03  0.00000000000E+00 0. -1.
          1    1    6    6  503    0 -0.28060123383E+03 -0.43945862403E+03  0.66419060477E+03  0.84439925043E+03  0.00000000000E+00 0. -1.
         -2    1    5    5    0  502  0.93933701454E+01  0.80318256880E+01 -0.15267618075E+02  0.19642957727E+02  0.00000000000E+00 0.  1.
         -1    1    6    6    0  503 -0.11550099094E+03 -0.17404789778E+03  0.38191242208E+03  0.43530477573E+03  0.00000000000E+00 0.  1.
<mgrwt>
<rscale>  0 0.17511672E+04</rscale>
<asrwt>0</asrwt>
<pdfrwt beam="1">  1        2 0.37864597E+00 0.17511672E+04</pdfrwt>
<pdfrwt beam="2">  1       -2 0.47922026E-01 0.17511672E+04</pdfrwt>
<totfact> 0.14351277E+01</totfact>
</mgrwt>
</event>
<event>
12    1  0.4820219E-008  0.1093137E+04  0.7818608E-02  0.9211907E-01
         -1   -1    0    0    0  501 -0.00000000000E+00  0.00000000000E+00  0.17723443757E+03  0.17723443757E+03  0.00000000000E+00 0.  1.
          1   -1    0    0  501    0  0.00000000000E+00 -0.00000000000E+00 -0.16855483924E+04  0.16855483924E+04  0.00000000000E+00 0. -1.
         23    2    1    2    0    0  0.10193318802E+03 -0.11131629129E+03 -0.24850894812E+03  0.30475595537E+03  0.91311573799E+02 0.  0.
        254    2    1    2    0    0 -0.10193318802E+03  0.11131629129E+03 -0.12598050067E+04  0.15580268746E+04  0.90418880524E+03 0.  0.
         23    2    4    4    0    0 -0.52072413615E+02  0.35467662032E+03 -0.12384621556E+04  0.12924804398E+04  0.90609795647E+02 0.  0.
         23    2    4    4    0    0 -0.49860774408E+02 -0.24336032903E+03 -0.21342851144E+02  0.26554643486E+03  0.91373109845E+02 0.  0.
         13    1    3    3    0    0  0.86823260358E+02 -0.97332374701E+02 -0.25211439318E+03  0.28385478145E+03  0.00000000000E+00 0. -1.
        -13    1    3    3    0    0  0.15109927665E+02 -0.13983916587E+02  0.36054450564E+01  0.20901173919E+02  0.00000000000E+00 0.  1.
          3    1    5    5  502    0 -0.32023073059E+02  0.55668222745E+02 -0.31943881234E+03  0.32583060486E+03  0.00000000000E+00 0. -1.
          3    1    6    6  503    0 -0.46309033703E+02 -0.61192020681E+02  0.18722042758E+02  0.78990536664E+02  0.00000000000E+00 0. -1.
         -3    1    5    5    0  502 -0.20049340555E+02  0.29900839757E+03 -0.91902334324E+03  0.96664983490E+03  0.00000000000E+00 0.  1.
         -3    1    6    6    0  503 -0.35517407052E+01 -0.18216830835E+03 -0.40064893902E+02  0.18655589820E+03  0.00000000000E+00 0.  1.
<mgrwt>
<rscale>  0 0.10931372E+04</rscale>
<asrwt>0</asrwt>
<pdfrwt beam="1">  1        1 0.25931514E+00 0.10931372E+04</pdfrwt>
<pdfrwt beam="2">  1       -1 0.27266837E-01 0.10931372E+04</pdfrwt>
<totfact> 0.58642075E+01</totfact>
</mgrwt>
</event>
<event>
12    1  0.4820219E-008  0.2691526E+04  0.7818608E-02  0.8337760E-01
          1   -1    0    0  501    0  0.00000000000E+00  0.00000000000E+00  0.15101416385E+04  0.15101416385E+04  0.00000000000E+00 0. -1.
         -1   -1    0    0    0  501 -0.00000000000E+00 -0.00000000000E+00 -0.11992770612E+04  0.11992770612E+04  0.00000000000E+00 0.  1.
         23    2    1    2    0    0  0.21713393517E+03  0.22383570966E+03 -0.10247789676E+04  0.10750114701E+04  0.90709192696E+02 0.  0.
        254    2    1    2    0    0 -0.21713393517E+03 -0.22383570966E+03  0.13356435450E+04  0.16344072296E+04  0.88887217433E+03 0.  0.
         23    2    4    4    0    0 -0.22579294904E+03  0.50396768578E+02 -0.18894239065E+02  0.24909676738E+03  0.90387593898E+02 0.  0.
         23    2    4    4    0    0  0.86590138766E+01 -0.27423247824E+03  0.13545377840E+04  0.13853104622E+04  0.95047555343E+02 0.  0.
         13    1    3    3    0    0  0.25940236156E+02  0.77938320991E+02 -0.31784142830E+03  0.32828410146E+03  0.00000000000E+00 0.  1.
        -13    1    3    3    0    0  0.19119369901E+03  0.14589738867E+03 -0.70693753935E+03  0.74672736865E+03  0.00000000000E+00 0. -1.
          4    1    5    5  502    0 -0.19832545783E+03  0.12525633049E+02 -0.21107822805E+00  0.19872071674E+03  0.00000000000E+00 0. -1.
          1    1    6    6  503    0  0.21262433041E+02 -0.17298248063E+03  0.10438017504E+04  0.10582519189E+04  0.00000000000E+00 0. -1.
         -4    1    5    5    0  502 -0.27467491211E+02  0.37871135529E+02 -0.18683160837E+02  0.50376050645E+02  0.00000000000E+00 0.  1.
         -1    1    6    6    0  503 -0.12603419164E+02 -0.10124999761E+03  0.31073603364E+03  0.32705854337E+03  0.00000000000E+00 0.  1.
<mgrwt>
<rscale>  0 0.26915261E+04</rscale>
<asrwt>0</asrwt>
<pdfrwt beam="1">  1        1 0.23232948E+00 0.26915261E+04</pdfrwt>
<pdfrwt beam="2">  1       -1 0.18450416E+00 0.26915261E+04</pdfrwt>
<totfact> 0.10868450E+00</totfact>
</mgrwt>
</event>
<event>
12    1  0.4820219E-008  0.1736800E+04  0.7818608E-02  0.8740650E-01
         -1   -1    0    0    0  501 -0.00000000000E+00  0.00000000000E+00  0.40691357147E+03  0.40691357147E+03  0.00000000000E+00 0.  1.
          1   -1    0    0  501    0  0.00000000000E+00 -0.00000000000E+00 -0.18532657642E+04  0.18532657642E+04  0.00000000000E+00 0. -1.
         23    2    1    2    0    0  0.29750213168E+03 -0.50613534777E+03 -0.21291451627E+03  0.63117099308E+03  0.91453390548E+02 0.  0.
        254    2    1    2    0    0 -0.29750213168E+03  0.50613534777E+03 -0.12334376765E+04  0.16290083426E+04  0.88747910958E+03 0.  0.
         23    2    4    4    0    0 -0.22102779435E+03 -0.14484191789E+03 -0.66031094845E+02  0.28625355037E+03  0.88025692626E+02 0.  0.
         23    2    4    4    0    0 -0.76474337339E+02  0.65097726566E+03 -0.11674065817E+04  0.13427547923E+04  0.10262836146E+03 0.  0.
         13    1    3    3    0    0  0.24784585436E+03 -0.35725938564E+03 -0.13086900009E+03  0.45407987330E+03  0.00000000000E+00 0.  1.
        -13    1    3    3    0    0  0.49656277320E+02 -0.14887596213E+03 -0.82045516180E+02  0.17709111978E+03  0.00000000000E+00 0. -1.
          4    1    5    5  502    0 -0.12445426812E+03 -0.12334612552E+03 -0.66214222405E+02  0.18731645625E+03  0.00000000000E+00 0. -1.
          1    1    6    6  503    0 -0.79391424174E+02  0.65345223730E+03 -0.11512558973E+04  0.13261572176E+04  0.00000000000E+00 0. -1.
         -4    1    5    5    0  502 -0.96573526228E+02 -0.21495792373E+02  0.18312755967E+00  0.98937094123E+02  0.00000000000E+00 0.  1.
         -1    1    6    6    0  503  0.29170868352E+01 -0.24749716388E+01 -0.16150684388E+02  0.16597574715E+02  0.00000000000E+00 0.  1.
<mgrwt>
<rscale>  0 0.17368005E+04</rscale>
<asrwt>0</asrwt>
<pdfrwt beam="1">  1        1 0.28511781E+00 0.17368005E+04</pdfrwt>
<pdfrwt beam="2">  1       -1 0.62602087E-01 0.17368005E+04</pdfrwt>
<totfact> 0.92032968E+00</totfact>
</mgrwt>
</event>
<event>
12    1  0.4820219E-008  0.1705425E+04  0.7818608E-02  0.8758276E-01
          1   -1    0    0  501    0  0.00000000000E+00  0.00000000000E+00  0.76301002101E+03  0.76301002101E+03  0.00000000000E+00 0. -1.
         -1   -1    0    0    0  501 -0.00000000000E+00 -0.00000000000E+00 -0.95296052331E+03  0.95296052331E+03  0.00000000000E+00 0.  1.
         23    2    1    2    0    0  0.30196440418E+03  0.46919565834E+03  0.17519216499E+03  0.59188755664E+03  0.91167526253E+02 0.  0.
        254    2    1    2    0    0 -0.30196440418E+03 -0.46919565834E+03 -0.36514266728E+03  0.11240829877E+04  0.90493443327E+03 0.  0.
         23    2    4    4    0    0 -0.79804695061E+02 -0.44835044671E+03 -0.61913321773E+03  0.77411349234E+03  0.92405872725E+02 0.  0.
         23    2    4    4    0    0 -0.22215970912E+03 -0.20845211631E+02  0.25399055045E+03  0.34996949533E+03  0.90432232871E+02 0.  0.
         11    1    3    3    0    0  0.23969306656E+03  0.31400429207E+03  0.15108615454E+03  0.42294028856E+03  0.00000000000E+00 0. -1.
        -11    1    3    3    0    0  0.62271337616E+02  0.15519136626E+03  0.24106010449E+02  0.16894726808E+03  0.00000000000E+00 0.  1.
          2    1    5    5  502    0  0.38152800739E+01 -0.29659293281E+02 -0.86219225697E+02  0.91257793748E+02  0.00000000000E+00 0. -1.
          2    1    6    6  503    0 -0.64070915182E+02 -0.20541361534E+02  0.25144639547E+02  0.71828146321E+02  0.00000000000E+00 0. -1.
         -2    1    5    5    0  502 -0.83619975135E+02 -0.41869115343E+03 -0.53291399203E+03  0.68285569860E+03  0.00000000000E+00 0.  1.
         -2    1    6    6    0  503 -0.15808879393E+03 -0.30385009684E+00  0.22884591090E+03  0.27814134901E+03  0.00000000000E+00 0.  1.
<mgrwt>
<rscale>  0 0.17054248E+04</rscale>
<asrwt>0</asrwt>
<pdfrwt beam="1">  1        1 0.11738616E+00 0.17054248E+04</pdfrwt>
<pdfrwt beam="2">  1       -1 0.14660931E+00 0.17054248E+04</pdfrwt>
<totfact> 0.84138548E+00</totfact>
</mgrwt>
</event>
<event>
12    1  0.4820219E-008  0.2094442E+04  0.7818608E-02  0.8563696E-01
         -2   -1    0    0    0  501 -0.00000000000E+00  0.00000000000E+00  0.69689945169E+03  0.69689945169E+03  0.00000000000E+00 0.  1.
          2   -1    0    0  501    0  0.00000000000E+00 -0.00000000000E+00 -0.15736438408E+04  0.15736438408E+04  0.00000000000E+00 0. -1.
         23    2    1    2    0    0 -0.20378777150E+03  0.19244399615E+03  0.50151246463E+03  0.58172236000E+03  0.91225021104E+02 0.  0.
        254    2    1    2    0    0  0.20378777150E+03 -0.19244399615E+03 -0.13782568537E+04  0.16888209325E+04  0.93485829923E+03 0.  0.
         23    2    4    4    0    0  0.47837888988E+03 -0.30881896427E+03 -0.52325166316E+03  0.77870550645E+03  0.91512009063E+02 0.  0.
         23    2    4    4    0    0 -0.27459111838E+03  0.11637496812E+03 -0.85500519057E+03  0.91011542602E+03  0.91284156847E+02 0.  0.
         13    1    3    3    0    0 -0.15521773000E+03  0.18307112307E+03  0.45177663431E+03  0.51157571005E+03  0.00000000000E+00 0.  1.
        -13    1    3    3    0    0 -0.48570041494E+02  0.93728730743E+01  0.49735830325E+02  0.70146649945E+02  0.00000000000E+00 0. -1.
          4    1    5    5  502    0  0.33263781330E+03 -0.18744836319E+03 -0.29869315146E+03  0.48477046365E+03  0.00000000000E+00 0. -1.
          3    1    6    6  503    0 -0.10253811125E+03 -0.26733172046E+01 -0.29187582670E+03  0.30937470662E+03  0.00000000000E+00 0. -1.
         -4    1    5    5    0  502  0.14574107658E+03 -0.12137060108E+03 -0.22455851170E+03  0.29393504280E+03  0.00000000000E+00 0.  1.
         -3    1    6    6    0  503 -0.17205300712E+03  0.11904828533E+03 -0.56312936387E+03  0.60074071940E+03  0.00000000000E+00 0.  1.
<mgrwt>
<rscale>  0 0.20944417E+04</rscale>
<asrwt>0</asrwt>
<pdfrwt beam="1">  1        2 0.24209905E+00 0.20944417E+04</pdfrwt>
<pdfrwt beam="2">  1       -2 0.10721530E+00 0.20944417E+04</pdfrwt>
<totfact> 0.74369306E+00</totfact>
</mgrwt>
</event>
<event>
12    1  0.4820219E-008  0.2226260E+04  0.7818608E-02  0.8507577E-01
          2   -1    0    0  501    0  0.00000000000E+00  0.00000000000E+00  0.13165906442E+04  0.13165906442E+04  0.00000000000E+00 0. -1.
         -2   -1    0    0    0  501 -0.00000000000E+00 -0.00000000000E+00 -0.94111099035E+03  0.94111099035E+03  0.00000000000E+00 0.  1.
         23    2    1    2    0    0 -0.33453954602E+03 -0.72718025416E+03  0.61716852836E+03  0.10148815402E+04  0.91540801269E+02 0.  0.
        254    2    1    2    0    0  0.33453954602E+03  0.72718025416E+03 -0.24168887447E+03  0.12428200944E+04  0.91950010611E+03 0.  0.
         23    2    4    4    0    0  0.57206732087E+02  0.32260991893E+01 -0.42689489382E+03  0.44089488215E+03  0.94159592299E+02 0.  0.
         23    2    4    4    0    0  0.27733281393E+03  0.72395415497E+03  0.18520601935E+03  0.80192521226E+03  0.88088979315E+02 0.  0.
         11    1    3    3    0    0 -0.28853246632E+03 -0.66461097837E+03  0.58327653269E+03  0.93014528449E+03  0.00000000000E+00 0. -1.
        -11    1    3    3    0    0 -0.46007079697E+02 -0.62569275797E+02  0.33891995673E+02  0.84736255680E+02  0.00000000000E+00 0.  1.
          4    1    5    5  502    0  0.21500377184E+02 -0.15963995003E+02 -0.23981800437E+02  0.35947769162E+02  0.00000000000E+00 0. -1.
          3    1    6    6  503    0 -0.59307592105E+01  0.88849745313E+01 -0.49448963916E+00  0.10693979486E+02  0.00000000000E+00 0. -1.
         -4    1    5    5    0  502  0.35706354903E+02  0.19190094192E+02 -0.40291309339E+03  0.40494711299E+03  0.00000000000E+00 0.  1.
         -3    1    6    6    0  503  0.28326357314E+03  0.71506918044E+03  0.18570050899E+03  0.79123123278E+03  0.00000000000E+00 0.  1.
<mgrwt>
<rscale>  0 0.22262596E+04</rscale>
<asrwt>0</asrwt>
<pdfrwt beam="1">  1        2 0.20255241E+00 0.22262596E+04</pdfrwt>
<pdfrwt beam="2">  1       -2 0.14478631E+00 0.22262596E+04</pdfrwt>
<totfact> 0.48513718E+00</totfact>
</mgrwt>
</event>
<event>
12    1  0.5372443E-008  0.2168151E+04  0.7818608E-02  0.8531803E-01
         -2   -1    0    0    0  501 -0.00000000000E+00  0.00000000000E+00  0.57596429898E+03  0.57596429898E+03  0.00000000000E+00 0. -1.
          2   -1    0    0  501    0  0.00000000000E+00 -0.00000000000E+00 -0.20404377380E+04  0.20404377380E+04  0.00000000000E+00 0.  1.
         23    2    1    2    0    0 -0.46817201015E+03 -0.67641287620E+03 -0.10475515660E+04  0.13347366035E+04  0.86244461161E+02 0.  0.
        254    2    1    2    0    0  0.46817201015E+03  0.67641287620E+03 -0.41692187307E+03  0.12816654335E+04  0.89001293536E+03 0.  0.
         23    2    4    4    0    0  0.47631533663E+03  0.26397881099E+03 -0.60538284391E+03  0.81919528100E+03  0.89618124020E+02 0.  0.
         23    2    4    4    0    0 -0.81433264800E+01  0.41243406521E+03  0.18846097084E+03  0.46247015254E+03  0.90514819508E+02 0.  0.
         13    1    3    3    0    0 -0.42286880974E+03 -0.64392033252E+03 -0.95896781126E+03  0.12300693834E+04  0.00000000000E+00 0.  1.
        -13    1    3    3    0    0 -0.45303200412E+02 -0.32492543675E+02 -0.88583754711E+02  0.10466722009E+03  0.00000000000E+00 0. -1.
          2    1    5    5  502    0  0.47439537140E+03  0.24840346028E+03 -0.59439410453E+03  0.80003724850E+03  0.00000000000E+00 0. -1.
          3    1    6    6  503    0 -0.15418427813E+02  0.40411729033E+03  0.19568623890E+03  0.44926786704E+03  0.00000000000E+00 0. -1.
         -2    1    5    5    0  502  0.19199652313E+01  0.15575350710E+02 -0.10988739378E+02  0.19158032502E+02  0.00000000000E+00 0.  1.
         -3    1    6    6    0  503  0.72751013331E+01  0.83167748788E+01 -0.72252680646E+01  0.13202285499E+02  0.00000000000E+00 0.  1.
<mgrwt>
<rscale>  0 0.21681506E+04</rscale>
<asrwt>0</asrwt>
<pdfrwt beam="1">  1        2 0.31391350E+00 0.21681506E+04</pdfrwt>
<pdfrwt beam="2">  1       -2 0.88609892E-01 0.21681506E+04</pdfrwt>
<totfact> 0.63674864E+00</totfact>
</mgrwt>
</event>
<event>
12    1  0.4820219E-008  0.1815996E+04  0.7818608E-02  0.8697839E-01
         -2   -1    0    0    0  501 -0.00000000000E+00  0.00000000000E+00  0.35177531521E+03  0.35177531521E+03  0.00000000000E+00 0.  1.
          2   -1    0    0  501    0  0.00000000000E+00 -0.00000000000E+00 -0.23437132112E+04  0.23437132112E+04  0.00000000000E+00 0. -1.
         23    2    1    2    0    0  0.21888674646E+03 -0.42349034747E+03 -0.34912602808E+02  0.48660826885E+03  0.91176945006E+02 0.  0.
        254    2    1    2    0    0 -0.21888674646E+03  0.42349034747E+03 -0.19570252932E+04  0.22088802576E+04  0.90661376116E+03 0.  0.
         23    2    4    4    0    0 -0.56918072355E+02  0.55864043308E+03 -0.18829197425E+04  0.19669251670E+04  0.89939176770E+02 0.  0.
         23    2    4    4    0    0 -0.16196867410E+03 -0.13515008561E+03 -0.74105550764E+02  0.24195509062E+03  0.92472894355E+02 0.  0.
         11    1    3    3    0    0  0.29841714906E+02 -0.29957219866E+02 -0.26578690658E+02  0.49943866167E+02  0.00000000000E+00 0. -1.
        -11    1    3    3    0    0  0.18904503155E+03 -0.39353312760E+03 -0.83339121492E+01  0.43666440268E+03  0.00000000000E+00 0.  1.
          2    1    5    5  502    0 -0.50539833720E+02  0.30970539506E+03 -0.11876353210E+04  0.12283929999E+04  0.00000000000E+00 0. -1.
          1    1    6    6  503    0 -0.11096332040E+02 -0.31860277832E+02  0.16881378433E+02  0.37725148457E+02  0.00000000000E+00 0. -1.
         -2    1    5    5    0  502 -0.63782386353E+01  0.24893503802E+03 -0.69528442146E+03  0.73853216707E+03  0.00000000000E+00 0.  1.
         -1    1    6    6    0  503 -0.15087234206E+03 -0.10328980778E+03 -0.90986929197E+02  0.20422994216E+03  0.00000000000E+00 0.  1.
<mgrwt>
<rscale>  0 0.18159961E+04</rscale>
<asrwt>0</asrwt>
<pdfrwt beam="1">  1        2 0.36057125E+00 0.18159961E+04</pdfrwt>
<pdfrwt beam="2">  1       -2 0.54119281E-01 0.18159961E+04</pdfrwt>
<totfact> 0.12985954E+01</totfact>
</mgrwt>
</event>
<event>
12    1  0.4820219E-008  0.1216049E+04  0.7818608E-02  0.9098923E-01
          2   -1    0    0  501    0  0.00000000000E+00  0.00000000000E+00  0.12424127888E+04  0.12424127888E+04  0.00000000000E+00 0. -1.
         -2   -1    0    0    0  501 -0.00000000000E+00 -0.00000000000E+00 -0.29756135059E+03  0.29756135059E+03  0.00000000000E+00 0.  1.
         23    2    1    2    0    0 -0.10315588041E+03  0.17523446737E+03  0.16381796008E+02  0.22299735694E+03  0.90062221505E+02 0.  0.
        254    2    1    2    0    0  0.10315588041E+03 -0.17523446737E+03  0.92846964222E+03  0.13169767825E+04  0.91160502129E+03 0.  0.
         23    2    4    4    0    0  0.40581726992E+03 -0.17101295824E+02  0.86212100757E+03  0.95738110007E+03  0.91355504443E+02 0.  0.
         23    2    4    4    0    0 -0.30266138951E+03 -0.15813317155E+03  0.66348634650E+02  0.35959568240E+03  0.91087303396E+02 0.  0.
         11    1    3    3    0    0 -0.76384262672E+02  0.59548819965E+02  0.34634078612E+02  0.10285979265E+03  0.00000000000E+00 0. -1.
        -11    1    3    3    0    0 -0.26771617739E+02  0.11568564740E+03 -0.18252282604E+02  0.12013756428E+03  0.00000000000E+00 0.  1.
          2    1    5    5  502    0  0.39508907067E+03 -0.33044689364E+02  0.83227876420E+03  0.92188679706E+03  0.00000000000E+00 0. -1.
          1    1    6    6  503    0 -0.10039851671E+03 -0.35739572267E+02 -0.18998180316E+02  0.10825021958E+03  0.00000000000E+00 0.  1.
         -2    1    5    5    0  502  0.10728199254E+02  0.15943393540E+02  0.29842243377E+02  0.35494303015E+02  0.00000000000E+00 0.  1.
         -1    1    6    6    0  503 -0.20226287280E+03 -0.12239359928E+03  0.85346814966E+02  0.25134546282E+03  0.00000000000E+00 0. -1.
<mgrwt>
<rscale>  0 0.12160494E+04</rscale>
<asrwt>0</asrwt>
<pdfrwt beam="1">  1        2 0.19114043E+00 0.12160494E+04</pdfrwt>
<pdfrwt beam="2">  1       -2 0.45778670E-01 0.12160494E+04</pdfrwt>
<totfact> 0.79673735E+01</totfact>
</mgrwt>
</event>
<event>
12    1  0.4820219E-008  0.1802372E+04  0.7818608E-02  0.8705039E-01
          2   -1    0    0  501    0  0.00000000000E+00  0.00000000000E+00  0.33343852587E+04  0.33343852587E+04  0.00000000000E+00 0.  1.
         -2   -1    0    0    0  501 -0.00000000000E+00 -0.00000000000E+00 -0.24356409266E+03  0.24356409266E+03  0.00000000000E+00 0. -1.
         23    2    1    2    0    0 -0.44125420438E+03  0.37256441397E+03  0.99360440368E+03  0.11529294651E+04  0.92125593953E+02 0.  0.
        254    2    1    2    0    0  0.44125420438E+03 -0.37256441397E+03  0.20972167623E+04  0.24250198862E+04  0.10718646300E+04 0.  0.
         23    2    4    4    0    0  0.26614593772E+02  0.94428863849E+02 -0.81465202006E+02  0.15680308117E+03  0.91244069379E+02 0.  0.
         23    2    4    4    0    0  0.41463961060E+03 -0.46699327782E+03  0.21786819644E+04  0.22682168051E+04  0.90242145384E+02 0.  0.
         11    1    3    3    0    0 -0.34890950347E+03  0.25514723334E+03  0.78832106509E+03  0.89904841580E+03  0.00000000000E+00 0.  1.
        -11    1    3    3    0    0 -0.92344700909E+02  0.11741718063E+03  0.20528333859E+03  0.25388104931E+03  0.00000000000E+00 0. -1.
          2    1    5    5  502    0  0.48671558620E+02  0.64574202956E+02 -0.87560368420E+02  0.11918710678E+03  0.00000000000E+00 0. -1.
          1    1    6    6  503    0  0.36665078047E+03 -0.44911655072E+03  0.19986674520E+04  0.20810598393E+04  0.00000000000E+00 0. -1.
         -2    1    5    5    0  502 -0.22056964847E+02  0.29854660893E+02  0.60951664135E+01  0.37615974385E+02  0.00000000000E+00 0.  1.
         -1    1    6    6    0  503  0.47988830136E+02 -0.17876727099E+02  0.18001451236E+03  0.18715696581E+03  0.00000000000E+00 0.  1.
<mgrwt>
<rscale>  0 0.18023723E+04</rscale>
<asrwt>0</asrwt>
<pdfrwt beam="1">  1        2 0.51298232E+00 0.18023723E+04</pdfrwt>
<pdfrwt beam="2">  1       -2 0.37471401E-01 0.18023723E+04</pdfrwt>
<totfact> 0.67410602E+00</totfact>
</mgrwt>
</event>
<event>
12    1  0.4820219E-008  0.1524974E+04  0.7818608E-02  0.8868013E-01
          2   -1    0    0  501    0  0.00000000000E+00  0.00000000000E+00  0.92086611990E+03  0.92086611990E+03  0.00000000000E+00 0. -1.
         -2   -1    0    0    0  501 -0.00000000000E+00 -0.00000000000E+00 -0.63134757337E+03  0.63134757337E+03  0.00000000000E+00 0.  1.
         23    2    1    2    0    0  0.29748244402E+03  0.22136450410E+03 -0.23152859871E+03  0.44711498225E+03  0.93852368962E+02 0.  0.
        254    2    1    2    0    0 -0.29748244402E+03 -0.22136450410E+03  0.52104714523E+03  0.11050987110E+04  0.90125189895E+03 0.  0.
         23    2    4    4    0    0 -0.58771011066E+03 -0.29139763100E+03  0.36827230716E+03  0.75768454786E+03  0.90253134659E+02 0.  0.
         23    2    4    4    0    0  0.29022766663E+03  0.70033126900E+02  0.15277483807E+03  0.34741416316E+03  0.90662628872E+02 0.  0.
         11    1    3    3    0    0  0.14515407208E+03  0.15970255736E+03 -0.15578219541E+03  0.26616292731E+03  0.00000000000E+00 0.  1.
        -11    1    3    3    0    0  0.15232837195E+03  0.61661946738E+02 -0.75746403293E+02  0.18095205494E+03  0.00000000000E+00 0. -1.
          4    1    5    5  502    0 -0.43758624712E+03 -0.19036359754E+03  0.22879569029E+03  0.52921403121E+03  0.00000000000E+00 0. -1.
          3    1    6    6  503    0  0.16558659556E+03  0.36060912758E+02  0.13569913575E+03  0.21710266120E+03  0.00000000000E+00 0. -1.
         -4    1    5    5    0  502 -0.15012386354E+03 -0.10103403346E+03  0.13947661688E+03  0.22847051665E+03  0.00000000000E+00 0.  1.
         -3    1    6    6    0  503  0.12464107108E+03  0.33972214142E+02  0.17075702317E+02  0.13031150196E+03  0.00000000000E+00 0.  1.
<mgrwt>
<rscale>  0 0.15249742E+04</rscale>
<asrwt>0</asrwt>
<pdfrwt beam="1">  1        2 0.14167171E+00 0.15249742E+04</pdfrwt>
<pdfrwt beam="2">  1       -2 0.97130396E-01 0.15249742E+04</pdfrwt>
<totfact> 0.24227460E+01</totfact>
</mgrwt>
</event>
<event>
12    1  0.4820219E-008  0.4221877E+04  0.7818608E-02  0.7961224E-01
         -2   -1    0    0    0  501 -0.00000000000E+00  0.00000000000E+00  0.15794069604E+04  0.15794069604E+04  0.00000000000E+00 0.  1.
          2   -1    0    0  501    0  0.00000000000E+00 -0.00000000000E+00 -0.28213514239E+04  0.28213514239E+04  0.00000000000E+00 0. -1.
         23    2    1    2    0    0  0.11877533377E+04 -0.15722153069E+04 -0.10393978951E+04  0.22296107667E+04  0.90538524851E+02 0.  0.
        254    2    1    2    0    0 -0.11877533377E+04  0.15722153069E+04 -0.20254656847E+03  0.21711476176E+04  0.88895326233E+03 0.  0.
         23    2    4    4    0    0 -0.58056098199E+03  0.15594961401E+03  0.36779689969E+02  0.60912577806E+03  0.91159925318E+02 0.  0.
         23    2    4    4    0    0 -0.60719235568E+03  0.14162656929E+04 -0.23932625844E+03  0.15620218395E+04  0.90244664953E+02 0.  0.
         13    1    3    3    0    0  0.24715337790E+03 -0.39074878436E+03 -0.24426429879E+03  0.52290960246E+03  0.00000000000E+00 0. -1.
        -13    1    3    3    0    0  0.94059995976E+03 -0.11814665226E+04 -0.79513359627E+03  0.17067011643E+04  0.00000000000E+00 0.  1.
          1    1    6    6  502    0 -0.41212067337E+03  0.90034124463E+03 -0.19004364189E+03  0.10082531389E+04  0.00000000000E+00 0. -1.
          1    1    5    5  503    0 -0.40601466547E+03  0.10459519531E+03  0.67304950449E+02  0.42463869326E+03  0.00000000000E+00 0. -1.
         -1    1    5    5    0  503 -0.17454631652E+03  0.51354418693E+02 -0.30525260480E+02  0.18448708479E+03  0.00000000000E+00 0.  1.
         -1    1    6    6    0  502 -0.19507168231E+03  0.51592444827E+03 -0.49282616551E+02  0.55376870068E+03  0.00000000000E+00 0.  1.
<mgrwt>
<rscale>  0 0.42218773E+04</rscale>
<asrwt>0</asrwt>
<pdfrwt beam="1">  1        2 0.43405406E+00 0.42218773E+04</pdfrwt>
<pdfrwt beam="2">  1       -2 0.24298569E+00 0.42218773E+04</pdfrwt>
<totfact> 0.12343477E-01</totfact>
</mgrwt>
</event>
<event>
12    1  0.4820219E-008  0.1826615E+04  0.7818608E-02  0.8692273E-01
          2   -1    0    0  501    0  0.00000000000E+00  0.00000000000E+00  0.13026144051E+04  0.13026144051E+04  0.00000000000E+00 0. -1.
         -2   -1    0    0    0  501 -0.00000000000E+00 -0.00000000000E+00 -0.64035082865E+03  0.64035082865E+03  0.00000000000E+00 0.  1.
         23    2    1    2    0    0  0.19143556502E+03 -0.19800394596E+03 -0.41535446957E+03  0.50725306823E+03  0.94515615936E+02 0.  0.
        254    2    1    2    0    0 -0.19143556502E+03  0.19800394596E+03  0.10776180460E+04  0.14357121655E+04  0.90783017735E+03 0.  0.
         23    2    4    4    0    0 -0.47748307759E+03  0.26578036266E+03  0.95558706842E+03  0.11044170611E+04  0.89225046486E+02 0.  0.
         23    2    4    4    0    0  0.28604751257E+03 -0.67776416692E+02  0.12203097757E+03  0.33129510440E+03  0.91913353805E+02 0.  0.
         11    1    3    3    0    0  0.51141495065E+02 -0.77464027892E+01 -0.48974823566E+02  0.71231963450E+02  0.00000000000E+00 0. -1.
        -11    1    3    3    0    0  0.14029406996E+03 -0.19025754318E+03 -0.36637964601E+03  0.43602110477E+03  0.00000000000E+00 0.  1.
          1    1    5    5  502    0 -0.14334049207E+03  0.39404248102E+02  0.29373335811E+03  0.32920886547E+03  0.00000000000E+00 0. -1.
          3    1    6    6  503    0  0.22648521917E+02  0.38678612277E+01 -0.13376784550E+02  0.26586730908E+02  0.00000000000E+00 0. -1.
         -1    1    5    5    0  502 -0.33414258552E+03  0.22637611455E+03  0.66185371031E+03  0.77520819561E+03  0.00000000000E+00 0.  1.
         -3    1    6    6    0  503  0.26339899065E+03 -0.71644277920E+02  0.13540776212E+03  0.30470837349E+03  0.00000000000E+00 0.  1.
<mgrwt>
<rscale>  0 0.18266146E+04</rscale>
<asrwt>0</asrwt>
<pdfrwt beam="1">  1        2 0.20040222E+00 0.18266146E+04</pdfrwt>
<pdfrwt beam="2">  1       -2 0.98515513E-01 0.18266146E+04</pdfrwt>
<totfact> 0.13282369E+01</totfact>
</mgrwt>
</event>
<event>
12    1  0.4820219E-008  0.2681764E+04  0.7818608E-02  0.8340946E-01
          1   -1    0    0  501    0  0.00000000000E+00  0.00000000000E+00  0.10500850196E+04  0.10500850196E+04  0.00000000000E+00 0. -1.
         -1   -1    0    0    0  501 -0.00000000000E+00 -0.00000000000E+00 -0.17122082216E+04  0.17122082216E+04  0.00000000000E+00 0.  1.
         23    2    1    2    0    0  0.19657028497E+03  0.11702330230E+04 -0.19222169151E+03  0.12055768848E+04  0.91549119809E+02 0.  0.
        254    2    1    2    0    0 -0.19657028497E+03 -0.11702330230E+04 -0.46990151055E+03  0.15567163564E+04  0.89133224983E+03 0.  0.
         23    2    4    4    0    0 -0.43268224027E+03 -0.26697306353E+03 -0.21889570963E+02  0.51721186642E+03  0.92414413094E+02 0.  0.
         23    2    4    4    0    0  0.23611195530E+03 -0.90325995949E+03 -0.44801193959E+03  0.10395044900E+04  0.90705439970E+02 0.  0.
         11    1    3    3    0    0  0.11981744065E+03  0.69819581845E+03 -0.69221281316E+02  0.71177609244E+03  0.00000000000E+00 0. -1.
        -11    1    3    3    0    0  0.76752844316E+02  0.47203720457E+03 -0.12300041019E+03  0.49380079234E+03  0.00000000000E+00 0.  1.
          1    1    6    6  502    0  0.23977983273E+03 -0.81212471271E+03 -0.40275426775E+03  0.93768433780E+03  0.00000000000E+00 0. -1.
          1    1    5    5  503    0 -0.12494642068E+03 -0.12052413073E+03 -0.30682414844E+02  0.17629261105E+03  0.00000000000E+00 0. -1.
         -1    1    5    5    0  503 -0.30773581959E+03 -0.14644893280E+03  0.87928438810E+01  0.34091925537E+03  0.00000000000E+00 0.  1.
         -1    1    6    6    0  502 -0.36678774222E+01 -0.91135246783E+02 -0.45257671841E+02  0.10182015219E+03  0.00000000000E+00 0.  1.
<mgrwt>
<rscale>  0 0.26817638E+04</rscale>
<asrwt>0</asrwt>
<pdfrwt beam="1">  1        1 0.16155154E+00 0.26817638E+04</pdfrwt>
<pdfrwt beam="2">  1       -1 0.26341665E+00 0.26817638E+04</pdfrwt>
<totfact> 0.68985059E-01</totfact>
</mgrwt>
</event>
<event>
12    1  0.4820219E-008  0.1520844E+04  0.7818608E-02  0.8870709E-01
          2   -1    0    0  501    0  0.00000000000E+00  0.00000000000E+00  0.46116700775E+03  0.46116700775E+03  0.00000000000E+00 0. -1.
         -2   -1    0    0    0  501 -0.00000000000E+00 -0.00000000000E+00 -0.12538660566E+04  0.12538660566E+04  0.00000000000E+00 0.  1.
         23    2    1    2    0    0 -0.13997812168E+03 -0.31378786180E+03  0.13063260660E+03  0.37945337889E+03  0.94145058704E+02 0.  0.
        254    2    1    2    0    0  0.13997812168E+03  0.31378786180E+03 -0.92333165542E+03  0.13355796854E+04  0.90176219343E+03 0.  0.
         23    2    4    4    0    0 -0.33246688747E+03 -0.66895471963E+02 -0.30752134897E+03  0.46654763844E+03  0.89933772446E+02 0.  0.
         23    2    4    4    0    0  0.47244500915E+03  0.38068333376E+03 -0.61581030644E+03  0.86903204700E+03  0.88714586837E+02 0.  0.
         13    1    3    3    0    0 -0.60768223581E+02 -0.19887661540E+03  0.11853340185E+03  0.23936343185E+03  0.00000000000E+00 0.  1.
        -13    1    3    3    0    0 -0.79209898099E+02 -0.11491124640E+03  0.12099204748E+02  0.14008994704E+03  0.00000000000E+00 0. -1.
          4    1    5    5  502    0 -0.29774077494E+03 -0.58759308351E+02 -0.30581211220E+03  0.43084019468E+03  0.00000000000E+00 0. -1.
          1    1    6    6  503    0  0.33767512637E+03  0.31653370820E+03 -0.48732365428E+03  0.67208810688E+03  0.00000000000E+00 0. -1.
         -4    1    5    5    0  502 -0.34726112526E+02 -0.81361636124E+01 -0.17092367702E+01  0.35707443759E+02  0.00000000000E+00 0.  1.
         -1    1    6    6    0  503  0.13476988278E+03  0.64149625564E+02 -0.12848665216E+03  0.19694394012E+03  0.00000000000E+00 0.  1.
<mgrwt>
<rscale>  0 0.15208441E+04</rscale>
<asrwt>0</asrwt>
<pdfrwt beam="1">  1        2 0.70948771E-01 0.15208441E+04</pdfrwt>
<pdfrwt beam="2">  1       -2 0.19290247E+00 0.15208441E+04</pdfrwt>
<totfact> 0.96577773E+00</totfact>
</mgrwt>
</event>
<event>
12    1  0.4820219E-008  0.3448342E+04  0.7818608E-02  0.8126143E-01
         -1   -1    0    0    0  501 -0.00000000000E+00  0.00000000000E+00  0.96529634484E+03  0.96529634484E+03  0.00000000000E+00 0.  1.
          1   -1    0    0  501    0  0.00000000000E+00 -0.00000000000E+00 -0.30796397258E+04  0.30796397258E+04  0.00000000000E+00 0. -1.
         23    2    1    2    0    0  0.59240366725E+03 -0.62972728062E+03 -0.25703160890E+04  0.27133455821E+04  0.90669165793E+02 0.  0.
        254    2    1    2    0    0 -0.59240366725E+03  0.62972728062E+03  0.45597270807E+03  0.13315904885E+04  0.90428068964E+03 0.  0.
         23    2    4    4    0    0 -0.11345400387E+03  0.50480301717E+03 -0.14802100793E+03  0.54540447209E+03  0.88644922289E+02 0.  0.
         23    2    4    4    0    0 -0.47894966338E+03  0.12492426345E+03  0.60399371601E+03  0.78618601642E+03  0.91001053775E+02 0.  0.
         11    1    3    3    0    0  0.60624830419E+02 -0.98832510671E+02 -0.40981831137E+03  0.42590407789E+03  0.00000000000E+00 0.  1.
        -11    1    3    3    0    0  0.53177883683E+03 -0.53089476994E+03 -0.21604977776E+04  0.22874415042E+04  0.00000000000E+00 0. -1.
          1    1    5    5  502    0 -0.10225962434E+03  0.48131201364E+03 -0.11863826391E+03  0.50615543355E+03  0.00000000000E+00 0. -1.
          3    1    6    6  503    0 -0.34460034377E+03  0.13031910111E+03  0.45602992582E+03  0.58625571066E+03  0.00000000000E+00 0. -1.
         -1    1    5    5    0  502 -0.11194379524E+02  0.23491003525E+02 -0.29382744030E+02  0.39249038539E+02  0.00000000000E+00 0.  1.
         -3    1    6    6    0  503 -0.13434931962E+03 -0.53948376680E+01  0.14796379019E+03  0.19993030576E+03  0.00000000000E+00 0.  1.
<mgrwt>
<rscale>  0 0.34483416E+04</rscale>
<asrwt>0</asrwt>
<pdfrwt beam="1">  1        1 0.47379073E+00 0.34483416E+04</pdfrwt>
<pdfrwt beam="2">  1       -1 0.14850713E+00 0.34483416E+04</pdfrwt>
<totfact> 0.15330130E-01</totfact>
</mgrwt>
</event>
<event>
12    1  0.4820219E-008  0.2018114E+04  0.7818608E-02  0.8598198E-01
         -2   -1    0    0    0  501 -0.00000000000E+00  0.00000000000E+00  0.49531658427E+03  0.49531658427E+03  0.00000000000E+00 0.  1.
          2   -1    0    0  501    0  0.00000000000E+00 -0.00000000000E+00 -0.20556473994E+04  0.20556473994E+04  0.00000000000E+00 0. -1.
         23    2    1    2    0    0 -0.57542555809E+02 -0.29994632087E+02 -0.16661334327E+04  0.16699029592E+04  0.91457387958E+02 0.  0.
        254    2    1    2    0    0  0.57542555809E+02  0.29994632087E+02  0.10580261763E+03  0.88106102445E+03  0.87227490576E+03 0.  0.
         23    2    4    4    0    0 -0.37018272787E+03 -0.13434079955E+03  0.93011046228E+02  0.41442458418E+03  0.89520828927E+02 0.  0.
         23    2    4    4    0    0  0.42772528368E+03  0.16433543163E+03  0.12791571397E+02  0.46663644027E+03  0.87354969522E+02 0.  0.
         13    1    3    3    0    0 -0.20170543939E+02 -0.55125858955E+02 -0.12417300884E+04  0.12431167780E+04  0.00000000000E+00 0. -1.
        -13    1    3    3    0    0 -0.37372011870E+02  0.25131226869E+02 -0.42440334430E+03  0.42678618123E+03  0.00000000000E+00 0.  1.
          1    1    5    5  502    0 -0.27381385531E+03 -0.67942054732E+02  0.36508795355E+02  0.28446975639E+03  0.00000000000E+00 0. -1.
          1    1    6    6  503    0  0.26003883177E+03  0.62886164204E+02  0.33214681969E+02  0.26958872153E+03  0.00000000000E+00 0. -1.
         -1    1    5    5    0  502 -0.96368872562E+02 -0.66398744816E+02  0.56502250873E+02  0.12995482779E+03  0.00000000000E+00 0.  1.
         -1    1    6    6    0  503  0.16768645191E+03  0.10144926743E+03 -0.20423110572E+02  0.19704771874E+03  0.00000000000E+00 0.  1.
<mgrwt>
<rscale>  0 0.20181142E+04</rscale>
<asrwt>0</asrwt>
<pdfrwt beam="1">  1        2 0.31625345E+00 0.20181142E+04</pdfrwt>
<pdfrwt beam="2">  1       -2 0.76202551E-01 0.20181142E+04</pdfrwt>
<totfact> 0.88943542E+00</totfact>
</mgrwt>
</event>
<event>
12    1  0.4820219E-008  0.1827683E+04  0.7818608E-02  0.8691715E-01
          1   -1    0    0  501    0  0.00000000000E+00  0.00000000000E+00  0.21691040374E+04  0.21691040374E+04  0.00000000000E+00 0. -1.
         -1   -1    0    0    0  501 -0.00000000000E+00 -0.00000000000E+00 -0.38500048708E+03  0.38500048708E+03  0.00000000000E+00 0.  1.
         23    2    1    2    0    0 -0.38639556950E+03  0.15670984340E+03  0.14616938896E+04  0.15227206855E+04  0.90938155355E+02 0.  0.
        254    2    1    2    0    0  0.38639556950E+03 -0.15670984340E+03  0.32240966076E+03  0.10313838390E+04  0.88653546055E+03 0.  0.
         23    2    4    4    0    0  0.32459683036E+03 -0.27655541257E+03  0.58061660982E+03  0.72598200619E+03  0.89934571877E+02 0.  0.
         23    2    4    4    0    0  0.61798739141E+02  0.11984556917E+03 -0.25820694905E+03  0.30540183279E+03  0.91746424029E+02 0.  0.
         13    1    3    3    0    0 -0.28544078774E+03  0.13325061857E+03  0.95760618892E+03  0.10080881825E+04  0.00000000000E+00 0. -1.
        -13    1    3    3    0    0 -0.10095478175E+03  0.23459224835E+02  0.50408770066E+03  0.51463250300E+03  0.00000000000E+00 0.  1.
          1    1    5    5  502    0  0.28720987050E+03 -0.22368890271E+03  0.53363764304E+03  0.64598403152E+03  0.00000000000E+00 0. -1.
          3    1    6    6  503    0  0.78349986014E+02  0.91677949225E+02 -0.23847820949E+03  0.26723664248E+03  0.00000000000E+00 0. -1.
         -1    1    5    5    0  502  0.37386959860E+02 -0.52866509863E+02  0.46978966777E+02  0.79997974675E+02  0.00000000000E+00 0.  1.
         -3    1    6    6    0  503 -0.16551246873E+02  0.28167619946E+02 -0.19728739560E+02  0.38165190306E+02  0.00000000000E+00 0.  1.
<mgrwt>
<rscale>  0 0.18276828E+04</rscale>
<asrwt>0</asrwt>
<pdfrwt beam="1">  1        1 0.33370831E+00 0.18276828E+04</pdfrwt>
<pdfrwt beam="2">  1       -1 0.59230846E-01 0.18276828E+04</pdfrwt>
<totfact> 0.62219951E+00</totfact>
</mgrwt>
</event>
<event>
12    1  0.4820219E-008  0.1371246E+04  0.7818608E-02  0.8974899E-01
          2   -1    0    0  501    0  0.00000000000E+00  0.00000000000E+00  0.24646650901E+03  0.24646650901E+03  0.00000000000E+00 0. -1.
         -2   -1    0    0    0  501 -0.00000000000E+00 -0.00000000000E+00 -0.19072722944E+04  0.19072722944E+04  0.00000000000E+00 0.  1.
         23    2    1    2    0    0 -0.15053420836E+02 -0.38217032818E+03 -0.47486485615E+03  0.61666514814E+03  0.92187353251E+02 0.  0.
        254    2    1    2    0    0  0.15053420836E+02  0.38217032818E+03 -0.11859409292E+04  0.15370736552E+04  0.89992153482E+03 0.  0.
         23    2    4    4    0    0  0.41755817502E+03  0.22272099000E+03 -0.86532061858E+03  0.99076214982E+03  0.94182777885E+02 0.  0.
         23    2    4    4    0    0 -0.40250475419E+03  0.15944933818E+03 -0.32062031061E+03  0.54631150541E+03  0.90690180167E+02 0.  0.
         11    1    3    3    0    0  0.11565813212E+02 -0.34278716112E+03 -0.38973636711E+03  0.51916398345E+03  0.00000000000E+00 0.  1.
        -11    1    3    3    0    0 -0.26619234048E+02 -0.39383167062E+02 -0.85128489038E+02  0.97501164686E+02  0.00000000000E+00 0. -1.
          4    1    5    5  502    0  0.38000953815E+03  0.22471164665E+03 -0.82454951773E+03  0.93529913953E+03  0.00000000000E+00 0. -1.
          3    1    6    6  503    0 -0.38346990714E+03  0.16988890168E+03 -0.31287679414E+03  0.52326216843E+03  0.00000000000E+00 0. -1.
         -4    1    5    5    0  502  0.37548636872E+02 -0.19906566490E+01 -0.40771100855E+02  0.55463010284E+02  0.00000000000E+00 0.  1.
         -3    1    6    6    0  503 -0.19034847043E+02 -0.10439563497E+02 -0.77435164711E+01  0.23049336982E+02  0.00000000000E+00 0.  1.
<mgrwt>
<rscale>  0 0.13712458E+04</rscale>
<asrwt>0</asrwt>
<pdfrwt beam="1">  1        2 0.37917924E-01 0.13712458E+04</pdfrwt>
<pdfrwt beam="2">  1       -2 0.29342651E+00 0.13712458E+04</pdfrwt>
<totfact> 0.46723496E+00</totfact>
</mgrwt>
</event>
<event>
12    1  0.4820219E-008  0.2230880E+04  0.7818608E-02  0.8505684E-01
         -2   -1    0    0    0  501 -0.00000000000E+00  0.00000000000E+00  0.72493059714E+03  0.72493059714E+03  0.00000000000E+00 0.  1.
          2   -1    0    0  501    0  0.00000000000E+00 -0.00000000000E+00 -0.17163114385E+04  0.17163114385E+04  0.00000000000E+00 0. -1.
         23    2    1    2    0    0  0.25628992432E+03  0.17972610133E+03 -0.13724918687E+04  0.14107054383E+04  0.91487197351E+02 0.  0.
        254    2    1    2    0    0 -0.25628992432E+03 -0.17972610133E+03  0.38111102733E+03  0.10305365973E+04  0.90486135207E+03 0.  0.
         23    2    4    4    0    0 -0.30555327483E+03  0.27192065708E+02 -0.21905791935E+03  0.38727820741E+03  0.88858458858E+02 0.  0.
         23    2    4    4    0    0  0.49263350511E+02 -0.20691816704E+03  0.60016894668E+03  0.64325838991E+03  0.91304907195E+02 0.  0.
         13    1    3    3    0    0  0.11379878775E+03  0.68730729218E+02 -0.78155716537E+03  0.79278350132E+03  0.00000000000E+00 0. -1.
        -13    1    3    3    0    0  0.14249113657E+03  0.11099537212E+03 -0.59093470328E+03  0.61792193696E+03  0.00000000000E+00 0.  1.
          2    1    5    5  502    0 -0.31115099832E+03  0.22320553430E+02 -0.21392137166E+03  0.37825322750E+03  0.00000000000E+00 0. -1.
          3    1    6    6  503    0  0.72244709209E+02 -0.15517439316E+03  0.39655384631E+03  0.43191821370E+03  0.00000000000E+00 0. -1.
         -2    1    5    5    0  502  0.55977234952E+01  0.48715122775E+01 -0.51365476883E+01  0.90249799088E+01  0.00000000000E+00 0.  1.
         -3    1    6    6    0  503 -0.22981358698E+02 -0.51743773879E+02  0.20361510037E+03  0.21134017622E+03  0.00000000000E+00 0.  1.
<mgrwt>
<rscale>  0 0.22308803E+04</rscale>
<asrwt>0</asrwt>
<pdfrwt beam="1">  1        2 0.26404791E+00 0.22308803E+04</pdfrwt>
<pdfrwt beam="2">  1       -2 0.11152779E+00 0.22308803E+04</pdfrwt>
<totfact> 0.55640988E+00</totfact>
</mgrwt>
</event>
<event>
12    1  0.4820219E-008  0.1393075E+04  0.7818608E-02  0.8958846E-01
         -1   -1    0    0    0  501 -0.00000000000E+00  0.00000000000E+00  0.10204081123E+04  0.10204081123E+04  0.00000000000E+00 0.  1.
          1   -1    0    0  501    0  0.00000000000E+00 -0.00000000000E+00 -0.47546138782E+03  0.47546138782E+03  0.00000000000E+00 0. -1.
         23    2    1    2    0    0  0.17596644383E+02  0.20925464348E+03 -0.20617018543E+03  0.30765222827E+03  0.89702845492E+02 0.  0.
        254    2    1    2    0    0 -0.17596644383E+02 -0.20925464348E+03  0.75111690988E+03  0.11882172718E+04  0.89642987737E+03 0.  0.
         23    2    4    4    0    0 -0.30771560016E+03 -0.38902267697E+03  0.22074671574E+03  0.55081530250E+03  0.92956178794E+02 0.  0.
         23    2    4    4    0    0  0.29011895577E+03  0.17976803349E+03  0.53037019414E+03  0.63740196933E+03  0.92212652622E+02 0.  0.
         11    1    3    3    0    0 -0.29032696852E+02  0.99071964894E+02 -0.62480490447E+02  0.12067296052E+03  0.00000000000E+00 0.  1.
        -11    1    3    3    0    0  0.46629341235E+02  0.11018267859E+03 -0.14368969498E+03  0.18697926775E+03  0.00000000000E+00 0. -1.
          1    1    6    6  502    0  0.20165448792E+03  0.74084004050E+02  0.30084256852E+03  0.36967448274E+03  0.00000000000E+00 0. -1.
          1    1    5    5  503    0 -0.26760198938E+02 -0.17148038363E+02 -0.62634172235E+01  0.32394349233E+02  0.00000000000E+00 0. -1.
         -1    1    5    5    0  503 -0.28095540122E+03 -0.37187463861E+03  0.22701013296E+03  0.51842095327E+03  0.00000000000E+00 0.  1.
         -1    1    6    6    0  502  0.88464467856E+02  0.10568402944E+03  0.22952762562E+03  0.26772748659E+03  0.00000000000E+00 0.  1.
<mgrwt>
<rscale>  0 0.13930752E+04</rscale>
<asrwt>0</asrwt>
<pdfrwt beam="1">  1        1 0.73147906E-01 0.13930752E+04</pdfrwt>
<pdfrwt beam="2">  1       -1 0.15698586E+00 0.13930752E+04</pdfrwt>
<totfact> 0.14278739E+01</totfact>
</mgrwt>
</event>
<event>
12    1  0.4820219E-008  0.1432236E+04  0.7818608E-02  0.8930810E-01
         -1   -1    0    0    0  501 -0.00000000000E+00  0.00000000000E+00  0.29881967513E+03  0.29881967513E+03  0.00000000000E+00 0.  1.
          1   -1    0    0  501    0  0.00000000000E+00 -0.00000000000E+00 -0.17161682900E+04  0.17161682900E+04  0.00000000000E+00 0. -1.
         23    2    1    2    0    0  0.87936498632E+02 -0.76910950525E+02 -0.99968942940E+03  0.10107680100E+04  0.92870300040E+02 0.  0.
        254    2    1    2    0    0 -0.87936498632E+02  0.76910950525E+02 -0.41765918551E+03  0.10042199552E+04  0.90574301051E+03 0.  0.
         23    2    4    4    0    0 -0.45819705426E+03  0.14493215977E+03 -0.37098767409E+03  0.61402765099E+03  0.91914255611E+02 0.  0.
         23    2    4    4    0    0  0.37026055562E+03 -0.68021209247E+02 -0.46671511425E+02  0.39019230422E+03  0.91389497949E+02 0.  0.
         13    1    3    3    0    0  0.91901095545E+02 -0.67604165228E+02 -0.99066166320E+03  0.99720943911E+03  0.00000000000E+00 0. -1.
        -13    1    3    3    0    0 -0.39645969131E+01 -0.93067852976E+01 -0.90277661991E+01  0.13558570861E+02  0.00000000000E+00 0.  1.
          4    1    6    6  502    0  0.14947545303E+03 -0.61568207086E+02 -0.50235205405E+02  0.16928417246E+03  0.00000000000E+00 0.  1.
          4    1    5    5  503    0 -0.32881796500E+03  0.14081376719E+03 -0.24629217924E+03  0.43429207763E+03  0.00000000000E+00 0. -1.
         -4    1    5    5    0  503 -0.12937908926E+03  0.41183925800E+01 -0.12469549484E+03  0.17973557335E+03  0.00000000000E+00 0.  1.
         -4    1    6    6    0  502  0.22078510260E+03 -0.64530021614E+01  0.35636939799E+01  0.22090813176E+03  0.00000000000E+00 0. -1.
<mgrwt>
<rscale>  0 0.14322358E+04</rscale>
<asrwt>0</asrwt>
<pdfrwt beam="1">  1        1 0.26402589E+00 0.14322358E+04</pdfrwt>
<pdfrwt beam="2">  1       -1 0.45972257E-01 0.14322358E+04</pdfrwt>
<totfact> 0.21265935E+01</totfact>
</mgrwt>
</event>
<event>
12    1  0.4820219E-008  0.1295193E+04  0.7818608E-02  0.9033386E-01
         -1   -1    0    0    0  501 -0.00000000000E+00  0.00000000000E+00  0.41530177347E+03  0.41530177347E+03  0.00000000000E+00 0.  1.
          1   -1    0    0  501    0  0.00000000000E+00 -0.00000000000E+00 -0.10098228881E+04  0.10098228881E+04  0.00000000000E+00 0. -1.
         23    2    1    2    0    0 -0.14578144611E+03  0.21589576082E+03  0.55321465038E+02  0.28240831906E+03  0.93972254458E+02 0.  0.
        254    2    1    2    0    0  0.14578144611E+03 -0.21589576082E+03 -0.64984257965E+03  0.11427163425E+04  0.90312903370E+03 0.  0.
         23    2    4    4    0    0  0.44438880223E+03 -0.23730359879E+03 -0.65320347417E+03  0.82994217337E+03  0.91295273255E+02 0.  0.
         23    2    4    4    0    0 -0.29860735612E+03  0.21407837968E+02  0.33608945195E+01  0.31277416913E+03  0.90508212917E+02 0.  0.
         11    1    3    3    0    0 -0.33669868658E+02  0.98855671257E+02  0.59671126739E+02  0.12027779164E+03  0.00000000000E+00 0.  1.
        -11    1    3    3    0    0 -0.11211157745E+03  0.11704008956E+03 -0.43496617016E+01  0.16213052742E+03  0.00000000000E+00 0. -1.
          2    1    5    5  502    0  0.52516571232E+02 -0.45478675350E+02 -0.50481221667E+02  0.85875805129E+02  0.00000000000E+00 0. -1.
          2    1    6    6  503    0 -0.38556441223E+02  0.28589749364E+02 -0.19091263990E+02  0.51657035234E+02  0.00000000000E+00 0. -1.
         -2    1    5    5    0  502  0.39187223100E+03 -0.19182492344E+03 -0.60272225250E+03  0.74406636824E+03  0.00000000000E+00 0.  1.
         -2    1    6    6    0  503 -0.26005091490E+03 -0.71819113965E+01  0.22452158510E+02  0.26111713389E+03  0.00000000000E+00 0.  1.
<mgrwt>
<rscale>  0 0.12951930E+04</rscale>
<asrwt>0</asrwt>
<pdfrwt beam="1">  1        1 0.15535737E+00 0.12951930E+04</pdfrwt>
<pdfrwt beam="2">  1       -1 0.63892581E-01 0.12951930E+04</pdfrwt>
<totfact> 0.36301593E+01</totfact>
</mgrwt>
</event>
<event>
12    1  0.4820219E-008  0.2051822E+04  0.7818608E-02  0.8582768E-01
          2   -1    0    0  501    0  0.00000000000E+00  0.00000000000E+00  0.20450221675E+04  0.20450221675E+04  0.00000000000E+00 0. -1.
         -2   -1    0    0    0  501 -0.00000000000E+00 -0.00000000000E+00 -0.51466104493E+03  0.51466104493E+03  0.00000000000E+00 0.  1.
         23    2    1    2    0    0 -0.73040050643E+03 -0.78248556070E+02  0.10920765233E+04  0.13193976999E+04  0.92581971094E+02 0.  0.
        254    2    1    2    0    0  0.73040050643E+03  0.78248556070E+02  0.43828459923E+03  0.12402855125E+04  0.89811303650E+03 0.  0.
         23    2    4    4    0    0  0.76666837808E+03  0.11104268975E+03  0.64232012015E+03  0.10109467864E+04  0.96578399392E+02 0.  0.
         23    2    4    4    0    0 -0.36267871655E+02 -0.32794133676E+02 -0.20403552093E+03  0.22933872614E+03  0.92600992391E+02 0.  0.
         11    1    3    3    0    0 -0.56816588156E+03 -0.44211406848E+02  0.90462082084E+03  0.10691613288E+04  0.00000000000E+00 0. -1.
        -11    1    3    3    0    0 -0.16223462487E+03 -0.34037149222E+02  0.18745570247E+03  0.25023637110E+03  0.00000000000E+00 0.  1.
          4    1    5    5  502    0  0.18624397239E+02  0.64901303909E+01  0.41011337362E+02  0.45507359375E+02  0.00000000000E+00 0. -1.
          1    1    6    6  503    0  0.29103441771E+02  0.37247536031E+01 -0.47819270677E+02  0.56103179592E+02  0.00000000000E+00 0. -1.
         -4    1    5    5    0  502  0.74804398084E+03  0.10455255936E+03  0.60130878279E+03  0.96543942700E+03  0.00000000000E+00 0.  1.
         -1    1    6    6    0  503 -0.65371313425E+02 -0.36518887279E+02 -0.15621625025E+03  0.17323554655E+03  0.00000000000E+00 0.  1.
<mgrwt>
<rscale>  0 0.20518219E+04</rscale>
<asrwt>0</asrwt>
<pdfrwt beam="1">  1        2 0.31461879E+00 0.20518219E+04</pdfrwt>
<pdfrwt beam="2">  1       -2 0.79178624E-01 0.20518219E+04</pdfrwt>
<totfact> 0.82534594E+00</totfact>
</mgrwt>
</event>
<event>
12    1  0.4820219E-008  0.1730300E+04  0.7818608E-02  0.8744269E-01
         -1   -1    0    0    0  501 -0.00000000000E+00  0.00000000000E+00  0.72352299898E+03  0.72352299898E+03  0.00000000000E+00 0.  1.
          1   -1    0    0  501    0  0.00000000000E+00 -0.00000000000E+00 -0.10345001124E+04  0.10345001124E+04  0.00000000000E+00 0. -1.
         23    2    1    2    0    0  0.19882712749E+03  0.21412622897E+03  0.44843056845E+03  0.54295561084E+03  0.91260901096E+02 0.  0.
        254    2    1    2    0    0 -0.19882712749E+03 -0.21412622897E+03 -0.75940768189E+03  0.12150675006E+04  0.90238945863E+03 0.  0.
         23    2    4    4    0    0  0.26945058693E+03 -0.32737688669E+03 -0.22052710458E+03  0.48636928540E+03  0.90242081005E+02 0.  0.
         23    2    4    4    0    0 -0.46827771442E+03  0.11325065773E+03 -0.53888057731E+03  0.72869821516E+03  0.92190470626E+02 0.  0.
         11    1    3    3    0    0  0.10907193489E+03  0.55674383812E+02  0.15393861545E+03  0.19670643436E+03  0.00000000000E+00 0.  1.
        -11    1    3    3    0    0  0.89755192603E+02  0.15845184516E+03  0.29449195300E+03  0.34624917648E+03  0.00000000000E+00 0. -1.
          4    1    5    5  502    0  0.25193281638E+03 -0.30165759606E+03 -0.17266218977E+03  0.42927809286E+03  0.00000000000E+00 0.  1.
          4    1    6    6  503    0 -0.22522682257E+03  0.40456906155E+02 -0.32131973929E+03  0.39447466042E+03  0.00000000000E+00 0. -1.
         -4    1    5    5    0  502  0.17517770554E+02 -0.25719290632E+02 -0.47864914815E+02  0.57091192543E+02  0.00000000000E+00 0. -1.
         -4    1    6    6    0  503 -0.24305089186E+03  0.72793751570E+02 -0.21756083802E+03  0.33422355474E+03  0.00000000000E+00 0.  1.
<mgrwt>
<rscale>  0 0.17303001E+04</rscale>
<asrwt>0</asrwt>
<pdfrwt beam="1">  1        1 0.15915386E+00 0.17303001E+04</pdfrwt>
<pdfrwt beam="2">  1       -1 0.11131123E+00 0.17303001E+04</pdfrwt>
<totfact> 0.10020713E+01</totfact>
</mgrwt>
</event>
<event>
12    1  0.4820219E-008  0.1628212E+04  0.7818608E-02  0.8803401E-01
         -2   -1    0    0    0  501 -0.00000000000E+00  0.00000000000E+00  0.28612174753E+03  0.28612174753E+03  0.00000000000E+00 0.  1.
          2   -1    0    0  501    0  0.00000000000E+00 -0.00000000000E+00 -0.23163866345E+04  0.23163866345E+04  0.00000000000E+00 0. -1.
         23    2    1    2    0    0  0.48945351895E+03  0.27196630679E+02 -0.26880544101E+03  0.56654005373E+03  0.91688949377E+02 0.  0.
        254    2    1    2    0    0 -0.48945351895E+03 -0.27196630679E+02 -0.17614594460E+04  0.20359683283E+04  0.89561333740E+03 0.  0.
         23    2    4    4    0    0  0.18424761938E+03  0.91576630549E+02 -0.92478511116E+03  0.95136977021E+03  0.86853171175E+02 0.  0.
         23    2    4    4    0    0 -0.67370113833E+03 -0.11877326123E+03 -0.83667433484E+03  0.10845985581E+04  0.91377121401E+02 0.  0.
         13    1    3    3    0    0  0.18573138437E+03  0.23977215480E+02 -0.15170663954E+03  0.24101028709E+03  0.00000000000E+00 0. -1.
        -13    1    3    3    0    0  0.30372213458E+03  0.32194151992E+01 -0.11709880147E+03  0.32552976664E+03  0.00000000000E+00 0.  1.
          1    1    5    5  502    0  0.64851503334E+01  0.16722451505E+02 -0.21807557073E+03  0.21881191034E+03  0.00000000000E+00 0. -1.
          3    1    6    6  503    0 -0.22236335116E+03 -0.42604263805E+02 -0.21191530966E+03  0.31011075715E+03  0.00000000000E+00 0. -1.
         -1    1    5    5    0  502  0.17776246905E+03  0.74854179044E+02 -0.70670954043E+03  0.73255785987E+03  0.00000000000E+00 0.  1.
         -3    1    6    6    0  503 -0.45133778717E+03 -0.76168997423E+02 -0.62475902519E+03  0.77448780097E+03  0.00000000000E+00 0.  1.
<mgrwt>
<rscale>  0 0.16282120E+04</rscale>
<asrwt>0</asrwt>
<pdfrwt beam="1">  1        2 0.35636718E+00 0.16282120E+04</pdfrwt>
<pdfrwt beam="2">  1       -2 0.44018730E-01 0.16282120E+04</pdfrwt>
<totfact> 0.20804113E+01</totfact>
</mgrwt>
</event>
<event>
12    1  0.4820219E-008  0.1517520E+04  0.7818608E-02  0.8872885E-01
          2   -1    0    0  501    0  0.00000000000E+00  0.00000000000E+00  0.17937458849E+04  0.17937458849E+04  0.00000000000E+00 0.  1.
         -2   -1    0    0    0  501 -0.00000000000E+00 -0.00000000000E+00 -0.32095795603E+03  0.32095795603E+03  0.00000000000E+00 0. -1.
         23    2    1    2    0    0 -0.15092805193E+03 -0.18844225328E+03 -0.10340884270E+03  0.27776301661E+03  0.90383322407E+02 0.  0.
        254    2    1    2    0    0  0.15092805193E+03  0.18844225328E+03  0.15761967716E+04  0.18369408244E+04  0.91195699992E+03 0.  0.
         23    2    4    4    0    0 -0.35744908185E+03  0.56856171164E+02  0.90749325118E+03  0.98184567535E+03  0.97336832487E+02 0.  0.
         23    2    4    4    0    0  0.50837713377E+03  0.13158608212E+03  0.66870352044E+03  0.85509514902E+03  0.90890640219E+02 0.  0.
         13    1    3    3    0    0 -0.12825002994E+03 -0.92403311689E+02 -0.51411014216E+02  0.16622134211E+03  0.00000000000E+00 0. -1.
        -13    1    3    3    0    0 -0.22678021986E+02 -0.96038941593E+02 -0.51997828482E+02  0.11154167450E+03  0.00000000000E+00 0.  1.
          2    1    5    5  502    0 -0.14200803831E+02  0.90232062753E+01  0.12386238055E+03  0.12499988159E+03  0.00000000000E+00 0. -1.
          4    1    6    6  503    0  0.13213132099E+03 -0.61483739706E+01  0.16607804399E+03  0.21231675672E+03  0.00000000000E+00 0. -1.
         -2    1    5    5    0  502 -0.34324827801E+03  0.47832964889E+02  0.78363087062E+03  0.85684579376E+03  0.00000000000E+00 0.  1.
         -4    1    6    6    0  503  0.37624581279E+03  0.13773445609E+03  0.50262547645E+03  0.64277839230E+03  0.00000000000E+00 0.  1.
<mgrwt>
<rscale>  0 0.15175204E+04</rscale>
<asrwt>0</asrwt>
<pdfrwt beam="1">  1        2 0.27596090E+00 0.15175204E+04</pdfrwt>
<pdfrwt beam="2">  1       -2 0.49378148E-01 0.15175204E+04</pdfrwt>
<totfact> 0.32581311E+01</totfact>
</mgrwt>
</event>
<event>
12    1  0.4820219E-008  0.1816228E+04  0.7818608E-02  0.8697717E-01
         -1   -1    0    0    0  501 -0.00000000000E+00  0.00000000000E+00  0.70865053864E+03  0.70865053864E+03  0.00000000000E+00 0.  1.
          1   -1    0    0  501    0  0.00000000000E+00 -0.00000000000E+00 -0.11637206493E+04  0.11637206493E+04  0.00000000000E+00 0. -1.
         23    2    1    2    0    0  0.42498756553E+03 -0.34461563018E+03  0.26335970309E+03  0.61390464852E+03  0.90256417161E+02 0.  0.
        254    2    1    2    0    0 -0.42498756553E+03  0.34461563018E+03 -0.71842981374E+03  0.12584665394E+04  0.87648289781E+03 0.  0.
         23    2    4    4    0    0 -0.62903612545E+02 -0.27149790281E+03 -0.32468138350E+03  0.43725928093E+03  0.90053885340E+02 0.  0.
         23    2    4    4    0    0 -0.36208395298E+03  0.61611353299E+03 -0.39374843024E+03  0.82120725849E+03  0.92966986264E+02 0.  0.
         11    1    3    3    0    0  0.60302826703E+02 -0.60554723092E+02  0.78530813160E+02  0.11606202657E+03  0.00000000000E+00 0. -1.
        -11    1    3    3    0    0  0.36468473882E+03 -0.28406090709E+03  0.18482888993E+03  0.49784262194E+03  0.00000000000E+00 0.  1.
          2    1    5    5  502    0 -0.18463559466E+02 -0.15256359635E+03 -0.11425510008E+03  0.19149616668E+03  0.00000000000E+00 0.  1.
          1    1    6    6  503    0 -0.25954219298E+03  0.41956836514E+03 -0.31788700362E+03  0.58690025560E+03  0.00000000000E+00 0.  1.
         -2    1    5    5    0  502 -0.44440053079E+02 -0.11893430646E+03 -0.21042628342E+03  0.24576311424E+03  0.00000000000E+00 0. -1.
         -1    1    6    6    0  503 -0.10254176000E+03  0.19654516786E+03 -0.75861426629E+02  0.23430700289E+03  0.00000000000E+00 0. -1.
<mgrwt>
<rscale>  0 0.18162283E+04</rscale>
<asrwt>0</asrwt>
<pdfrwt beam="1">  1        1 0.17903395E+00 0.18162283E+04</pdfrwt>
<pdfrwt beam="2">  1       -1 0.10902316E+00 0.18162283E+04</pdfrwt>
<totfact> 0.83470193E+00</totfact>
</mgrwt>
</event>
<event>
12    1  0.4820219E-008  0.2621601E+04  0.7818608E-02  0.8360901E-01
         -1   -1    0    0    0  501 -0.00000000000E+00  0.00000000000E+00  0.87167391865E+03  0.87167391865E+03  0.00000000000E+00 0.  1.
          1   -1    0    0  501    0  0.00000000000E+00 -0.00000000000E+00 -0.19711478264E+04  0.19711478264E+04  0.00000000000E+00 0. -1.
         23    2    1    2    0    0  0.12232254078E+03 -0.21473698867E+03  0.73547173667E+03  0.78186756918E+03  0.96557972296E+02 0.  0.
        254    2    1    2    0    0 -0.12232254078E+03  0.21473698867E+03 -0.18349456444E+04  0.20609541759E+04  0.90522473386E+03 0.  0.
         23    2    4    4    0    0  0.96975396184E+02  0.33380915987E+03 -0.21447546429E+03  0.41886827969E+03  0.92833874557E+02 0.  0.
         23    2    4    4    0    0 -0.21929793697E+03 -0.11907217120E+03 -0.16204701801E+04  0.16420858962E+04  0.90844475077E+02 0.  0.
         13    1    3    3    0    0 -0.12249307830E+02 -0.29960842443E+02  0.52690530070E+02  0.61838415093E+02  0.00000000000E+00 0. -1.
        -13    1    3    3    0    0  0.13457184861E+03 -0.18477614623E+03  0.68278120660E+03  0.72002915409E+03  0.00000000000E+00 0.  1.
          2    1    5    5  502    0  0.90520033064E+02  0.15755527363E+03 -0.88406966196E+02  0.20207259168E+03  0.00000000000E+00 0. -1.
          3    1    6    6  503    0 -0.13675252405E+03 -0.31738370513E+02 -0.10289153757E+04  0.10384485675E+04  0.00000000000E+00 0. -1.
         -2    1    5    5    0  502  0.64553631208E+01  0.17625388624E+03 -0.12606849809E+03  0.21679568801E+03  0.00000000000E+00 0.  1.
         -3    1    6    6    0  503 -0.82545412922E+02 -0.87333800687E+02 -0.59155480442E+03  0.60363732868E+03  0.00000000000E+00 0.  1.
<mgrwt>
<rscale>  0 0.26216012E+04</rscale>
<asrwt>0</asrwt>
<pdfrwt beam="1">  1        1 0.30325351E+00 0.26216012E+04</pdfrwt>
<pdfrwt beam="2">  1       -1 0.13410368E+00 0.26216012E+04</pdfrwt>
<totfact> 0.12839796E+00</totfact>
</mgrwt>
</event>
<event>
12    1  0.4820219E-008  0.1936252E+04  0.7818608E-02  0.8637019E-01
          1   -1    0    0  501    0  0.00000000000E+00  0.00000000000E+00  0.10676594263E+04  0.10676594263E+04  0.00000000000E+00 0. -1.
         -1   -1    0    0    0  501 -0.00000000000E+00 -0.00000000000E+00 -0.87787161493E+03  0.87787161493E+03  0.00000000000E+00 0.  1.
         23    2    1    2    0    0  0.44277078393E+03 -0.26499799065E+03  0.63033312278E+03  0.81983402820E+03  0.92401763818E+02 0.  0.
        254    2    1    2    0    0 -0.44277078393E+03  0.26499799065E+03 -0.44054531141E+03  0.11256970130E+04  0.89824478378E+03 0.  0.
         23    2    4    4    0    0 -0.71034438360E+03  0.19413122263E+03 -0.35672655073E+03  0.82398452500E+03  0.97059726572E+02 0.  0.
         23    2    4    4    0    0  0.26757359967E+03  0.70866768024E+02 -0.83818760679E+02  0.30171248804E+03  0.85948302738E+02 0.  0.
         13    1    3    3    0    0  0.41819700299E+03 -0.22552684613E+03  0.59503513844E+03  0.76145775170E+03  0.00000000000E+00 0. -1.
        -13    1    3    3    0    0  0.24573780940E+02 -0.39471144520E+02  0.35297984341E+02  0.58376276499E+02  0.00000000000E+00 0.  1.
          4    1    5    5  502    0 -0.51143878523E+03  0.10652277285E+03 -0.28507416707E+03  0.59513360929E+03  0.00000000000E+00 0. -1.
          3    1    6    6  503    0  0.22186715068E+03  0.50911128146E+02 -0.32136412219E+02  0.22989067948E+03  0.00000000000E+00 0. -1.
         -4    1    5    5    0  502 -0.19890559837E+03  0.87608449777E+02 -0.71652383660E+02  0.22885091571E+03  0.00000000000E+00 0.  1.
         -3    1    6    6    0  503  0.45706448992E+02  0.19955639877E+02 -0.51682348460E+02  0.71821808560E+02  0.00000000000E+00 0.  1.
<mgrwt>
<rscale>  0 0.19362520E+04</rscale>
<asrwt>0</asrwt>
<pdfrwt beam="1">  1        1 0.16425530E+00 0.19362520E+04</pdfrwt>
<pdfrwt beam="2">  1       -1 0.13505717E+00 0.19362520E+04</pdfrwt>
<totfact> 0.57583362E+00</totfact>
</mgrwt>
</event>
<event>
12    1  0.4820219E-008  0.2317301E+04  0.7818608E-02  0.8471131E-01
         -2   -1    0    0    0  501 -0.00000000000E+00  0.00000000000E+00  0.64160202829E+03  0.64160202829E+03  0.00000000000E+00 0.  1.
          2   -1    0    0  501    0  0.00000000000E+00 -0.00000000000E+00 -0.20923736727E+04  0.20923736727E+04  0.00000000000E+00 0. -1.
         23    2    1    2    0    0  0.33064716480E+03  0.15798896208E+03  0.45798059705E+03  0.59045234074E+03  0.67820938312E+02 0.  0.
        254    2    1    2    0    0 -0.33064716480E+03 -0.15798896208E+03 -0.19087522414E+04  0.21435233602E+04  0.90391881103E+03 0.  0.
         23    2    4    4    0    0 -0.32573770208E+03  0.12785481248E+03 -0.17803582103E+04  0.18168052359E+04  0.93026903587E+02 0.  0.
         23    2    4    4    0    0 -0.49094627192E+01 -0.28584377456E+03 -0.12839403115E+03  0.32671812429E+03  0.92352256192E+02 0.  0.
         11    1    3    3    0    0  0.32732918962E+03  0.16344196933E+03  0.45334916629E+03  0.58256599823E+03  0.00000000000E+00 0.  1.
        -11    1    3    3    0    0  0.33179751796E+01 -0.54530072417E+01  0.46314307657E+01  0.78863425114E+01  0.00000000000E+00 0. -1.
          2    1    5    5  502    0 -0.25134129531E+03  0.72418220406E+02 -0.11309878105E+04  0.11608403305E+04  0.00000000000E+00 0. -1.
          1    1    6    6  503    0  0.22832871199E+02 -0.25496569774E+03 -0.93624236949E+02  0.27256988971E+03  0.00000000000E+00 0. -1.
         -2    1    5    5    0  502 -0.74396406777E+02  0.55436592070E+02 -0.64937039973E+03  0.65596490541E+03  0.00000000000E+00 0.  1.
         -1    1    6    6    0  503 -0.27742333918E+02 -0.30878076821E+02 -0.34769794198E+02  0.54148234578E+02  0.00000000000E+00 0.  1.
<mgrwt>
<rscale>  0 0.23173012E+04</rscale>
<asrwt>0</asrwt>
<pdfrwt beam="1">  1        2 0.32190363E+00 0.23173012E+04</pdfrwt>
<pdfrwt beam="2">  1       -2 0.98708007E-01 0.23173012E+04</pdfrwt>
<totfact> 0.45755748E+00</totfact>
</mgrwt>
</event>
<event>
12    1  0.4820219E-008  0.1658725E+04  0.7818608E-02  0.8785262E-01
         -2   -1    0    0    0  501 -0.00000000000E+00  0.00000000000E+00  0.31968888689E+03  0.31968888689E+03  0.00000000000E+00 0.  1.
          2   -1    0    0  501    0  0.00000000000E+00 -0.00000000000E+00 -0.21515975849E+04  0.21515975849E+04  0.00000000000E+00 0. -1.
         23    2    1    2    0    0 -0.93689333844E+02  0.18843210410E+03 -0.14619532770E+04  0.14798272833E+04  0.91088172433E+02 0.  0.
        254    2    1    2    0    0  0.93689333844E+02 -0.18843210410E+03 -0.36995542099E+03  0.99145918847E+03  0.89545516904E+03 0.  0.
         23    2    4    4    0    0  0.31561743711E+03  0.25467889521E+03 -0.17910046834E+03  0.45258219531E+03  0.90983292268E+02 0.  0.
         23    2    4    4    0    0 -0.22192810327E+03 -0.44311099931E+03 -0.19085495265E+03  0.53887699317E+03  0.91451408327E+02 0.  0.
         13    1    3    3    0    0 -0.31157183669E+01  0.31309094948E+02 -0.79032908239E+02  0.85065667058E+02  0.00000000000E+00 0.  1.
        -13    1    3    3    0    0 -0.90573615477E+02  0.15712300915E+03 -0.13829203688E+04  0.13947616163E+04  0.00000000000E+00 0. -1.
          3    1    6    6  502    0 -0.25132094619E+02 -0.23552570662E+02 -0.37082305784E+02  0.50610702099E+02  0.00000000000E+00 0. -1.
          3    1    5    5  503    0  0.15316062468E+03  0.81782193911E+02 -0.42241849543E+02  0.17869213202E+03  0.00000000000E+00 0. -1.
         -3    1    5    5    0  503  0.16245681243E+03  0.17289670130E+03 -0.13685861880E+03  0.27389006328E+03  0.00000000000E+00 0.  1.
         -3    1    6    6    0  502 -0.19679600865E+03 -0.41955842865E+03 -0.15377264686E+03  0.48826629107E+03  0.00000000000E+00 0.  1.
<mgrwt>
<rscale>  0 0.16587246E+04</rscale>
<asrwt>0</asrwt>
<pdfrwt beam="1">  1        2 0.33101502E+00 0.16587246E+04</pdfrwt>
<pdfrwt beam="2">  1       -2 0.49182905E-01 0.16587246E+04</pdfrwt>
<totfact> 0.20548733E+01</totfact>
</mgrwt>
</event>
<event>
12    1  0.4820219E-008  0.3747641E+04  0.7818608E-02  0.8057485E-01
          2   -1    0    0  501    0  0.00000000000E+00  0.00000000000E+00  0.14597971745E+04  0.14597971745E+04  0.00000000000E+00 0. -1.
         -2   -1    0    0    0  501 -0.00000000000E+00 -0.00000000000E+00 -0.24052678328E+04  0.24052678328E+04  0.00000000000E+00 0.  1.
         23    2    1    2    0    0 -0.10426605031E+04 -0.70426859846E+03  0.83058467935E+03  0.15103857551E+04  0.90879239581E+02 0.  0.
        254    2    1    2    0    0  0.10426605031E+04  0.70426859846E+03 -0.17760553376E+04  0.23546792523E+04  0.89833548024E+03 0.  0.
         23    2    4    4    0    0  0.56184849424E+03  0.54615507906E+03 -0.16447827231E+04  0.18240932260E+04  0.89703900993E+02 0.  0.
         23    2    4    4    0    0  0.48081200889E+03  0.15811351940E+03 -0.13127261452E+03  0.53058602630E+03  0.90049758814E+02 0.  0.
         13    1    3    3    0    0 -0.86240800486E+03 -0.53940443722E+03  0.66608896475E+03  0.12158861882E+04  0.00000000000E+00 0. -1.
        -13    1    3    3    0    0 -0.18025249827E+03 -0.16486416124E+03  0.16449571460E+03  0.29449956692E+03  0.00000000000E+00 0.  1.
          1    1    5    5  502    0  0.14021512175E+02  0.14583069436E+02 -0.17821946213E+02  0.26960906599E+02  0.00000000000E+00 0. -1.
          3    1    6    6  503    0  0.17982622287E+02 -0.11271458131E+02 -0.45858576409E+01  0.21712912357E+02  0.00000000000E+00 0. -1.
         -1    1    5    5    0  502  0.54782698206E+03  0.53157200962E+03 -0.16269607769E+04  0.17971323194E+04  0.00000000000E+00 0.  1.
         -3    1    6    6    0  503  0.46282938661E+03  0.16938497753E+03 -0.12668675688E+03  0.50887311394E+03  0.00000000000E+00 0.  1.
<mgrwt>
<rscale>  0 0.37476410E+04</rscale>
<asrwt>0</asrwt>
<pdfrwt beam="1">  1        2 0.22458418E+00 0.37476410E+04</pdfrwt>
<pdfrwt beam="2">  1       -2 0.37004120E+00 0.37476410E+04</pdfrwt>
<totfact> 0.12492344E-01</totfact>
</mgrwt>
</event>
<event>
12    1  0.4820219E-008  0.1245684E+04  0.7818608E-02  0.9073783E-01
         -2   -1    0    0    0  501 -0.00000000000E+00  0.00000000000E+00  0.59848203692E+03  0.59848203692E+03  0.00000000000E+00 0. -1.
          2   -1    0    0  501    0  0.00000000000E+00 -0.00000000000E+00 -0.64819362650E+03  0.64819362650E+03  0.00000000000E+00 0.  1.
         23    2    1    2    0    0  0.14722223342E+03  0.47264816547E+02  0.23085043871E+03  0.29202665930E+03  0.89884903009E+02 0.  0.
        254    2    1    2    0    0 -0.14722223342E+03 -0.47264816547E+02 -0.28056202829E+03  0.95464900412E+03  0.89929490183E+03 0.  0.
         23    2    4    4    0    0  0.13926916353E+03  0.34574635279E+03 -0.24896764356E+03  0.45728299691E+03  0.90478789488E+02 0.  0.
         23    2    4    4    0    0 -0.28649139695E+03 -0.39301116934E+03 -0.31594384731E+02  0.49736600721E+03  0.99194960742E+02 0.  0.
         13    1    3    3    0    0 -0.29365026711E+01  0.15310241736E+02  0.61511797829E+02  0.63456503387E+02  0.00000000000E+00 0.  1.
        -13    1    3    3    0    0  0.15015873609E+03  0.31954574811E+02  0.16933864089E+03  0.22857015591E+03  0.00000000000E+00 0. -1.
          2    1    6    6  502    0 -0.25208413394E+03 -0.30130360185E+03  0.47867863586E+01  0.39287807828E+03  0.00000000000E+00 0. -1.
          2    1    5    5  503    0  0.62935579521E+02  0.13307572281E+03 -0.15138384269E+03  0.21115658408E+03  0.00000000000E+00 0. -1.
         -2    1    5    5    0  503  0.76333584008E+02  0.21267062998E+03 -0.97583800869E+02  0.24612641283E+03  0.00000000000E+00 0.  1.
         -2    1    6    6    0  502 -0.34407263006E+02 -0.91707567491E+02 -0.36381171090E+02  0.10448792893E+03  0.00000000000E+00 0.  1.
<mgrwt>
<rscale>  0 0.12456841E+04</rscale>
<asrwt>0</asrwt>
<pdfrwt beam="1">  1        2 0.99722096E-01 0.12456841E+04</pdfrwt>
<pdfrwt beam="2">  1       -2 0.92074159E-01 0.12456841E+04</pdfrwt>
<totfact> 0.44514058E+01</totfact>
</mgrwt>
</event>
<event>
12    1  0.4820219E-008  0.1291302E+04  0.7818608E-02  0.9036491E-01
         -1   -1    0    0    0  501 -0.00000000000E+00  0.00000000000E+00  0.23339436338E+04  0.23339436338E+04  0.00000000000E+00 0.  1.
          1   -1    0    0  501    0  0.00000000000E+00 -0.00000000000E+00 -0.17860993405E+03  0.17860993405E+03  0.00000000000E+00 0. -1.
         23    2    1    2    0    0 -0.42018579900E+01  0.23491754452E+03  0.13367646547E+03  0.28520620560E+03  0.90935548379E+02 0.  0.
        254    2    1    2    0    0  0.42018579900E+01 -0.23491754452E+03  0.20216572343E+04  0.22273473622E+04  0.90486153130E+03 0.  0.
         23    2    4    4    0    0  0.40568982667E+03 -0.23210596550E+02  0.13378936646E+04  0.14012196985E+04  0.91291940527E+02 0.  0.
         23    2    4    4    0    0 -0.40148796868E+03 -0.21170694797E+03  0.68376356969E+03  0.82612766376E+03  0.94561497335E+02 0.  0.
         13    1    3    3    0    0 -0.18926758675E+02  0.27453476941E+02  0.51967790278E+02  0.61745986238E+02  0.00000000000E+00 0.  1.
        -13    1    3    3    0    0  0.14724900685E+02  0.20746406758E+03  0.81708675197E+02  0.22346021937E+03  0.00000000000E+00 0. -1.
          1    1    5    5  502    0  0.33705508034E+03  0.12233500856E+02  0.10316283802E+04  0.10853630271E+04  0.00000000000E+00 0. -1.
          3    1    6    6  503    0 -0.39450109910E+03 -0.18710335732E+03  0.62903724318E+03  0.76571968553E+03  0.00000000000E+00 0. -1.
         -1    1    5    5    0  502  0.68634746337E+02 -0.35444097406E+02  0.30626528433E+03  0.31585667134E+03  0.00000000000E+00 0.  1.
         -3    1    6    6    0  503 -0.69868695789E+01 -0.24603590651E+02  0.54726326512E+02  0.60407978223E+02  0.00000000000E+00 0.  1.
<mgrwt>
<rscale>  0 0.12913025E+04</rscale>
<asrwt>0</asrwt>
<pdfrwt beam="1">  1        1 0.27478453E-01 0.12913025E+04</pdfrwt>
<pdfrwt beam="2">  1       -1 0.35906823E+00 0.12913025E+04</pdfrwt>
<totfact> 0.23156258E+00</totfact>
</mgrwt>
</event>
<event>
12    1  0.4820219E-008  0.1772112E+04  0.7818608E-02  0.8721272E-01
         -2   -1    0    0    0  501 -0.00000000000E+00  0.00000000000E+00  0.12559695530E+04  0.12559695530E+04  0.00000000000E+00 0.  1.
          2   -1    0    0  501    0  0.00000000000E+00 -0.00000000000E+00 -0.62509114311E+03  0.62509114311E+03  0.00000000000E+00 0. -1.
         23    2    1    2    0    0 -0.53840812305E+03 -0.15501384819E+03 -0.13220665741E+03  0.58254274857E+03  0.89246028177E+02 0.  0.
        254    2    1    2    0    0  0.53840812305E+03  0.15501384819E+03  0.76308506732E+03  0.12985179476E+04  0.88878424832E+03 0.  0.
         23    2    4    4    0    0  0.77728068915E+03  0.10819080421E+03  0.59160972167E+03  0.98695771295E+03  0.90625297411E+02 0.  0.
         23    2    4    4    0    0 -0.23887256610E+03  0.46823043981E+02  0.17147534565E+03  0.31156023461E+03  0.91725052980E+02 0.  0.
         13    1    3    3    0    0 -0.24094010449E+03 -0.39797396460E+02 -0.22651772273E+02  0.24525307236E+03  0.00000000000E+00 0.  1.
        -13    1    3    3    0    0 -0.29746801857E+03 -0.11521645173E+03 -0.10955488513E+03  0.33728967621E+03  0.00000000000E+00 0. -1.
          1    1    5    5  502    0  0.27461113852E+03  0.82179374377E+02  0.21324585291E+03  0.35726533663E+03  0.00000000000E+00 0. -1.
          3    1    6    6  503    0 -0.17896120937E+03 -0.73589611846E+01  0.11196984085E+03  0.21123094950E+03  0.00000000000E+00 0. -1.
         -1    1    5    5    0  502  0.50266955063E+03  0.26011429834E+02  0.37836386876E+03  0.62969237632E+03  0.00000000000E+00 0.  1.
         -3    1    6    6    0  503 -0.59911356730E+02  0.54182005165E+02  0.59505504805E+02  0.10032928511E+03  0.00000000000E+00 0.  1.
<mgrwt>
<rscale>  0 0.17721122E+04</rscale>
<asrwt>0</asrwt>
<pdfrwt beam="1">  1        2 0.96167869E-01 0.17721122E+04</pdfrwt>
<pdfrwt beam="2">  1       -2 0.19322608E+00 0.17721122E+04</pdfrwt>
<totfact> 0.65779887E+00</totfact>
</mgrwt>
</event>
<event>
12    1  0.4820219E-008  0.1364942E+04  0.7818608E-02  0.8979593E-01
          2   -1    0    0  501    0  0.00000000000E+00  0.00000000000E+00  0.16110725099E+04  0.16110725099E+04  0.00000000000E+00 0. -1.
         -2   -1    0    0    0  501 -0.00000000000E+00 -0.00000000000E+00 -0.28910359704E+03  0.28910359704E+03  0.00000000000E+00 0.  1.
         23    2    1    2    0    0 -0.33364732639E+03  0.11558046458E+03  0.27912643206E+03  0.45943935698E+03  0.92160596066E+02 0.  0.
        254    2    1    2    0    0  0.33364732639E+03 -0.11558046458E+03  0.10428424808E+04  0.14407367500E+04  0.92925914615E+03 0.  0.
         23    2    4    4    0    0  0.75810572181E+02 -0.43458290370E+03  0.18777261473E+03  0.48819642978E+03  0.92019868283E+02 0.  0.
         23    2    4    4    0    0  0.25783675421E+03  0.31900243912E+03  0.85506986607E+03  0.95254032018E+03  0.89141672147E+02 0.  0.
         13    1    3    3    0    0 -0.35351446055E+02 -0.12052339377E+02  0.12185649313E+02  0.39287067488E+02  0.00000000000E+00 0. -1.
        -13    1    3    3    0    0 -0.29829588034E+03  0.12763280396E+03  0.26694078275E+03  0.42015228949E+03  0.00000000000E+00 0.  1.
          2    1    5    5  502    0  0.96205841104E+02 -0.34166906774E+03  0.13801627389E+03  0.38084354737E+03  0.00000000000E+00 0.  1.
          3    1    6    6  503    0  0.34916834061E+02  0.59308056465E+01  0.70939060743E+02  0.79288776605E+02  0.00000000000E+00 0. -1.
         -2    1    5    5    0  502 -0.20395268923E+02 -0.92913835960E+02  0.49756340838E+02  0.10735288241E+03  0.00000000000E+00 0. -1.
         -3    1    6    6    0  503  0.22291992015E+03  0.31307163348E+03  0.78413080533E+03  0.87325154357E+03  0.00000000000E+00 0.  1.
<mgrwt>
<rscale>  0 0.13649423E+04</rscale>
<asrwt>0</asrwt>
<pdfrwt beam="1">  1        2 0.24785730E+00 0.13649423E+04</pdfrwt>
<pdfrwt beam="2">  1       -2 0.44477477E-01 0.13649423E+04</pdfrwt>
<totfact> 0.51413486E+01</totfact>
</mgrwt>
</event>
<event>
12    1  0.4820219E-008  0.1650939E+04  0.7818608E-02  0.8789851E-01
          2   -1    0    0  501    0  0.00000000000E+00  0.00000000000E+00  0.19925040920E+04  0.19925040920E+04  0.00000000000E+00 0. -1.
         -2   -1    0    0    0  501 -0.00000000000E+00 -0.00000000000E+00 -0.34198173944E+03  0.34198173944E+03  0.00000000000E+00 0.  1.
         23    2    1    2    0    0 -0.27975695330E+03 -0.46658888943E+03  0.85066339438E+03  0.10140510107E+04  0.93285031356E+02 0.  0.
        254    2    1    2    0    0  0.27975695330E+03  0.46658888943E+03  0.79985895820E+03  0.13204348208E+04  0.89877951591E+03 0.  0.
         23    2    4    4    0    0 -0.12772169409E+03 -0.13084880522E+03 -0.40321483957E+02  0.20804440853E+03  0.90677521365E+02 0.  0.
         23    2    4    4    0    0  0.40747864739E+03  0.59743769465E+03  0.84018044216E+03  0.11123904122E+04  0.92404582058E+02 0.  0.
         11    1    3    3    0    0 -0.13293002983E+02 -0.86636309994E+02  0.12438000243E+03  0.15216089886E+03  0.00000000000E+00 0.  1.
        -11    1    3    3    0    0 -0.26646395032E+03 -0.37995257943E+03  0.72628339194E+03  0.86189011182E+03  0.00000000000E+00 0. -1.
          3    1    5    5  502    0 -0.11809342054E+03 -0.14022844775E+03 -0.21031337503E+02  0.18453289867E+03  0.00000000000E+00 0. -1.
          3    1    6    6  503    0  0.25812673376E+03  0.45133001160E+03  0.58801450615E+03  0.78491352994E+03  0.00000000000E+00 0. -1.
         -3    1    5    5    0  502 -0.96282735554E+01  0.93796425302E+01 -0.19290146455E+02  0.23511509860E+02  0.00000000000E+00 0.  1.
         -3    1    6    6    0  503  0.14935191364E+03  0.14610768305E+03  0.25216593601E+03  0.32747688230E+03  0.00000000000E+00 0.  1.
<mgrwt>
<rscale>  0 0.16509391E+04</rscale>
<asrwt>0</asrwt>
<pdfrwt beam="1">  1        2 0.30653908E+00 0.16509391E+04</pdfrwt>
<pdfrwt beam="2">  1       -2 0.52612576E-01 0.16509391E+04</pdfrwt>
<totfact> 0.21965560E+01</totfact>
</mgrwt>
</event>
<event>
12    1  0.4820219E-008  0.1420981E+04  0.7818608E-02  0.8938770E-01
          2   -1    0    0  501    0  0.00000000000E+00  0.00000000000E+00  0.13051832510E+04  0.13051832510E+04  0.00000000000E+00 0. -1.
         -2   -1    0    0    0  501 -0.00000000000E+00 -0.00000000000E+00 -0.38676294494E+03  0.38676294494E+03  0.00000000000E+00 0.  1.
         23    2    1    2    0    0 -0.19233638585E+03 -0.35819016122E+03  0.83261255833E+01  0.41691519291E+03  0.91953666564E+02 0.  0.
        254    2    1    2    0    0  0.19233638585E+03  0.35819016122E+03  0.91009418051E+03  0.12750310031E+04  0.79507179832E+03 0.  0.
         23    2    4    4    0    0  0.26998942448E+03  0.52635646565E+03  0.88407359714E+03  0.10671833301E+04  0.85724656093E+02 0.  0.
         23    2    4    4    0    0 -0.77653038630E+02 -0.16816630443E+03  0.26020583376E+02  0.20784767296E+03  0.90629377355E+02 0.  0.
         13    1    3    3    0    0 -0.17453998970E+03 -0.24945049999E+03  0.24999060769E+02  0.30547457011E+03  0.00000000000E+00 0. -1.
        -13    1    3    3    0    0 -0.17796396153E+02 -0.10873966123E+03 -0.16672935186E+02  0.11144062280E+03  0.00000000000E+00 0.  1.
          2    1    5    5  502    0  0.41310146513E+02  0.14564561556E+03  0.26660332249E+03  0.30658849473E+03  0.00000000000E+00 0. -1.
          1    1    6    6  503    0 -0.33953284085E+02 -0.86893877566E+02 -0.32255053132E+02  0.98710485315E+02  0.00000000000E+00 0. -1.
         -2    1    5    5    0  502  0.22867927797E+03  0.38071085009E+03  0.61747027464E+03  0.76059483539E+03  0.00000000000E+00 0.  1.
         -1    1    6    6    0  503 -0.43699754545E+02 -0.81272426866E+02  0.58275636508E+02  0.10913718764E+03  0.00000000000E+00 0.  1.
<mgrwt>
<rscale>  0 0.14209807E+04</rscale>
<asrwt>0</asrwt>
<pdfrwt beam="1">  1        2 0.20079742E+00 0.14209807E+04</pdfrwt>
<pdfrwt beam="2">  1       -2 0.59501992E-01 0.14209807E+04</pdfrwt>
<totfact> 0.42052530E+01</totfact>
</mgrwt>
</event>
<event>
12    1  0.4820219E-008  0.1135022E+04  0.7818608E-02  0.9171713E-01
          1   -1    0    0  501    0  0.00000000000E+00  0.00000000000E+00  0.43514927513E+03  0.43514927513E+03  0.00000000000E+00 0. -1.
         -1   -1    0    0    0  501 -0.00000000000E+00 -0.00000000000E+00 -0.74013431428E+03  0.74013431428E+03  0.00000000000E+00 0.  1.
         23    2    1    2    0    0 -0.38057791009E+00 -0.92938238999E+02  0.11839796147E+03  0.17749965855E+03  0.94076513529E+02 0.  0.
        254    2    1    2    0    0  0.38057791009E+00  0.92938238999E+02 -0.42338300061E+03  0.99778393086E+03  0.89871126974E+03 0.  0.
         23    2    4    4    0    0 -0.39180759504E+03  0.17057478148E+02 -0.42805535995E+03  0.58737096091E+03  0.89269846255E+02 0.  0.
         23    2    4    4    0    0  0.39218817295E+03  0.75880760851E+02  0.46723593401E+01  0.41041296995E+03  0.94061267755E+02 0.  0.
         11    1    3    3    0    0 -0.16874055207E+02  0.74741648219E+00 -0.84973101656E+01  0.18907581828E+02  0.00000000000E+00 0.  1.
        -11    1    3    3    0    0  0.16493477297E+02 -0.93685655481E+02  0.12689527163E+03  0.15859207672E+03  0.00000000000E+00 0. -1.
          2    1    5    5  502    0 -0.72696121741E+02  0.34847314259E+02 -0.11093192531E+03  0.13713115430E+03  0.00000000000E+00 0. -1.
          3    1    6    6  503    0  0.22975771824E+02  0.17363833977E+02 -0.21104904537E+02  0.35704422931E+02  0.00000000000E+00 0. -1.
         -2    1    5    5    0  502 -0.31911147329E+03 -0.17789836111E+02 -0.31712343465E+03  0.45023980661E+03  0.00000000000E+00 0.  1.
         -3    1    6    6    0  503  0.36921240112E+03  0.58516926874E+02  0.25777263877E+02  0.37470854701E+03  0.00000000000E+00 0.  1.
<mgrwt>
<rscale>  0 0.11350223E+04</rscale>
<asrwt>0</asrwt>
<pdfrwt beam="1">  1        1 0.66946043E-01 0.11350223E+04</pdfrwt>
<pdfrwt beam="2">  1       -1 0.11386682E+00 0.11350223E+04</pdfrwt>
<totfact> 0.37461882E+01</totfact>
</mgrwt>
</event>
<event>
12    1  0.4820219E-008  0.1677415E+04  0.7818608E-02  0.8774351E-01
          2   -1    0    0  501    0  0.00000000000E+00  0.00000000000E+00  0.79847928907E+03  0.79847928907E+03  0.00000000000E+00 0. -1.
         -2   -1    0    0    0  501 -0.00000000000E+00 -0.00000000000E+00 -0.88096202748E+03  0.88096202748E+03  0.00000000000E+00 0.  1.
         23    2    1    2    0    0 -0.17215143425E+03 -0.19161394614E+03 -0.57322271665E+03  0.63478293503E+03  0.89515758737E+02 0.  0.
        254    2    1    2    0    0  0.17215143425E+03  0.19161394614E+03  0.49073997824E+03  0.10446583815E+04  0.88551306436E+03 0.  0.
         23    2    4    4    0    0 -0.14303688477E+03 -0.21842236750E+02 -0.19217923133E+03  0.25751364025E+03  0.91890066109E+02 0.  0.
         23    2    4    4    0    0  0.31518831902E+03  0.21345618289E+03  0.68291920956E+03  0.78714474126E+03  0.91164567907E+02 0.  0.
         11    1    3    3    0    0 -0.15801474406E+03 -0.19982994822E+03 -0.51908557153E+03  0.57823048875E+03  0.00000000000E+00 0.  1.
        -11    1    3    3    0    0 -0.14136690190E+02  0.82160020811E+01 -0.54137145117E+02  0.56552446288E+02  0.00000000000E+00 0. -1.
          4    1    5    5  502    0 -0.22750362301E+02  0.30547610379E+02 -0.61479479759E+02  0.72321932469E+02  0.00000000000E+00 0. -1.
          1    1    6    6  503    0  0.42993599201E+02  0.26256357044E+00  0.10836113627E+03  0.11657896194E+03  0.00000000000E+00 0. -1.
         -4    1    5    5    0  502 -0.12028652247E+03 -0.52389847129E+02 -0.13069975157E+03  0.18519170778E+03  0.00000000000E+00 0.  1.
         -1    1    6    6    0  503  0.27219471982E+03  0.21319361932E+03  0.57455807329E+03  0.67056577933E+03  0.00000000000E+00 0.  1.
<mgrwt>
<rscale>  0 0.16774146E+04</rscale>
<asrwt>0</asrwt>
<pdfrwt beam="1">  1        2 0.12284297E+00 0.16774146E+04</pdfrwt>
<pdfrwt beam="2">  1       -2 0.13553262E+00 0.16774146E+04</pdfrwt>
<totfact> 0.12853245E+01</totfact>
</mgrwt>
</event>
<event>
12    1  0.4820219E-008  0.1421770E+04  0.7818608E-02  0.8938210E-01
         -1   -1    0    0    0  501 -0.00000000000E+00  0.00000000000E+00  0.51585406642E+03  0.51585406642E+03  0.00000000000E+00 0.  1.
          1   -1    0    0  501    0  0.00000000000E+00 -0.00000000000E+00 -0.97965138498E+03  0.97965138498E+03  0.00000000000E+00 0. -1.
         23    2    1    2    0    0 -0.49459177226E+02 -0.76956689402E+01  0.29814907351E+03  0.31658446545E+03  0.93954351642E+02 0.  0.
        254    2    1    2    0    0  0.49459177226E+02  0.76956689402E+01 -0.76194639207E+03  0.11789209860E+04  0.89821320031E+03 0.  0.
         23    2    4    4    0    0 -0.50650748509E+02  0.42273020533E+03 -0.52457993196E+03  0.68187334480E+03  0.92199937692E+02 0.  0.
         23    2    4    4    0    0  0.10010992574E+03 -0.41503453639E+03 -0.23736646011E+03  0.49704764116E+03  0.91857811691E+02 0.  0.
         13    1    3    3    0    0  0.12846680361E+02 -0.37673695523E+01  0.15393056756E+01  0.13475894464E+02  0.00000000000E+00 0. -1.
        -13    1    3    3    0    0 -0.62305857588E+02 -0.39282993879E+01  0.29660976784E+03  0.30310857098E+03  0.00000000000E+00 0.  1.
          3    1    6    6  502    0  0.10388344500E+03 -0.41867646656E+03 -0.23335511709E+03  0.49044506774E+03  0.00000000000E+00 0. -1.
          3    1    5    5  503    0 -0.69495652042E+02  0.38198873953E+03 -0.44552667384E+03  0.59096451660E+03  0.00000000000E+00 0. -1.
         -3    1    5    5    0  503  0.18844903533E+02  0.40741465797E+02 -0.79053258119E+02  0.90908828195E+02  0.00000000000E+00 0.  1.
         -3    1    6    6    0  502 -0.37735192689E+01  0.36419301647E+01 -0.40113430197E+01  0.66025734239E+01  0.00000000000E+00 0.  1.
<mgrwt>
<rscale>  0 0.14217695E+04</rscale>
<asrwt>0</asrwt>
<pdfrwt beam="1">  1        1 0.15071560E+00 0.14217695E+04</pdfrwt>
<pdfrwt beam="2">  1       -1 0.79362165E-01 0.14217695E+04</pdfrwt>
<totfact> 0.24253286E+01</totfact>
</mgrwt>
</event>
<event>
12    1  0.4820219E-008  0.1542302E+04  0.7818608E-02  0.8856800E-01
         -2   -1    0    0    0  501 -0.00000000000E+00  0.00000000000E+00  0.12936862449E+03  0.12936862449E+03  0.00000000000E+00 0. -1.
          2   -1    0    0  501    0  0.00000000000E+00 -0.00000000000E+00 -0.45967415206E+04  0.45967415206E+04  0.00000000000E+00 0.  1.
         23    2    1    2    0    0 -0.60873169392E+02 -0.19758870359E+02  0.52411656214E+02  0.11656931558E+03  0.82130797624E+02 0.  0.
        254    2    1    2    0    0  0.60873169392E+02  0.19758870359E+02 -0.45197845523E+04  0.46095408295E+04  0.90294977921E+03 0.  0.
         23    2    4    4    0    0 -0.24470952055E+02 -0.13738717014E+03 -0.43316830777E+04  0.43349758703E+04  0.95202143437E+02 0.  0.
         23    2    4    4    0    0  0.85344121447E+02  0.15714604050E+03 -0.18810147457E+03  0.27456495919E+03  0.89583787437E+02 0.  0.
         11    1    3    3    0    0 -0.69974320352E+02 -0.23067505245E+02  0.11552979724E+02  0.74578727848E+02  0.00000000000E+00 0.  1.
        -11    1    3    3    0    0  0.91011509605E+01  0.33086348867E+01  0.40858676490E+02  0.41990587733E+02  0.00000000000E+00 0. -1.
          3    1    5    5  502    0  0.22622315384E+02 -0.88161668698E+02 -0.31627307210E+04  0.31640401170E+04  0.00000000000E+00 0. -1.
          3    1    6    6  503    0  0.22436338985E+02  0.67896027877E+02 -0.20244044518E+02  0.74317435686E+02  0.00000000000E+00 0. -1.
         -3    1    5    5    0  502 -0.47093267440E+02 -0.49225501441E+02 -0.11689523568E+04  0.11709357532E+04  0.00000000000E+00 0.  1.
         -3    1    6    6    0  503  0.62907782462E+02  0.89250012621E+02 -0.16785743005E+03  0.20024752351E+03  0.00000000000E+00 0.  1.
<mgrwt>
<rscale>  0 0.15423023E+04</rscale>
<asrwt>0</asrwt>
<pdfrwt beam="1">  1        2 0.70719099E+00 0.15423023E+04</pdfrwt>
<pdfrwt beam="2">  1       -2 0.19902866E-01 0.15423023E+04</pdfrwt>
<totfact> 0.21197492E+00</totfact>
</mgrwt>
</event>
<event>
12    1  0.4820219E-008  0.1616616E+04  0.7818608E-02  0.8810405E-01
         -2   -1    0    0    0  501 -0.00000000000E+00  0.00000000000E+00  0.51239182571E+03  0.51239182571E+03  0.00000000000E+00 0.  1.
          2   -1    0    0  501    0  0.00000000000E+00 -0.00000000000E+00 -0.12751219812E+04  0.12751219812E+04  0.00000000000E+00 0. -1.
         23    2    1    2    0    0  0.18033538866E+03  0.50402761559E+02 -0.82362860886E+03  0.84901611452E+03  0.86040610135E+02 0.  0.
        254    2    1    2    0    0 -0.18033538866E+03 -0.50402761559E+02  0.60898453354E+02  0.93849769241E+03  0.91760994233E+03 0.  0.
         23    2    4    4    0    0 -0.40742103484E+03  0.25546299392E+03  0.19240528227E+03  0.52536387611E+03  0.87944123066E+02 0.  0.
         23    2    4    4    0    0  0.22708564618E+03 -0.30586575548E+03 -0.13150682892E+03  0.41313381630E+03  0.90905187115E+02 0.  0.
         11    1    3    3    0    0  0.12473905633E+03  0.51832753339E+01 -0.38971110284E+03  0.40922053003E+03  0.00000000000E+00 0.  1.
        -11    1    3    3    0    0  0.55596332325E+02  0.45219486225E+02 -0.43391750602E+03  0.43979558449E+03  0.00000000000E+00 0. -1.
          1    1    5    5  502    0 -0.14424744544E+02  0.21668780546E+02  0.30893012231E+02  0.40397865169E+02  0.00000000000E+00 0. -1.
          3    1    6    6  503    0  0.10017088931E+03 -0.19605353153E+03 -0.46553902049E+02  0.22502990932E+03  0.00000000000E+00 0. -1.
         -1    1    5    5    0  502 -0.39299629029E+03  0.23379421337E+03  0.16151227004E+03  0.48496601094E+03  0.00000000000E+00 0.  1.
         -3    1    6    6    0  503  0.12691475687E+03 -0.10981222395E+03 -0.84952926872E+02  0.18810390698E+03  0.00000000000E+00 0.  1.
<mgrwt>
<rscale>  0 0.16166163E+04</rscale>
<asrwt>0</asrwt>
<pdfrwt beam="1">  1        2 0.19617261E+00 0.16166163E+04</pdfrwt>
<pdfrwt beam="2">  1       -2 0.78829511E-01 0.16166163E+04</pdfrwt>
<totfact> 0.23395800E+01</totfact>
</mgrwt>
</event>
<event>
12    1  0.7207149E-008  0.2625936E+04  0.7818608E-02  0.8359444E-01
          1   -1    0    0  501    0  0.00000000000E+00  0.00000000000E+00  0.14752727573E+04  0.14752727573E+04  0.00000000000E+00 0.  1.
         -1   -1    0    0    0  501 -0.00000000000E+00 -0.00000000000E+00 -0.11685197974E+04  0.11685197974E+04  0.00000000000E+00 0. -1.
         23    2    1    2    0    0  0.95779189323E+03 -0.13115320159E+03  0.77260897772E+03  0.12409296349E+04  0.91734689855E+02 0.  0.
        254    2    1    2    0    0 -0.95779189323E+03  0.13115320159E+03 -0.46585601785E+03  0.14028629198E+04  0.90356851953E+03 0.  0.
         23    2    4    4    0    0 -0.32579867981E+03  0.48562617577E+03 -0.18723394266E+03  0.62135421598E+03  0.95115456498E+02 0.  0.
         23    2    4    4    0    0 -0.63199321342E+03 -0.35447297419E+03 -0.27862207518E+03  0.78150870386E+03  0.89772391077E+02 0.  0.
         11    1    3    3    0    0  0.84292273161E+02  0.12367198365E+02  0.81290186201E+02  0.11775495439E+03  0.00000000000E+00 0. -1.
        -11    1    3    3    0    0  0.87349962007E+03 -0.14352039995E+03  0.69131879152E+03  0.11231746805E+04  0.00000000000E+00 0.  1.
          4    1    5    5  502    0 -0.31793838625E+02  0.11342489738E+02 -0.38481642339E+01  0.33975117600E+02  0.00000000000E+00 0. -1.
          1    1    6    6  503    0 -0.25186836073E+02  0.30308356941E+01 -0.45589644469E+01  0.25774926445E+02  0.00000000000E+00 0. -1.
         -4    1    5    5    0  502 -0.29400484119E+03  0.47428368604E+03 -0.18338577843E+03  0.58737909838E+03  0.00000000000E+00 0.  1.
         -1    1    6    6    0  503 -0.60680637735E+03 -0.35750380988E+03 -0.27406311074E+03  0.75573377742E+03  0.00000000000E+00 0.  1.
<mgrwt>
<rscale>  0 0.26259363E+04</rscale>
<asrwt>0</asrwt>
<pdfrwt beam="1">  1        1 0.22696504E+00 0.26259363E+04</pdfrwt>
<pdfrwt beam="2">  1       -1 0.17977228E+00 0.26259363E+04</pdfrwt>
<totfact> 0.12493983E+00</totfact>
</mgrwt>
</event>
<event>
12    1  0.4820219E-008  0.2631664E+04  0.7818608E-02  0.8357525E-01
          2   -1    0    0  501    0  0.00000000000E+00  0.00000000000E+00  0.11295675152E+04  0.11295675152E+04  0.00000000000E+00 0. -1.
         -2   -1    0    0    0  501 -0.00000000000E+00 -0.00000000000E+00 -0.15328114568E+04  0.15328114568E+04  0.00000000000E+00 0.  1.
         23    2    1    2    0    0  0.41951337433E+03 -0.51281876979E+03 -0.11577639444E+04  0.13370905834E+04  0.91756826799E+02 0.  0.
        254    2    1    2    0    0 -0.41951337433E+03  0.51281876979E+03  0.75452000271E+03  0.13252883886E+04  0.86493601884E+03 0.  0.
         23    2    4    4    0    0 -0.51101913247E+03 -0.37928930699E+02  0.32343537172E+03  0.61408999463E+03  0.99583755169E+02 0.  0.
         23    2    4    4    0    0  0.91505758138E+02  0.55074770049E+03  0.43108463099E+03  0.71119839401E+03  0.90955281334E+02 0.  0.
         11    1    3    3    0    0  0.24317845005E+03 -0.34234056700E+03 -0.66154233200E+03  0.78356306665E+03  0.00000000000E+00 0. -1.
        -11    1    3    3    0    0  0.17633492429E+03 -0.17047820279E+03 -0.49622161239E+03  0.55352751671E+03  0.00000000000E+00 0.  1.
          4    1    5    5  502    0 -0.11747759658E+03  0.26709917911E+02  0.10242678742E+03  0.15813175581E+03  0.00000000000E+00 0. -1.
          3    1    6    6  503    0  0.32736432015E+01  0.87384217907E+02  0.31296952075E+02  0.92877432610E+02  0.00000000000E+00 0. -1.
         -4    1    5    5    0  502 -0.39354153589E+03 -0.64638848610E+02  0.22100858430E+03  0.45595823882E+03  0.00000000000E+00 0.  1.
         -3    1    6    6    0  503  0.88232114936E+02  0.46336348258E+03  0.39978767891E+03  0.61832096140E+03  0.00000000000E+00 0.  1.
<mgrwt>
<rscale>  0 0.26316641E+04</rscale>
<asrwt>0</asrwt>
<pdfrwt beam="1">  1        2 0.17377962E+00 0.26316641E+04</pdfrwt>
<pdfrwt beam="2">  1       -2 0.23581715E+00 0.26316641E+04</pdfrwt>
<totfact> 0.14494832E+00</totfact>
</mgrwt>
</event>
<event>
12    1  0.4820219E-008  0.1591654E+04  0.7818608E-02  0.8825692E-01
          2   -1    0    0  501    0  0.00000000000E+00  0.00000000000E+00  0.68844272729E+03  0.68844272729E+03  0.00000000000E+00 0. -1.
         -2   -1    0    0    0  501 -0.00000000000E+00 -0.00000000000E+00 -0.91996093680E+03  0.91996093680E+03  0.00000000000E+00 0.  1.
         23    2    1    2    0    0  0.24540364377E+03 -0.33944092991E+02  0.40838943257E+03  0.48639822451E+03  0.91794086652E+02 0.  0.
        254    2    1    2    0    0 -0.24540364377E+03  0.33944092991E+02 -0.63990764208E+03  0.11220054396E+04  0.88771575756E+03 0.  0.
         23    2    4    4    0    0 -0.43689092164E+03 -0.28555828187E+03 -0.29645867833E+03  0.60708506691E+03  0.90814760676E+02 0.  0.
         23    2    4    4    0    0  0.19148727787E+03  0.31950237486E+03 -0.34344896376E+03  0.51492037267E+03  0.91851262118E+02 0.  0.
         11    1    3    3    0    0  0.87980121542E+02 -0.10414674003E+02  0.23440257479E+03  0.25058638089E+03  0.00000000000E+00 0. -1.
        -11    1    3    3    0    0  0.15742352222E+03 -0.23529418988E+02  0.17398685778E+03  0.23581184361E+03  0.00000000000E+00 0.  1.
          4    1    5    5  502    0 -0.39015227343E+03 -0.21801852775E+03 -0.26153878863E+03  0.51783531442E+03  0.00000000000E+00 0. -1.
          4    1    6    6  503    0  0.44597052915E+02  0.27982088377E+02 -0.22899531953E+02  0.57413264690E+02  0.00000000000E+00 0. -1.
         -4    1    5    5    0  502 -0.46738648208E+02 -0.67539754119E+02 -0.34919889697E+02  0.89249752488E+02  0.00000000000E+00 0.  1.
         -4    1    6    6    0  503  0.14689022496E+03  0.29152028649E+03 -0.32054943180E+03  0.45750710798E+03  0.00000000000E+00 0.  1.
<mgrwt>
<rscale>  0 0.15916538E+04</rscale>
<asrwt>0</asrwt>
<pdfrwt beam="1">  1        2 0.10591427E+00 0.15916538E+04</pdfrwt>
<pdfrwt beam="2">  1       -2 0.14153245E+00 0.15916538E+04</pdfrwt>
<totfact> 0.14011123E+01</totfact>
</mgrwt>
</event>
<event>
12    1  0.4820219E-008  0.2013958E+04  0.7818608E-02  0.8600122E-01
          1   -1    0    0  501    0  0.00000000000E+00  0.00000000000E+00  0.14378995293E+04  0.14378995293E+04  0.00000000000E+00 0. -1.
         -1   -1    0    0    0  501 -0.00000000000E+00 -0.00000000000E+00 -0.70520015532E+03  0.70520015532E+03  0.00000000000E+00 0.  1.
         23    2    1    2    0    0  0.56863626398E+03  0.32253301972E+03  0.79371316994E+03  0.10322250192E+04  0.90183948845E+02 0.  0.
        254    2    1    2    0    0 -0.56863626398E+03 -0.32253301972E+03 -0.61013795965E+02  0.11108746654E+04  0.89607203360E+03 0.  0.
         23    2    4    4    0    0 -0.36821944236E+03 -0.60765801444E+03  0.85147417375E+02  0.72199050442E+03  0.95845633870E+02 0.  0.
         23    2    4    4    0    0 -0.20041682163E+03  0.28512499472E+03 -0.14616121334E+03  0.38888416098E+03  0.91676743904E+02 0.  0.
         13    1    3    3    0    0  0.13322999268E+03  0.63546057975E+02  0.23969296541E+03  0.28149786873E+03  0.00000000000E+00 0. -1.
        -13    1    3    3    0    0  0.43540627130E+03  0.25898696175E+03  0.55402020453E+03  0.75072715048E+03  0.00000000000E+00 0.  1.
          4    1    5    5  502    0 -0.13533401882E+03 -0.21817998485E+03 -0.15345562343E+02  0.25720281632E+03  0.00000000000E+00 0. -1.
          1    1    6    6  503    0 -0.11011107874E+03  0.81046298710E+02 -0.65345480953E+02  0.15153542186E+03  0.00000000000E+00 0. -1.
         -4    1    5    5    0  502 -0.23288542354E+03 -0.38947802960E+03  0.10049297972E+03  0.46478768810E+03  0.00000000000E+00 0.  1.
         -1    1    6    6    0  503 -0.90305742885E+02  0.20407869601E+03 -0.80815732387E+02  0.23734873913E+03  0.00000000000E+00 0.  1.
<mgrwt>
<rscale>  0 0.20139583E+04</rscale>
<asrwt>0</asrwt>
<pdfrwt beam="1">  1        1 0.22121531E+00 0.20139583E+04</pdfrwt>
<pdfrwt beam="2">  1       -1 0.10849233E+00 0.20139583E+04</pdfrwt>
<totfact> 0.52795357E+00</totfact>
</mgrwt>
</event>
<event>
12    1  0.4820219E-008  0.1782944E+04  0.7818608E-02  0.8715423E-01
          2   -1    0    0  501    0  0.00000000000E+00  0.00000000000E+00  0.92625736844E+03  0.92625736844E+03  0.00000000000E+00 0.  1.
         -2   -1    0    0    0  501 -0.00000000000E+00 -0.00000000000E+00 -0.85799308123E+03  0.85799308123E+03  0.00000000000E+00 0. -1.
         23    2    1    2    0    0 -0.12560403104E+03  0.63670361076E+03 -0.12890848345E+03  0.66775150154E+03  0.90037826147E+02 0.  0.
        254    2    1    2    0    0  0.12560403104E+03 -0.63670361076E+03  0.19717277066E+03  0.11164989481E+04  0.88686241273E+03 0.  0.
         23    2    4    4    0    0  0.23017560874E+03 -0.73750073603E+03  0.37822535559E+03  0.86496685371E+03  0.90692292415E+02 0.  0.
         23    2    4    4    0    0 -0.10457157770E+03  0.10079712527E+03 -0.18105258493E+03  0.25153209442E+03  0.96917906963E+02 0.  0.
         11    1    3    3    0    0 -0.11900006511E+02  0.83758663235E+01 -0.11423539978E+02  0.18500339382E+02  0.00000000000E+00 0.  1.
        -11    1    3    3    0    0 -0.11370402453E+03  0.62832774443E+03 -0.11748494347E+03  0.64925116216E+03  0.00000000000E+00 0. -1.
          1    1    5    5  502    0  0.51917029757E+01 -0.11445786269E+03  0.41357454267E+02  0.12181130955E+03  0.00000000000E+00 0. -1.
          1    1    6    6  503    0  0.15761562718E+02  0.16337404437E+02 -0.48641691326E+02  0.53678224432E+02  0.00000000000E+00 0. -1.
         -1    1    5    5    0  502  0.22498390576E+03 -0.62304287334E+03  0.33686790132E+03  0.74315554416E+03  0.00000000000E+00 0.  1.
         -1    1    6    6    0  503 -0.12033314042E+03  0.84459720835E+02 -0.13241089360E+03  0.19785386999E+03  0.00000000000E+00 0.  1.
<mgrwt>
<rscale>  0 0.17829441E+04</rscale>
<asrwt>0</asrwt>
<pdfrwt beam="1">  1        2 0.14250113E+00 0.17829441E+04</pdfrwt>
<pdfrwt beam="2">  1       -2 0.13199893E+00 0.17829441E+04</pdfrwt>
<totfact> 0.11118533E+01</totfact>
</mgrwt>
</event>
<event>
12    1  0.4820219E-008  0.1552877E+04  0.7818608E-02  0.8850032E-01
         -1   -1    0    0    0  501 -0.00000000000E+00  0.00000000000E+00  0.49079738570E+03  0.49079738570E+03  0.00000000000E+00 0.  1.
          1   -1    0    0  501    0  0.00000000000E+00 -0.00000000000E+00 -0.12283203582E+04  0.12283203582E+04  0.00000000000E+00 0. -1.
         23    2    1    2    0    0 -0.18962626906E+03 -0.44389215576E+03 -0.92461170704E+01  0.49132972681E+03  0.91219745159E+02 0.  0.
        254    2    1    2    0    0  0.18962626906E+03  0.44389215576E+03 -0.72827685544E+03  0.12277880171E+04  0.86259948347E+03 0.  0.
         23    2    4    4    0    0 -0.98119034200E+02  0.62360701948E+03 -0.48753967093E+03  0.80263618149E+03  0.89536861025E+02 0.  0.
         23    2    4    4    0    0  0.28774530326E+03 -0.17971486372E+03 -0.24073718450E+03  0.42515183560E+03  0.87777557051E+02 0.  0.
         11    1    3    3    0    0 -0.13184117604E+03 -0.37236133381E+03  0.18000700708E+02  0.39542266481E+03  0.00000000000E+00 0.  1.
        -11    1    3    3    0    0 -0.57785093011E+02 -0.71530821948E+02 -0.27246817779E+02  0.95907062003E+02  0.00000000000E+00 0. -1.
          4    1    5    5  502    0 -0.90577725642E+02  0.55293294741E+03 -0.46484742916E+03  0.72802630524E+03  0.00000000000E+00 0. -1.
          1    1    6    6  503    0  0.26054596173E+03 -0.17976890780E+03 -0.19455282274E+03  0.37155330603E+03  0.00000000000E+00 0. -1.
         -4    1    5    5    0  502 -0.75413085574E+01  0.70674072072E+02 -0.22692241767E+02  0.74609876253E+02  0.00000000000E+00 0.  1.
         -1    1    6    6    0  503  0.27199341525E+02  0.54044080078E-01 -0.46184361767E+02  0.53598529569E+02  0.00000000000E+00 0.  1.
<mgrwt>
<rscale>  0 0.15528766E+04</rscale>
<asrwt>0</asrwt>
<pdfrwt beam="1">  1        1 0.18897236E+00 0.15528766E+04</pdfrwt>
<pdfrwt beam="2">  1       -1 0.75507290E-01 0.15528766E+04</pdfrwt>
<totfact> 0.17301929E+01</totfact>
</mgrwt>
</event>
<event>
12    1  0.4820219E-008  0.1164423E+04  0.7818608E-02  0.9144580E-01
         -2   -1    0    0    0  501 -0.00000000000E+00  0.00000000000E+00  0.42260298540E+03  0.42260298540E+03  0.00000000000E+00 0.  1.
          2   -1    0    0  501    0  0.00000000000E+00 -0.00000000000E+00 -0.80210143059E+03  0.80210143059E+03  0.00000000000E+00 0. -1.
         23    2    1    2    0    0 -0.62813662964E+02  0.15351286106E+03  0.39798455103E+02  0.19388018508E+03  0.92162109210E+02 0.  0.
        254    2    1    2    0    0  0.62813662964E+02 -0.15351286106E+03 -0.41929690029E+03  0.10308242309E+04  0.92697192496E+03 0.  0.
         23    2    4    4    0    0 -0.28731213274E+03  0.37652871416E+02 -0.52637121706E+03  0.60788955774E+03  0.92179476649E+02 0.  0.
         23    2    4    4    0    0  0.35012579570E+03 -0.19116573247E+03  0.10707431677E+03  0.42293467316E+03  0.90974822705E+02 0.  0.
         11    1    3    3    0    0  0.22715998424E+02  0.18527862915E+02  0.49926396842E+00  0.29318041427E+02  0.00000000000E+00 0. -1.
        -11    1    3    3    0    0 -0.85529661388E+02  0.13498499814E+03  0.39299191134E+02  0.16456214366E+03  0.00000000000E+00 0.  1.
          4    1    5    5  502    0 -0.21256722658E+03 -0.68757406792E+01 -0.41727701665E+03  0.46835052071E+03  0.00000000000E+00 0. -1.
          4    1    6    6  503    0  0.18185950706E+03 -0.14526345385E+03  0.40528386292E+02  0.23625600824E+03  0.00000000000E+00 0.  1.
         -4    1    5    5    0  502 -0.74744906160E+02  0.44528612095E+02 -0.10909420041E+03  0.13953903703E+03  0.00000000000E+00 0.  1.
         -4    1    6    6    0  503  0.16826628864E+03 -0.45902278619E+02  0.66545930479E+02  0.18667866492E+03  0.00000000000E+00 0. -1.
<mgrwt>
<rscale>  0 0.11644234E+04</rscale>
<asrwt>0</asrwt>
<pdfrwt beam="1">  1        2 0.12340022E+00 0.11644234E+04</pdfrwt>
<pdfrwt beam="2">  1       -2 0.65015845E-01 0.11644234E+04</pdfrwt>
<totfact> 0.74103944E+01</totfact>
</mgrwt>
</event>
<event>
12    1  0.4820219E-008  0.2063821E+04  0.7818608E-02  0.8577350E-01
         -2   -1    0    0    0  501 -0.00000000000E+00  0.00000000000E+00  0.92307191201E+03  0.92307191201E+03  0.00000000000E+00 0.  1.
          2   -1    0    0  501    0  0.00000000000E+00 -0.00000000000E+00 -0.11535819816E+04  0.11535819816E+04  0.00000000000E+00 0. -1.
         23    2    1    2    0    0 -0.77300052502E+03  0.16774735126E+03 -0.35606881790E+03  0.87324404243E+03  0.10050457214E+03 0.  0.
        254    2    1    2    0    0  0.77300052502E+03 -0.16774735126E+03  0.12555874833E+03  0.12034098512E+04  0.89819891175E+03 0.  0.
         23    2    4    4    0    0  0.14699020323E+03 -0.41452116317E+03 -0.14698163899E+03  0.47177754294E+03  0.86813209053E+02 0.  0.
         23    2    4    4    0    0  0.62601032179E+03  0.24677381191E+03  0.27254038732E+03  0.73163230822E+03  0.90671574820E+02 0.  0.
         11    1    3    3    0    0 -0.23871814170E+03  0.17898095706E+02 -0.72731331838E+02  0.25019300477E+03  0.00000000000E+00 0.  1.
        -11    1    3    3    0    0 -0.53428238332E+03  0.14984925555E+03 -0.28333748606E+03  0.62305103766E+03  0.00000000000E+00 0. -1.
          4    1    5    5  502    0  0.13404120163E+03 -0.39084660793E+03 -0.15834998862E+03  0.44249613960E+03  0.00000000000E+00 0. -1.
          3    1    6    6  503    0  0.18622383791E+03  0.11784941303E+03  0.78357159929E+02  0.23389665767E+03  0.00000000000E+00 0.  1.
         -4    1    5    5    0  502  0.12949001599E+02 -0.23674555235E+02  0.11368349638E+02  0.29281403338E+02  0.00000000000E+00 0.  1.
         -3    1    6    6    0  503  0.43978648388E+03  0.12892439889E+03  0.19418322739E+03  0.49773565056E+03  0.00000000000E+00 0. -1.
<mgrwt>
<rscale>  0 0.20638209E+04</rscale>
<asrwt>0</asrwt>
<pdfrwt beam="1">  1        2 0.17747415E+00 0.20638209E+04</pdfrwt>
<pdfrwt beam="2">  1       -2 0.14201106E+00 0.20638209E+04</pdfrwt>
<totfact> 0.64616841E+00</totfact>
</mgrwt>
</event>
<event>
12    1  0.4820219E-008  0.2314878E+04  0.7818608E-02  0.8472078E-01
          1   -1    0    0  501    0  0.00000000000E+00  0.00000000000E+00  0.10218503284E+04  0.10218503284E+04  0.00000000000E+00 0. -1.
         -1   -1    0    0    0  501 -0.00000000000E+00 -0.00000000000E+00 -0.13110187273E+04  0.13110187273E+04  0.00000000000E+00 0.  1.
         23    2    1    2    0    0  0.11510443378E+03  0.75890279543E+03 -0.73885677810E+03  0.10692973439E+04  0.91131704595E+02 0.  0.
        254    2    1    2    0    0 -0.11510443378E+03 -0.75890279543E+03  0.44968837913E+03  0.12635717118E+04  0.89733569463E+03 0.  0.
         23    2    4    4    0    0 -0.32476427303E+03 -0.73981144052E+03  0.58100934408E+03  0.99943226994E+03  0.92196549414E+02 0.  0.
         23    2    4    4    0    0  0.20965983925E+03 -0.19091354905E+02 -0.13132096494E+03  0.26413944182E+03  0.90568873606E+02 0.  0.
         11    1    3    3    0    0  0.95339903419E+02  0.63280613605E+03 -0.56537895561E+03  0.85392427443E+03  0.00000000000E+00 0.  1.
        -11    1    3    3    0    0  0.19764530365E+02  0.12609665937E+03 -0.17347782249E+03  0.21537306949E+03  0.00000000000E+00 0. -1.
          1    1    5    5  502    0 -0.27231670973E+03 -0.68584799647E+03  0.52544541306E+03  0.90589003017E+03  0.00000000000E+00 0. -1.
          3    1    6    6  503    0  0.17516792539E+03 -0.23243484178E+00 -0.13956989147E+03  0.22397234364E+03  0.00000000000E+00 0. -1.
         -1    1    5    5    0  502 -0.52447563300E+02 -0.53963444048E+02  0.55563931023E+02  0.93542239766E+02  0.00000000000E+00 0.  1.
         -3    1    6    6    0  503  0.34491913855E+02 -0.18858920064E+02  0.82489265228E+01  0.40167098179E+02  0.00000000000E+00 0.  1.
<mgrwt>
<rscale>  0 0.23148779E+04</rscale>
<asrwt>0</asrwt>
<pdfrwt beam="1">  1        1 0.15720774E+00 0.23148779E+04</pdfrwt>
<pdfrwt beam="2">  1       -1 0.20169519E+00 0.23148779E+04</pdfrwt>
<totfact> 0.19241830E+00</totfact>
</mgrwt>
</event>
<event>
12    1  0.4820219E-008  0.1358592E+04  0.7818608E-02  0.8984349E-01
          1   -1    0    0  501    0  0.00000000000E+00  0.00000000000E+00  0.15952026286E+04  0.15952026286E+04  0.00000000000E+00 0. -1.
         -1   -1    0    0    0  501 -0.00000000000E+00 -0.00000000000E+00 -0.28926933967E+03  0.28926933967E+03  0.00000000000E+00 0.  1.
         23    2    1    2    0    0  0.21169534938E+02  0.17408178385E+03 -0.96511747414E+02  0.21923526805E+03  0.89425771960E+02 0.  0.
        254    2    1    2    0    0 -0.21169534938E+02 -0.17408178385E+03  0.14024450363E+04  0.16652367002E+04  0.88057286528E+03 0.  0.
         23    2    4    4    0    0 -0.13791696847E+03  0.32582150513E+03  0.70169785244E+03  0.79172619821E+03  0.96279558682E+02 0.  0.
         23    2    4    4    0    0  0.11674743353E+03 -0.49990328899E+03  0.70074718386E+03  0.87351050196E+03  0.91873389872E+02 0.  0.
         13    1    3    3    0    0  0.46343799776E+02  0.65319164776E+02 -0.65244055146E+02  0.10330115099E+03  0.00000000000E+00 0. -1.
        -13    1    3    3    0    0 -0.25174264838E+02  0.10876261908E+03 -0.31267692267E+02  0.11593411706E+03  0.00000000000E+00 0.  1.
          2    1    5    5  502    0 -0.11274700029E+03  0.29632042349E+03  0.67147453681E+03  0.74256025549E+03  0.00000000000E+00 0. -1.
          3    1    6    6  503    0 -0.24733387917E+01 -0.14081799840E+03  0.15493189432E+03  0.20937936373E+03  0.00000000000E+00 0. -1.
         -2    1    5    5    0  502 -0.25169968175E+02  0.29501081637E+02  0.30223315628E+02  0.49165942717E+02  0.00000000000E+00 0.  1.
         -3    1    6    6    0  503  0.11922077232E+03 -0.35908529059E+03  0.54581528954E+03  0.66413113823E+03  0.00000000000E+00 0.  1.
<mgrwt>
<rscale>  0 0.13585922E+04</rscale>
<asrwt>0</asrwt>
<pdfrwt beam="1">  1        1 0.24541578E+00 0.13585922E+04</pdfrwt>
<pdfrwt beam="2">  1       -1 0.44502977E-01 0.13585922E+04</pdfrwt>
<totfact> 0.27500429E+01</totfact>
</mgrwt>
</event>
<event>
12    1  0.4820219E-008  0.1506009E+04  0.7818608E-02  0.8880467E-01
         -2   -1    0    0    0  501 -0.00000000000E+00  0.00000000000E+00  0.15590577357E+03  0.15590577357E+03  0.00000000000E+00 0.  1.
          2   -1    0    0  501    0  0.00000000000E+00 -0.00000000000E+00 -0.36369115650E+04  0.36369115650E+04  0.00000000000E+00 0. -1.
         23    2    1    2    0    0  0.56646829218E+02 -0.12241200696E+03  0.29084848881E+02  0.16696110491E+03  0.94002762788E+02 0.  0.
        254    2    1    2    0    0 -0.56646829218E+02  0.12241200696E+03 -0.35100906403E+04  0.36258562336E+04  0.89883455723E+03 0.  0.
         23    2    4    4    0    0 -0.16158980020E+03 -0.34548099120E+03 -0.11216342517E+04  0.11879810957E+04  0.88132346839E+02 0.  0.
         23    2    4    4    0    0  0.10494297098E+03  0.46789299815E+03 -0.23884563886E+04  0.24378751379E+04  0.92597962583E+02 0.  0.
         13    1    3    3    0    0  0.15454421652E+02  0.13454442008E+02 -0.47008639399E+01  0.21022827596E+02  0.00000000000E+00 0. -1.
        -13    1    3    3    0    0  0.41192407567E+02 -0.13586644897E+03  0.33785712821E+02  0.14593827732E+03  0.00000000000E+00 0.  1.
          2    1    5    5  502    0 -0.63436092225E+02 -0.52580215451E+02 -0.22303006405E+03  0.23776296248E+03  0.00000000000E+00 0. -1.
          3    1    6    6  503    0  0.82132110422E+02  0.16451719082E+03 -0.93897776007E+03  0.95681284666E+03  0.00000000000E+00 0. -1.
         -2    1    5    5    0  502 -0.98153707971E+02 -0.29290077574E+03 -0.89860418760E+03  0.95021813327E+03  0.00000000000E+00 0.  1.
         -3    1    6    6    0  503  0.22810860555E+02  0.30337580733E+03 -0.14494786286E+04  0.14810622912E+04  0.00000000000E+00 0.  1.
<mgrwt>
<rscale>  0 0.15060086E+04</rscale>
<asrwt>0</asrwt>
<pdfrwt beam="1">  1        2 0.55952485E+00 0.15060086E+04</pdfrwt>
<pdfrwt beam="2">  1       -2 0.23985504E-01 0.15060086E+04</pdfrwt>
<totfact> 0.98559174E+00</totfact>
</mgrwt>
</event>
<event>
12    1  0.4820219E-008  0.1695856E+04  0.7818608E-02  0.8763731E-01
          2   -1    0    0  501    0  0.00000000000E+00  0.00000000000E+00  0.67315150444E+03  0.67315150444E+03  0.00000000000E+00 0. -1.
         -2   -1    0    0    0  501 -0.00000000000E+00 -0.00000000000E+00 -0.10680831771E+04  0.10680831771E+04  0.00000000000E+00 0.  1.
         23    2    1    2    0    0  0.35386995086E+03 -0.41687909047E+03  0.12077927963E+03  0.56672754422E+03  0.87065244455E+02 0.  0.
        254    2    1    2    0    0 -0.35386995086E+03  0.41687909047E+03 -0.51571095225E+03  0.11745071373E+04  0.90249493687E+03 0.  0.
         23    2    4    4    0    0  0.11663700695E+03 -0.19576428550E+03 -0.18749345786E+01  0.24228450406E+03  0.82282553819E+02 0.  0.
         23    2    4    4    0    0 -0.47050695782E+03  0.61264337597E+03 -0.51383601767E+03  0.93222263322E+03  0.91120147951E+02 0.  0.
         11    1    3    3    0    0  0.69356169693E+02 -0.82438936100E+02  0.60394235913E+02  0.12350676172E+03  0.00000000000E+00 0. -1.
        -11    1    3    3    0    0  0.28451378117E+03 -0.33444015437E+03  0.60385043721E+02  0.44322078250E+03  0.00000000000E+00 0.  1.
          4    1    6    6  502    0 -0.28067271206E+03  0.37430500282E+03 -0.36343761524E+03  0.59242578151E+03  0.00000000000E+00 0. -1.
          4    1    5    5  503    0  0.11272581927E+03 -0.20002266779E+03  0.92073438970E+01  0.22978457986E+03  0.00000000000E+00 0. -1.
         -4    1    5    5    0  503  0.39111876780E+01  0.42583822942E+01 -0.11082278476E+02  0.12499924201E+02  0.00000000000E+00 0.  1.
         -4    1    6    6    0  502 -0.18983424576E+03  0.23833837315E+03 -0.15039840244E+03  0.33979685171E+03  0.00000000000E+00 0.  1.
<mgrwt>
<rscale>  0 0.16958559E+04</rscale>
<asrwt>0</asrwt>
<pdfrwt beam="1">  1        2 0.10356177E+00 0.16958559E+04</pdfrwt>
<pdfrwt beam="2">  1       -2 0.16432049E+00 0.16958559E+04</pdfrwt>
<totfact> 0.95871469E+00</totfact>
</mgrwt>
</event>
<event>
12    1  0.4820219E-008  0.1709791E+04  0.7818608E-02  0.8755800E-01
         -1   -1    0    0    0  501 -0.00000000000E+00  0.00000000000E+00  0.59860438484E+03  0.59860438484E+03  0.00000000000E+00 0.  1.
          1   -1    0    0  501    0  0.00000000000E+00 -0.00000000000E+00 -0.12209169533E+04  0.12209169533E+04  0.00000000000E+00 0. -1.
         23    2    1    2    0    0 -0.40683442094E+03 -0.44275701371E+03 -0.36029901352E+03  0.70682999886E+03  0.90803352871E+02 0.  0.
        254    2    1    2    0    0  0.40683442094E+03  0.44275701371E+03 -0.26201355490E+03  0.11126913392E+04  0.89882306057E+03 0.  0.
         23    2    4    4    0    0  0.12541767818E+03  0.30906674230E+03  0.30287578406E+03  0.45943378854E+03  0.89965661719E+02 0.  0.
         23    2    4    4    0    0  0.28141674276E+03  0.13369027141E+03 -0.56488933896E+03  0.65325755070E+03  0.10284449669E+03 0.  0.
         11    1    3    3    0    0 -0.38610760437E+03 -0.42026757399E+03 -0.36261111969E+03  0.67615881272E+03  0.00000000000E+00 0. -1.
        -11    1    3    3    0    0 -0.20726816572E+02 -0.22489439719E+02  0.23121061701E+01  0.30671186137E+02  0.00000000000E+00 0.  1.
          1    1    6    6  502    0  0.23795270191E+03  0.87940942199E+02 -0.51005037260E+03  0.56965470265E+03  0.00000000000E+00 0. -1.
          1    1    5    5  503    0 -0.11395068994E+02  0.64357246139E+01  0.82846967628E+01  0.15488781396E+02  0.00000000000E+00 0.  1.
         -1    1    5    5    0  503  0.13681274718E+03  0.30263101768E+03  0.29459108730E+03  0.44394500715E+03  0.00000000000E+00 0. -1.
         -1    1    6    6    0  502  0.43464040853E+02  0.45749329211E+02 -0.54838966354E+02  0.83602848045E+02  0.00000000000E+00 0.  1.
<mgrwt>
<rscale>  0 0.17097909E+04</rscale>
<asrwt>0</asrwt>
<pdfrwt beam="1">  1        1 0.18783338E+00 0.17097909E+04</pdfrwt>
<pdfrwt beam="2">  1       -1 0.92092983E-01 0.17097909E+04</pdfrwt>
<totfact> 0.11260740E+01</totfact>
</mgrwt>
</event>
<event>
12    1  0.4820219E-008  0.1674727E+04  0.7818608E-02  0.8775911E-01
         -2   -1    0    0    0  501 -0.00000000000E+00  0.00000000000E+00  0.24817050630E+03  0.24817050630E+03  0.00000000000E+00 0.  1.
          2   -1    0    0  501    0  0.00000000000E+00 -0.00000000000E+00 -0.28253854843E+04  0.28253854843E+04  0.00000000000E+00 0. -1.
         23    2    1    2    0    0 -0.79067570413E+02  0.49463906157E+03 -0.15040460151E+04  0.15878311902E+04  0.90188641686E+02 0.  0.
        254    2    1    2    0    0  0.79067570413E+02 -0.49463906157E+03 -0.10731689629E+04  0.14857248004E+04  0.89708811034E+03 0.  0.
         23    2    4    4    0    0 -0.49572398121E+02 -0.73107266690E+03 -0.83709156344E+03  0.11163516129E+04  0.92703673942E+02 0.  0.
         23    2    4    4    0    0  0.12863996853E+03  0.23643360533E+03 -0.23607739946E+03  0.36937318748E+03  0.90856600537E+02 0.  0.
         13    1    3    3    0    0  0.26839882669E+01  0.22003330852E+03 -0.57782304215E+03  0.61830520674E+03  0.00000000000E+00 0.  1.
        -13    1    3    3    0    0 -0.81751558680E+02  0.27460575305E+03 -0.92622297297E+03  0.96952598346E+03  0.00000000000E+00 0. -1.
          4    1    5    5  502    0 -0.24590459048E+02 -0.66750191214E+02 -0.11152915149E+03  0.13228390051E+03  0.00000000000E+00 0. -1.
          1    1    6    6  503    0  0.15120956297E+02  0.25274332497E+02 -0.74922409032E+02  0.80503432086E+02  0.00000000000E+00 0. -1.
         -4    1    5    5    0  502 -0.24981939074E+02 -0.66432247569E+03 -0.72556241195E+03  0.98406771242E+03  0.00000000000E+00 0.  1.
         -1    1    6    6    0  503  0.11351901224E+03  0.21115927283E+03 -0.16115499043E+03  0.28886975540E+03  0.00000000000E+00 0.  1.
<mgrwt>
<rscale>  0 0.16747267E+04</rscale>
<asrwt>0</asrwt>
<pdfrwt beam="1">  1        2 0.43467466E+00 0.16747267E+04</pdfrwt>
<pdfrwt beam="2">  1       -2 0.38180081E-01 0.16747267E+04</pdfrwt>
<totfact> 0.13834216E+01</totfact>
</mgrwt>
</event>
<event>
12    1  0.4820219E-008  0.1787690E+04  0.7818608E-02  0.8712873E-01
          2   -1    0    0  501    0  0.00000000000E+00  0.00000000000E+00  0.16815047010E+04  0.16815047010E+04  0.00000000000E+00 0. -1.
         -2   -1    0    0    0  501 -0.00000000000E+00 -0.00000000000E+00 -0.47514544745E+03  0.47514544745E+03  0.00000000000E+00 0.  1.
         23    2    1    2    0    0 -0.40535957520E+03  0.18573097055E+03 -0.14772842318E+03  0.47836777914E+03  0.90552009807E+02 0.  0.
        254    2    1    2    0    0  0.40535957520E+03 -0.18573097055E+03  0.13540876767E+04  0.16782823693E+04  0.88558788172E+03 0.  0.
         23    2    4    4    0    0  0.58390918274E+03 -0.38700967716E+03  0.99692588737E+03  0.12219626311E+04  0.92763262864E+02 0.  0.
         23    2    4    4    0    0 -0.17854960755E+03  0.20127870662E+03  0.35716178933E+03  0.45631973821E+03  0.90939978182E+02 0.  0.
         13    1    3    3    0    0 -0.19605434515E+03  0.11681966132E+03 -0.11512018784E+03  0.25561063588E+03  0.00000000000E+00 0. -1.
        -13    1    3    3    0    0 -0.20930523004E+03  0.68911309224E+02 -0.32608235338E+02  0.22275714326E+03  0.00000000000E+00 0.  1.
          1    1    5    5  502    0  0.10857715735E+03 -0.10480117663E+03  0.17039622944E+03  0.22761186421E+03  0.00000000000E+00 0. -1.
          3    1    6    6  503    0 -0.75936617360E+02  0.10351401109E+03  0.24102962638E+03  0.27308753384E+03  0.00000000000E+00 0. -1.
         -1    1    5    5    0  502  0.47533202539E+03 -0.28220850053E+03  0.82652965793E+03  0.99435076686E+03  0.00000000000E+00 0.  1.
         -3    1    6    6    0  503 -0.10261299018E+03  0.97764695525E+02  0.11613216295E+03  0.18323220437E+03  0.00000000000E+00 0.  1.
<mgrwt>
<rscale>  0 0.17876905E+04</rscale>
<asrwt>0</asrwt>
<pdfrwt beam="1">  1        2 0.25869303E+00 0.17876905E+04</pdfrwt>
<pdfrwt beam="2">  1       -2 0.73099301E-01 0.17876905E+04</pdfrwt>
<totfact> 0.16037916E+01</totfact>
</mgrwt>
</event>
<event>
12    1  0.4820219E-008  0.1939681E+04  0.7818608E-02  0.8635353E-01
         -1   -1    0    0    0  501 -0.00000000000E+00  0.00000000000E+00  0.23500325693E+03  0.23500325693E+03  0.00000000000E+00 0.  1.
          1   -1    0    0  501    0  0.00000000000E+00 -0.00000000000E+00 -0.40024573551E+04  0.40024573551E+04  0.00000000000E+00 0. -1.
         23    2    1    2    0    0  0.55065683857E+03 -0.41339300256E+03 -0.21961404804E+04  0.23032345247E+04  0.87974644336E+02 0.  0.
        254    2    1    2    0    0 -0.55065683857E+03  0.41339300256E+03 -0.15713136178E+04  0.19342260872E+04  0.89335734327E+03 0.  0.
         23    2    4    4    0    0 -0.41295765629E+02  0.42551787917E+03 -0.12526245529E+04  0.13268409578E+04  0.93101293323E+02 0.  0.
         23    2    4    4    0    0 -0.50936107294E+03 -0.12124876612E+02 -0.31868906484E+03  0.60738512949E+03  0.88080986697E+02 0.  0.
         11    1    3    3    0    0  0.54061509718E+03 -0.38662782549E+03 -0.21267684014E+04  0.22282032205E+04  0.00000000000E+00 0. -1.
        -11    1    3    3    0    0  0.10041741393E+02 -0.26765177070E+02 -0.69372078970E+02  0.75031304230E+02  0.00000000000E+00 0.  1.
          3    1    5    5  502    0  0.15419707412E+02  0.28351852552E+03 -0.77797334873E+03  0.82816849313E+03  0.00000000000E+00 0. -1.
          3    1    6    6  503    0 -0.15813065448E+03 -0.24707644820E+02 -0.14224546891E+03  0.21412506865E+03  0.00000000000E+00 0. -1.
         -3    1    5    5    0  502 -0.56715473041E+02  0.14199935365E+03 -0.47465120420E+03  0.49867246462E+03  0.00000000000E+00 0.  1.
         -3    1    6    6    0  503 -0.35123041846E+03  0.12582768208E+02 -0.17644359593E+03  0.39326006084E+03  0.00000000000E+00 0.  1.
<mgrwt>
<rscale>  0 0.19396809E+04</rscale>
<asrwt>0</asrwt>
<pdfrwt beam="1">  1        1 0.61576265E+00 0.19396809E+04</pdfrwt>
<pdfrwt beam="2">  1       -1 0.36154348E-01 0.19396809E+04</pdfrwt>
<totfact> 0.65767113E-01</totfact>
</mgrwt>
</event>
<event>
12    1  0.4820219E-008  0.1357924E+04  0.7818608E-02  0.8984852E-01
          2   -1    0    0  501    0  0.00000000000E+00  0.00000000000E+00  0.28292089232E+04  0.28292089232E+04  0.00000000000E+00 0. -1.
         -2   -1    0    0    0  501 -0.00000000000E+00 -0.00000000000E+00 -0.16293920940E+03  0.16293920940E+03  0.00000000000E+00 0.  1.
         23    2    1    2    0    0  0.19327222001E+03 -0.31798247623E+02  0.52232655975E+02  0.22225112913E+03  0.91115500713E+02 0.  0.
        254    2    1    2    0    0 -0.19327222001E+03  0.31798247623E+02  0.26140370579E+04  0.27698970035E+04  0.89485998376E+03 0.  0.
         23    2    4    4    0    0 -0.54219094672E+03  0.55985329167E+02  0.16627434938E+04  0.17523346274E+04  0.94102818165E+02 0.  0.
         23    2    4    4    0    0  0.34891872671E+03 -0.24187081544E+02  0.95129356405E+03  0.10175623761E+04  0.90246614801E+02 0.  0.
         11    1    3    3    0    0  0.19151042654E+03 -0.16391353424E+02  0.29099042488E+02  0.19440080816E+03  0.00000000000E+00 0.  1.
        -11    1    3    3    0    0  0.17617934708E+01 -0.15406894199E+02  0.23133613487E+02  0.27850320969E+02  0.00000000000E+00 0. -1.
          1    1    6    6  502    0  0.32522635525E+03 -0.11971832158E+02  0.79537560385E+03  0.85938225378E+03  0.00000000000E+00 0. -1.
          1    1    5    5  503    0 -0.34898483359E+03  0.10028601045E+02  0.11730556512E+04  0.12239079000E+04  0.00000000000E+00 0. -1.
         -1    1    5    5    0  503 -0.19320611313E+03  0.45956728123E+02  0.48968784262E+03  0.52842672739E+03  0.00000000000E+00 0.  1.
         -1    1    6    6    0  502  0.23692371460E+02 -0.12215249385E+02  0.15591796020E+03  0.15818012232E+03  0.00000000000E+00 0.  1.
<mgrwt>
<rscale>  0 0.13579235E+04</rscale>
<asrwt>0</asrwt>
<pdfrwt beam="1">  1        2 0.43526288E+00 0.13579235E+04</pdfrwt>
<pdfrwt beam="2">  1       -2 0.25067573E-01 0.13579235E+04</pdfrwt>
<totfact> 0.31177816E+01</totfact>
</mgrwt>
</event>
<event>
12    1  0.4820219E-008  0.3318172E+04  0.7818608E-02  0.8158287E-01
          2   -1    0    0  501    0  0.00000000000E+00  0.00000000000E+00  0.16779312481E+04  0.16779312481E+04  0.00000000000E+00 0. -1.
         -2   -1    0    0    0  501 -0.00000000000E+00 -0.00000000000E+00 -0.16404528845E+04  0.16404528845E+04  0.00000000000E+00 0.  1.
         23    2    1    2    0    0 -0.77897716705E+03 -0.30602384469E+03  0.13175575690E+04  0.15636429707E+04  0.92549294384E+02 0.  0.
        254    2    1    2    0    0  0.77897716705E+03  0.30602384469E+03 -0.12800792054E+04  0.17547411619E+04  0.86026609415E+03 0.  0.
         23    2    4    4    0    0  0.27167142080E+03  0.24364003937E+03 -0.25953354305E+01  0.37602344679E+03  0.90670100407E+02 0.  0.
         23    2    4    4    0    0  0.50730574625E+03  0.62383805318E+02 -0.12774838700E+04  0.13787177151E+04  0.87445071054E+02 0.  0.
         11    1    3    3    0    0 -0.13120920614E+03 -0.75577602780E+02  0.29235829164E+03  0.32924337580E+03  0.00000000000E+00 0.  1.
        -11    1    3    3    0    0 -0.64776796091E+03 -0.23044624191E+03  0.10251992773E+04  0.12343995949E+04  0.00000000000E+00 0. -1.
          1    1    5    5  502    0  0.27110646910E+03  0.23848796992E+03 -0.16227171958E+02  0.36143955303E+03  0.00000000000E+00 0. -1.
          3    1    6    6  503    0  0.50544640229E+03  0.54562736676E+02 -0.12361200050E+04  0.13365798983E+04  0.00000000000E+00 0. -1.
         -1    1    5    5    0  502  0.56495169478E+00  0.51520694482E+01  0.13631836528E+02  0.14583893758E+02  0.00000000000E+00 0.  1.
         -3    1    6    6    0  503  0.18593439609E+01  0.78210686417E+01 -0.41363865041E+02  0.42137816813E+02  0.00000000000E+00 0.  1.
<mgrwt>
<rscale>  0 0.33181725E+04</rscale>
<asrwt>0</asrwt>
<pdfrwt beam="1">  1        2 0.25814327E+00 0.33181725E+04</pdfrwt>
<pdfrwt beam="2">  1       -2 0.25237737E+00 0.33181725E+04</pdfrwt>
<totfact> 0.52278337E-01</totfact>
</mgrwt>
</event>
<event>
12    1  0.4820219E-008  0.2047844E+04  0.7818608E-02  0.8584573E-01
         -1   -1    0    0    0  501 -0.00000000000E+00  0.00000000000E+00  0.75748993900E+03  0.75748993900E+03  0.00000000000E+00 0.  1.
          1   -1    0    0  501    0  0.00000000000E+00 -0.00000000000E+00 -0.13840662012E+04  0.13840662012E+04  0.00000000000E+00 0. -1.
         23    2    1    2    0    0  0.50891192896E+03 -0.16358735228E+02  0.42765437298E+03  0.67114331633E+03  0.91028175130E+02 0.  0.
        254    2    1    2    0    0 -0.50891192896E+03  0.16358735228E+02 -0.10542306352E+04  0.14704128239E+04  0.88963626320E+03 0.  0.
         23    2    4    4    0    0 -0.47229130672E+03  0.34399149233E+03 -0.34868302904E+03  0.68696233518E+03  0.94594767355E+02 0.  0.
         23    2    4    4    0    0 -0.36620622235E+02 -0.32763275710E+03 -0.70554760616E+03  0.78345048871E+03  0.85515789225E+02 0.  0.
         11    1    3    3    0    0  0.25205654752E+01 -0.63092871001E+00  0.21902659625E+02  0.22056242200E+02  0.00000000000E+00 0. -1.
        -11    1    3    3    0    0  0.50639136348E+03 -0.15727806518E+02  0.40575171336E+03  0.64908707413E+03  0.00000000000E+00 0.  1.
          4    1    6    6  502    0 -0.25299241847E+02 -0.75968156511E+02 -0.25476355409E+03  0.26704995962E+03  0.00000000000E+00 0. -1.
          4    1    5    5  503    0 -0.61279785217E+02  0.82211022069E+02 -0.83149995382E+02  0.13201433997E+03  0.00000000000E+00 0. -1.
         -4    1    5    5    0  503 -0.41101152151E+03  0.26178047026E+03 -0.26553303366E+03  0.55494799521E+03  0.00000000000E+00 0.  1.
         -4    1    6    6    0  502 -0.11321380388E+02 -0.25166460059E+03 -0.45078405208E+03  0.51640052909E+03  0.00000000000E+00 0.  1.
<mgrwt>
<rscale>  0 0.20478440E+04</rscale>
<asrwt>0</asrwt>
<pdfrwt beam="1">  1        1 0.21293326E+00 0.20478440E+04</pdfrwt>
<pdfrwt beam="2">  1       -1 0.11653691E+00 0.20478440E+04</pdfrwt>
<totfact> 0.48421991E+00</totfact>
</mgrwt>
</event>
<event>
12    1  0.4820219E-008  0.2062886E+04  0.7818608E-02  0.8577771E-01
         -2   -1    0    0    0  501 -0.00000000000E+00  0.00000000000E+00  0.65020784815E+03  0.65020784815E+03  0.00000000000E+00 0.  1.
          2   -1    0    0  501    0  0.00000000000E+00 -0.00000000000E+00 -0.16362074170E+04  0.16362074170E+04  0.00000000000E+00 0. -1.
         23    2    1    2    0    0 -0.29143896828E+03  0.27242008124E+02 -0.12545634677E+04  0.12919356068E+04  0.97413132574E+02 0.  0.
        254    2    1    2    0    0  0.29143896828E+03 -0.27242008124E+02  0.26856389884E+03  0.99447965837E+03  0.91169316325E+03 0.  0.
         23    2    4    4    0    0  0.22977875601E+03  0.20975988358E+03  0.53237517001E+03  0.62326609814E+03  0.90773465159E+02 0.  0.
         23    2    4    4    0    0  0.61660212274E+02 -0.23700189170E+03 -0.26381127118E+03  0.37121356022E+03  0.90726192731E+02 0.  0.
         11    1    3    3    0    0  0.20931290052E+00  0.13094049553E+02 -0.10736097479E+03  0.10815672357E+03  0.00000000000E+00 0.  1.
        -11    1    3    3    0    0 -0.29164828119E+03  0.14147958571E+02 -0.11472024929E+04  0.11837788832E+04  0.00000000000E+00 0. -1.
          3    1    5    5  502    0  0.14704900630E+03  0.74389946241E+02  0.25147474259E+03  0.30066064012E+03  0.00000000000E+00 0. -1.
          3    1    6    6  503    0  0.23363437734E+02 -0.84725282464E+02 -0.16131464622E+03  0.18370258245E+03  0.00000000000E+00 0. -1.
         -3    1    5    5    0  502  0.82729749710E+02  0.13536993733E+03  0.28090042742E+03  0.32260545802E+03  0.00000000000E+00 0.  1.
         -3    1    6    6    0  503  0.38296774540E+02 -0.15227660923E+03 -0.10249662495E+03  0.18751097778E+03  0.00000000000E+00 0.  1.
<mgrwt>
<rscale>  0 0.20628862E+04</rscale>
<asrwt>0</asrwt>
<pdfrwt beam="1">  1        2 0.25172422E+00 0.20628862E+04</pdfrwt>
<pdfrwt beam="2">  1       -2 0.10003198E+00 0.20628862E+04</pdfrwt>
<totfact> 0.81211886E+00</totfact>
</mgrwt>
</event>
<event>
12    1  0.4820219E-008  0.1415661E+04  0.7818608E-02  0.8942560E-01
         -2   -1    0    0    0  501 -0.00000000000E+00  0.00000000000E+00  0.46662831072E+03  0.46662831072E+03  0.00000000000E+00 0. -1.
          2   -1    0    0  501    0  0.00000000000E+00 -0.00000000000E+00 -0.10737110808E+04  0.10737110808E+04  0.00000000000E+00 0.  1.
         23    2    1    2    0    0 -0.63600283874E+01  0.40981958635E+03 -0.10847450233E+03  0.43382550235E+03  0.91898343373E+02 0.  0.
        254    2    1    2    0    0  0.63600283874E+01 -0.40981958635E+03 -0.49860826770E+03  0.11065138891E+04  0.89876039014E+03 0.  0.
         23    2    4    4    0    0  0.24792657056E+03 -0.40324396424E+03 -0.64811163776E+03  0.80759969728E+03  0.89973868227E+02 0.  0.
         23    2    4    4    0    0 -0.24156654217E+03 -0.65756221109E+01  0.14950337005E+03  0.29891419184E+03  0.92740516091E+02 0.  0.
         11    1    3    3    0    0 -0.13489520975E+02  0.27959227450E+03 -0.29771097386E+02  0.28149622621E+03  0.00000000000E+00 0. -1.
        -11    1    3    3    0    0  0.71294925877E+01  0.13022731186E+03 -0.78703404946E+02  0.15232927614E+03  0.00000000000E+00 0.  1.
          2    1    5    5  502    0  0.25291088816E+03 -0.39801528256E+03 -0.62227894608E+03  0.78077600452E+03  0.00000000000E+00 0. -1.
          3    1    6    6  503    0 -0.22904266270E+03 -0.30401606456E+02  0.12596920063E+03  0.26315972055E+03  0.00000000000E+00 0. -1.
         -2    1    5    5    0  502 -0.49843175993E+01 -0.52286816869E+01 -0.25832691677E+02  0.26823692762E+02  0.00000000000E+00 0.  1.
         -3    1    6    6    0  503 -0.12523879469E+02  0.23825984346E+02  0.23534169418E+02  0.35754471289E+02  0.00000000000E+00 0.  1.
<mgrwt>
<rscale>  0 0.14156610E+04</rscale>
<asrwt>0</asrwt>
<pdfrwt beam="1">  1        2 0.16518632E+00 0.14156610E+04</pdfrwt>
<pdfrwt beam="2">  1       -2 0.71788972E-01 0.14156610E+04</pdfrwt>
<totfact> 0.38688063E+01</totfact>
</mgrwt>
</event>
<event>
12    1  0.4820219E-008  0.1834477E+04  0.7818608E-02  0.8688177E-01
          1   -1    0    0  501    0  0.00000000000E+00  0.00000000000E+00  0.16647189385E+04  0.16647189385E+04  0.00000000000E+00 0. -1.
         -1   -1    0    0    0  501 -0.00000000000E+00 -0.00000000000E+00 -0.50538675687E+03  0.50538675687E+03  0.00000000000E+00 0.  1.
         23    2    1    2    0    0  0.59976094737E+03 -0.23028592959E+03  0.74625965762E+03  0.98866216983E+03  0.88343681704E+02 0.  0.
        254    2    1    2    0    0 -0.59976094737E+03  0.23028592959E+03  0.41307252398E+03  0.11814435255E+04  0.90135181287E+03 0.  0.
         23    2    4    4    0    0 -0.79471468429E+03  0.26146275519E+03  0.17652679720E+03  0.85986475889E+03  0.90947741413E+02 0.  0.
         23    2    4    4    0    0  0.19495373692E+03 -0.31176825602E+02  0.23654572678E+03  0.32157876663E+03  0.92087286267E+02 0.  0.
         13    1    3    3    0    0  0.52912713279E+02 -0.17438050882E+02  0.31946920716E+02  0.64221854445E+02  0.00000000000E+00 0.  1.
        -13    1    3    3    0    0  0.54684823409E+03 -0.21284787870E+03  0.71431273690E+03  0.92444031538E+03  0.00000000000E+00 0. -1.
          3    1    6    6  502    0  0.14512349754E+02  0.11163279579E+02 -0.31560485816E+01  0.18579228967E+02  0.00000000000E+00 0. -1.
          3    1    5    5  503    0 -0.88420370599E+02  0.81094467247E+01 -0.97316636116E+00  0.88796802397E+02  0.00000000000E+00 0. -1.
         -3    1    5    5    0  503 -0.70629431370E+03  0.25335330846E+03  0.17749996356E+03  0.77106795649E+03  0.00000000000E+00 0.  1.
         -3    1    6    6    0  502  0.18044138717E+03 -0.42340105182E+02  0.23970177536E+03  0.30299953766E+03  0.00000000000E+00 0.  1.
<mgrwt>
<rscale>  0 0.18344775E+04</rscale>
<asrwt>0</asrwt>
<pdfrwt beam="1">  1        1 0.25611060E+00 0.18344775E+04</pdfrwt>
<pdfrwt beam="2">  1       -1 0.77751810E-01 0.18344775E+04</pdfrwt>
<totfact> 0.78549104E+00</totfact>
</mgrwt>
</event>
<event>
12    1  0.4820219E-008  0.1466167E+04  0.7818608E-02  0.8907268E-01
          2   -1    0    0  501    0  0.00000000000E+00  0.00000000000E+00  0.18252779309E+04  0.18252779309E+04  0.00000000000E+00 0.  1.
         -2   -1    0    0    0  501 -0.00000000000E+00 -0.00000000000E+00 -0.29442732645E+03  0.29442732645E+03  0.00000000000E+00 0. -1.
         23    2    1    2    0    0 -0.14854689900E+03  0.41244723936E+03  0.14972477415E+03  0.47195072386E+03  0.90227885396E+02 0.  0.
        254    2    1    2    0    0  0.14854689900E+03 -0.41244723936E+03  0.13811258303E+04  0.16477545335E+04  0.78447915017E+03 0.  0.
         23    2    4    4    0    0  0.24638907014E+03 -0.14537812840E+03  0.13071853735E+04  0.13413984872E+04  0.93669241242E+02 0.  0.
         23    2    4    4    0    0 -0.97842171138E+02 -0.26706911096E+03  0.73940456838E+02  0.30635604629E+03  0.86532279870E+02 0.  0.
         13    1    3    3    0    0 -0.14825195931E+03  0.40137558322E+03  0.12644710644E+03  0.44617246998E+03  0.00000000000E+00 0. -1.
        -13    1    3    3    0    0 -0.29493969003E+00  0.11071656142E+02  0.23277667711E+02  0.25778253882E+02  0.00000000000E+00 0.  1.
          4    1    5    5  502    0  0.90395383533E+02 -0.24938803185E+02  0.27446981071E+03  0.29004645535E+03  0.00000000000E+00 0. -1.
          1    1    6    6  503    0 -0.57884694969E+01 -0.36273660982E+02  0.42061601976E+02  0.55843202101E+02  0.00000000000E+00 0. -1.
         -4    1    5    5    0  502  0.15599368660E+03 -0.12043932522E+03  0.10327155628E+04  0.10513520319E+04  0.00000000000E+00 0.  1.
         -1    1    6    6    0  503 -0.92053701641E+02 -0.23079544998E+03  0.31878854862E+02  0.25051284419E+03  0.00000000000E+00 0.  1.
<mgrwt>
<rscale>  0 0.14661674E+04</rscale>
<asrwt>0</asrwt>
<pdfrwt beam="1">  1        2 0.28081198E+00 0.14661674E+04</pdfrwt>
<pdfrwt beam="2">  1       -2 0.45296513E-01 0.14661674E+04</pdfrwt>
<totfact> 0.37403565E+01</totfact>
</mgrwt>
</event>
<event>
12    1  0.4820219E-008  0.2187401E+04  0.7818608E-02  0.8523691E-01
          2   -1    0    0  501    0  0.00000000000E+00  0.00000000000E+00  0.25945333596E+04  0.25945333596E+04  0.00000000000E+00 0. -1.
         -2   -1    0    0    0  501 -0.00000000000E+00 -0.00000000000E+00 -0.46103878146E+03  0.46103878146E+03  0.00000000000E+00 0.  1.
         23    2    1    2    0    0 -0.49983982598E+03 -0.33795593697E+03 -0.38182972636E+02  0.61119241659E+03  0.89689262033E+02 0.  0.
        254    2    1    2    0    0  0.49983982598E+03  0.33795593697E+03  0.21716775508E+04  0.24443797245E+04  0.94591478787E+03 0.  0.
         23    2    4    4    0    0  0.71236733015E+03  0.69628827071E+02  0.11062182133E+04  0.13206292544E+04  0.89596348286E+02 0.  0.
         23    2    4    4    0    0 -0.21252750417E+03  0.26832710990E+03  0.10654593375E+04  0.11237504700E+04  0.10219658091E+03 0.  0.
         13    1    3    3    0    0 -0.29017662444E+02 -0.64954953735E+01  0.14329052165E+02  0.33008149445E+02  0.00000000000E+00 0. -1.
        -13    1    3    3    0    0 -0.47082216354E+03 -0.33146044160E+03 -0.52512024801E+02  0.57818426714E+03  0.00000000000E+00 0.  1.
          1    1    5    5  502    0  0.18185940342E+03  0.54057221047E+02  0.32081514342E+03  0.37271622182E+03  0.00000000000E+00 0. -1.
          3    1    6    6  503    0  0.49084271183E+01  0.45759603902E+02  0.14400692053E+03  0.15118209936E+03  0.00000000000E+00 0. -1.
         -1    1    5    5    0  502  0.53050792674E+03  0.15571606024E+02  0.78540306987E+03  0.94791303262E+03  0.00000000000E+00 0.  1.
         -3    1    6    6    0  503 -0.21743593129E+03  0.22256750600E+03  0.92145241694E+03  0.97256837067E+03  0.00000000000E+00 0.  1.
<mgrwt>
<rscale>  0 0.21874007E+04</rscale>
<asrwt>0</asrwt>
<pdfrwt beam="1">  1        2 0.39915897E+00 0.21874007E+04</pdfrwt>
<pdfrwt beam="2">  1       -2 0.70929045E-01 0.21874007E+04</pdfrwt>
<totfact> 0.50675692E+00</totfact>
</mgrwt>
</event>
<event>
12    1  0.4820219E-008  0.2231510E+04  0.7818608E-02  0.8505426E-01
          1   -1    0    0  501    0  0.00000000000E+00  0.00000000000E+00  0.20741145452E+04  0.20741145452E+04  0.00000000000E+00 0. -1.
         -1   -1    0    0    0  501 -0.00000000000E+00 -0.00000000000E+00 -0.60021257324E+03  0.60021257324E+03  0.00000000000E+00 0.  1.
         23    2    1    2    0    0  0.91056924018E+03  0.13966468383E+03  0.78094951997E+03  0.12111555966E+04  0.91504980400E+02 0.  0.
        254    2    1    2    0    0 -0.91056924018E+03 -0.13966468383E+03  0.69295245201E+03  0.14631715218E+04  0.90113552612E+03 0.  0.
         23    2    4    4    0    0 -0.87568259879E+03 -0.10940491134E+03  0.88102487017E+03  0.12502768007E+04  0.90541747193E+02 0.  0.
         23    2    4    4    0    0 -0.34886641393E+02 -0.30259772496E+02 -0.18807241816E+03  0.21289472115E+03  0.88431873461E+02 0.  0.
         11    1    3    3    0    0  0.88825362151E+03  0.14951030393E+03  0.76696604446E+03  0.11830404644E+04  0.00000000000E+00 0. -1.
        -11    1    3    3    0    0  0.22315618675E+02 -0.98456200971E+01  0.13983475505E+02  0.28115132210E+02  0.00000000000E+00 0.  1.
          1    1    5    5  502    0 -0.24958908053E+03 -0.51714574936E+02  0.20538467965E+03  0.32734075978E+03  0.00000000000E+00 0. -1.
          3    1    6    6  503    0 -0.26353211902E+02 -0.41065846622E+02 -0.37102967255E+02  0.61298659981E+02  0.00000000000E+00 0. -1.
         -1    1    5    5    0  502 -0.62609351826E+03 -0.57690336400E+02  0.67564019051E+03  0.92293604088E+03  0.00000000000E+00 0.  1.
         -3    1    6    6    0  503 -0.85334294917E+01  0.10806074126E+02 -0.15096945090E+03  0.15159606117E+03  0.00000000000E+00 0.  1.
<mgrwt>
<rscale>  0 0.22315104E+04</rscale>
<asrwt>0</asrwt>
<pdfrwt beam="1">  1        1 0.31909454E+00 0.22315104E+04</pdfrwt>
<pdfrwt beam="2">  1       -1 0.92340397E-01 0.22315104E+04</pdfrwt>
<totfact> 0.27527661E+00</totfact>
</mgrwt>
</event>
<event>
12    1  0.4820219E-008  0.1746217E+04  0.7818608E-02  0.8735436E-01
          2   -1    0    0  501    0  0.00000000000E+00  0.00000000000E+00  0.18944460027E+04  0.18944460027E+04  0.00000000000E+00 0.  1.
         -2   -1    0    0    0  501 -0.00000000000E+00 -0.00000000000E+00 -0.40239631573E+03  0.40239631573E+03  0.00000000000E+00 0. -1.
         23    2    1    2    0    0 -0.15457897815E+03  0.59475553700E+03  0.42353009110E+03  0.75185711874E+03  0.91008679010E+02 0.  0.
        254    2    1    2    0    0  0.15457897815E+03 -0.59475553700E+03  0.10685195959E+04  0.15449851997E+04  0.93145924828E+03 0.  0.
         23    2    4    4    0    0 -0.24741736152E+02 -0.79118823349E+03  0.94961042622E+03  0.12397796819E+04  0.93288390456E+02 0.  0.
         23    2    4    4    0    0  0.17932071430E+03  0.19643269649E+03  0.11890916965E+03  0.30520551776E+03  0.90935661963E+02 0.  0.
         13    1    3    3    0    0 -0.14897505030E+03  0.44914275612E+03  0.35040588960E+03  0.58881836627E+03  0.00000000000E+00 0. -1.
        -13    1    3    3    0    0 -0.56039278449E+01  0.14561278088E+03  0.73124201505E+02  0.16303875248E+03  0.00000000000E+00 0.  1.
          1    1    5    5  502    0 -0.54999224719E+01 -0.74222970670E+03  0.86142486745E+03  0.11370962971E+04  0.00000000000E+00 0. -1.
          3    1    6    6  503    0  0.32198930842E+02  0.66143717519E+02 -0.35557572165E+01  0.73650566352E+02  0.00000000000E+00 0. -1.
         -1    1    5    5    0  502 -0.19241813681E+02 -0.48958526796E+02  0.88185558772E+02  0.10268338481E+03  0.00000000000E+00 0.  1.
         -3    1    6    6    0  503  0.14712178346E+03  0.13028897897E+03  0.12246492687E+03  0.23155495141E+03  0.00000000000E+00 0.  1.
<mgrwt>
<rscale>  0 0.17462166E+04</rscale>
<asrwt>0</asrwt>
<pdfrwt beam="1">  1        2 0.29145323E+00 0.17462166E+04</pdfrwt>
<pdfrwt beam="2">  1       -2 0.61907127E-01 0.17462166E+04</pdfrwt>
<totfact> 0.17570462E+01</totfact>
</mgrwt>
</event>
<event>
12    1  0.4820219E-008  0.1570936E+04  0.7818608E-02  0.8838605E-01
         -1   -1    0    0    0  501 -0.00000000000E+00  0.00000000000E+00  0.47533648213E+03  0.47533648213E+03  0.00000000000E+00 0.  1.
          1   -1    0    0  501    0  0.00000000000E+00 -0.00000000000E+00 -0.12979436942E+04  0.12979436942E+04  0.00000000000E+00 0. -1.
         23    2    1    2    0    0  0.35756791458E+03  0.25554580040E+03 -0.57496023244E+03  0.72923053599E+03  0.89662902531E+02 0.  0.
        254    2    1    2    0    0 -0.35756791458E+03 -0.25554580040E+03 -0.24764697960E+03  0.10440496403E+04  0.91408542012E+03 0.  0.
         23    2    4    4    0    0 -0.45086938790E+03 -0.51461204781E+03 -0.29397953312E+03  0.75036288350E+03  0.92259017688E+02 0.  0.
         23    2    4    4    0    0  0.93301473328E+02  0.25906624741E+03  0.46332553517E+02  0.29368675680E+03  0.91020438001E+02 0.  0.
         13    1    3    3    0    0  0.13432885835E+03  0.13509749160E+03 -0.19709897080E+03  0.27412329109E+03  0.00000000000E+00 0.  1.
        -13    1    3    3    0    0  0.22323905622E+03  0.12044830880E+03 -0.37786126164E+03  0.45510724490E+03  0.00000000000E+00 0. -1.
          2    1    5    5  502    0 -0.10108125047E+03 -0.17796541628E+03 -0.78240846450E+02  0.21911352911E+03  0.00000000000E+00 0. -1.
          2    1    6    6  503    0  0.21032822712E+02  0.33107582038E+01 -0.73970470203E+01  0.22540121023E+02  0.00000000000E+00 0. -1.
         -2    1    5    5    0  502 -0.34978813744E+03 -0.33664663153E+03 -0.21573868667E+03  0.53124935439E+03  0.00000000000E+00 0.  1.
         -2    1    6    6    0  503  0.72268650616E+02  0.25575548921E+03  0.53729600537E+02  0.27114663578E+03  0.00000000000E+00 0.  1.
<mgrwt>
<rscale>  0 0.15709360E+04</rscale>
<asrwt>0</asrwt>
<pdfrwt beam="1">  1        1 0.19968364E+00 0.15709360E+04</pdfrwt>
<pdfrwt beam="2">  1       -1 0.73128690E-01 0.15709360E+04</pdfrwt>
<totfact> 0.16453774E+01</totfact>
</mgrwt>
</event>
<event>
12    1  0.4820219E-008  0.2014638E+04  0.7818608E-02  0.8599807E-01
         -1   -1    0    0    0  501 -0.00000000000E+00  0.00000000000E+00  0.16618966900E+04  0.16618966900E+04  0.00000000000E+00 0.  1.
          1   -1    0    0  501    0  0.00000000000E+00 -0.00000000000E+00 -0.61056235324E+03  0.61056235324E+03  0.00000000000E+00 0. -1.
         23    2    1    2    0    0 -0.58629963855E+03  0.48766389021E+03  0.71082366811E+03  0.10460896150E+04  0.86428349396E+02 0.  0.
        254    2    1    2    0    0  0.58629963855E+03 -0.48766389021E+03  0.34051066862E+03  0.12263694282E+04  0.89803737278E+03 0.  0.
         23    2    4    4    0    0 -0.14791815096E+03  0.51799847274E+02 -0.10390194279E+03  0.20866287017E+03  0.90452065279E+02 0.  0.
         23    2    4    4    0    0  0.73421778951E+03 -0.53946373748E+03  0.44441261140E+03  0.10177065580E+04  0.90150887464E+02 0.  0.
         11    1    3    3    0    0 -0.56500053325E+02  0.21181204896E+02  0.73059063647E+02  0.94755085602E+02  0.00000000000E+00 0. -1.
        -11    1    3    3    0    0 -0.52979958523E+03  0.46648268531E+03  0.63776460446E+03  0.95133452944E+03  0.00000000000E+00 0.  1.
          2    1    5    5  502    0 -0.86053058022E+02  0.62548731054E+02 -0.99587580352E+02  0.14572288328E+03  0.00000000000E+00 0.  1.
          1    1    6    6  503    0  0.28076153281E+03 -0.21963269703E+03  0.12683444253E+03  0.37835503925E+03  0.00000000000E+00 0. -1.
         -2    1    5    5    0  502 -0.61865092938E+02 -0.10748883781E+02 -0.43143624338E+01  0.62939986892E+02  0.00000000000E+00 0. -1.
         -1    1    6    6    0  503  0.45345625670E+03 -0.31983104046E+03  0.31757816887E+03  0.63935151874E+03  0.00000000000E+00 0.  1.
<mgrwt>
<rscale>  0 0.20146380E+04</rscale>
<asrwt>0</asrwt>
<pdfrwt beam="1">  1        1 0.93932670E-01 0.20146380E+04</pdfrwt>
<pdfrwt beam="2">  1       -1 0.25567641E+00 0.20146380E+04</pdfrwt>
<totfact> 0.19805928E+00</totfact>
</mgrwt>
</event>
<event>
12    1  0.4820219E-008  0.2977003E+04  0.7818608E-02  0.8250328E-01
          2   -1    0    0  501    0  0.00000000000E+00  0.00000000000E+00  0.19999715336E+04  0.19999715336E+04  0.00000000000E+00 0. -1.
         -2   -1    0    0    0  501 -0.00000000000E+00 -0.00000000000E+00 -0.11078340819E+04  0.11078340819E+04  0.00000000000E+00 0.  1.
         23    2    1    2    0    0 -0.11023569236E+03  0.11456849202E+03  0.18049166787E+04  0.18141878964E+04  0.90970650125E+02 0.  0.
        254    2    1    2    0    0  0.11023569236E+03 -0.11456849202E+03 -0.91277922699E+03  0.12936177191E+04  0.90277518720E+03 0.  0.
         23    2    4    4    0    0 -0.53140634704E+02  0.27979305691E+03 -0.78357462107E+03  0.83856199603E+03  0.89938604855E+02 0.  0.
         23    2    4    4    0    0  0.16337632707E+03 -0.39436154893E+03 -0.12920460591E+03  0.45505572303E+03  0.90382660693E+02 0.  0.
         13    1    3    3    0    0  0.15187489318E+02  0.39988338149E+01  0.12955988910E+03  0.13050829616E+03  0.00000000000E+00 0.  1.
        -13    1    3    3    0    0 -0.12542318168E+03  0.11056965821E+03  0.16753567896E+04  0.16836796003E+04  0.00000000000E+00 0. -1.
          4    1    5    5  502    0 -0.82578659133E+01  0.61479931909E+01 -0.10514852508E+03  0.10565132510E+03  0.00000000000E+00 0. -1.
          3    1    6    6  503    0  0.12710252908E+02  0.13530186402E+01 -0.56139080456E+01  0.13960557008E+02  0.00000000000E+00 0. -1.
         -4    1    5    5    0  502 -0.44882768790E+02  0.27364506372E+03 -0.67842609600E+03  0.73291067093E+03  0.00000000000E+00 0.  1.
         -3    1    6    6    0  503  0.15066607416E+03 -0.39571456757E+03 -0.12359069787E+03  0.44109516603E+03  0.00000000000E+00 0.  1.
<mgrwt>
<rscale>  0 0.29770029E+04</rscale>
<asrwt>0</asrwt>
<pdfrwt beam="1">  1        2 0.30768793E+00 0.29770029E+04</pdfrwt>
<pdfrwt beam="2">  1       -2 0.17043601E+00 0.29770029E+04</pdfrwt>
<totfact> 0.12127135E+00</totfact>
</mgrwt>
</event>
<event>
12    1  0.4820219E-008  0.2110116E+04  0.7818608E-02  0.8556800E-01
         -1   -1    0    0    0  501 -0.00000000000E+00  0.00000000000E+00  0.58760306067E+03  0.58760306067E+03  0.00000000000E+00 0.  1.
          1   -1    0    0  501    0  0.00000000000E+00 -0.00000000000E+00 -0.18943873968E+04  0.18943873968E+04  0.00000000000E+00 0. -1.
         23    2    1    2    0    0 -0.10511047096E+03  0.47439235351E+03  0.29819117038E+03  0.57763704098E+03  0.93006778491E+02 0.  0.
        254    2    1    2    0    0  0.10511047096E+03 -0.47439235351E+03 -0.16049755065E+04  0.19043534165E+04  0.90250719786E+03 0.  0.
         23    2    4    4    0    0  0.42101137831E+02  0.17608059828E+03 -0.96052096042E+03  0.98216029637E+03  0.96236424783E+02 0.  0.
         23    2    4    4    0    0  0.63009333134E+02 -0.65047295179E+03 -0.64445454609E+03  0.92219312011E+03  0.89628409202E+02 0.  0.
         11    1    3    3    0    0 -0.44343487019E+02  0.28979299479E+03  0.13030908661E+03  0.32082204214E+03  0.00000000000E+00 0. -1.
        -11    1    3    3    0    0 -0.60766983946E+02  0.18459935872E+03  0.16788208377E+03  0.25681499884E+03  0.00000000000E+00 0.  1.
          1    1    5    5  502    0  0.54607653412E+01 -0.12108621294E+02 -0.58453574800E+02  0.59943799301E+02  0.00000000000E+00 0. -1.
          3    1    6    6  503    0  0.61229301951E+02 -0.52988179959E+03 -0.47530012481E+03  0.71444660934E+03  0.00000000000E+00 0. -1.
         -1    1    5    5    0  502  0.36640372489E+02  0.18818921958E+03 -0.90206738562E+03  0.92221649707E+03  0.00000000000E+00 0.  1.
         -3    1    6    6    0  503  0.17800311835E+01 -0.12059115220E+03 -0.16915442128E+03  0.20774651077E+03  0.00000000000E+00 0.  1.
<mgrwt>
<rscale>  0 0.21101164E+04</rscale>
<asrwt>0</asrwt>
<pdfrwt beam="1">  1        1 0.29144422E+00 0.21101164E+04</pdfrwt>
<pdfrwt beam="2">  1       -1 0.90400470E-01 0.21101164E+04</pdfrwt>
<totfact> 0.38625818E+00</totfact>
</mgrwt>
</event>
<event>
12    1  0.4820219E-008  0.2756557E+04  0.7818608E-02  0.8316884E-01
         -2   -1    0    0    0  501 -0.00000000000E+00  0.00000000000E+00  0.66259785323E+03  0.66259785323E+03  0.00000000000E+00 0.  1.
          2   -1    0    0  501    0  0.00000000000E+00 -0.00000000000E+00 -0.28669761999E+04  0.28669761999E+04  0.00000000000E+00 0. -1.
         23    2    1    2    0    0 -0.44329448816E+03  0.11349053433E+04 -0.12167928957E+04  0.17242948762E+04  0.89931794187E+02 0.  0.
        254    2    1    2    0    0  0.44329448816E+03 -0.11349053433E+04 -0.98758545102E+03  0.18052791769E+04  0.89397300965E+03 0.  0.
         23    2    4    4    0    0 -0.22314003029E+03 -0.47091364107E+03 -0.55205920081E+03  0.76458624191E+03  0.90948500017E+02 0.  0.
         23    2    4    4    0    0  0.66643451845E+03 -0.66399170228E+03 -0.43552625021E+03  0.10406929350E+04  0.91316604713E+02 0.  0.
         13    1    3    3    0    0 -0.52344707625E+02  0.11267060863E+03 -0.89489574923E+02  0.15311113116E+03  0.00000000000E+00 0.  1.
        -13    1    3    3    0    0 -0.39094978053E+03  0.10222347347E+04 -0.11273033208E+04  0.15711837451E+04  0.00000000000E+00 0. -1.
          2    1    5    5  502    0 -0.10763911689E+00  0.39207634147E+01 -0.17677781146E+01  0.43022100595E+01  0.00000000000E+00 0. -1.
          3    1    6    6  503    0  0.46386136366E+03 -0.42265777790E+03 -0.25349270662E+03  0.67680537397E+03  0.00000000000E+00 0. -1.
         -2    1    5    5    0  502 -0.22303239117E+03 -0.47483440449E+03 -0.55029142269E+03  0.76028403185E+03  0.00000000000E+00 0.  1.
         -3    1    6    6    0  503  0.20257315479E+03 -0.24133392438E+03 -0.18203354359E+03  0.36388756105E+03  0.00000000000E+00 0.  1.
<mgrwt>
<rscale>  0 0.27565575E+04</rscale>
<asrwt>0</asrwt>
<pdfrwt beam="1">  1        2 0.44107326E+00 0.27565575E+04</pdfrwt>
<pdfrwt beam="2">  1       -2 0.10193813E+00 0.27565575E+04</pdfrwt>
<totfact> 0.14500560E+00</totfact>
</mgrwt>
</event>
<event>
12    1  0.4820219E-008  0.1817362E+04  0.7818608E-02  0.8697121E-01
         -1   -1    0    0    0  501 -0.00000000000E+00  0.00000000000E+00  0.62394024635E+03  0.62394024635E+03  0.00000000000E+00 0.  1.
          1   -1    0    0  501    0  0.00000000000E+00 -0.00000000000E+00 -0.13233651730E+04  0.13233651730E+04  0.00000000000E+00 0. -1.
         23    2    1    2    0    0 -0.49997448400E+03 -0.93122614072E+02 -0.73922039347E+03  0.90266178860E+03  0.98515017000E+02 0.  0.
        254    2    1    2    0    0  0.49997448400E+03  0.93122614072E+02  0.39795466791E+02  0.10446436308E+04  0.91161961928E+03 0.  0.
         23    2    4    4    0    0  0.18942181555E+03 -0.34745687509E+03 -0.19326103742E+03  0.45001710822E+03  0.92513052352E+02 0.  0.
         23    2    4    4    0    0  0.31055266845E+03  0.44057948916E+03  0.23305650421E+03  0.59462652256E+03  0.93338743462E+02 0.  0.
         13    1    3    3    0    0  0.30273174987E+01  0.28258877074E+01 -0.15887465974E+02  0.16418339370E+02  0.00000000000E+00 0.  1.
        -13    1    3    3    0    0 -0.50300180150E+03 -0.95948501780E+02 -0.72333292750E+03  0.88624344923E+03  0.00000000000E+00 0. -1.
          2    1    5    5  502    0  0.15762085894E+03 -0.26665471978E+03 -0.10725779823E+03  0.32780071695E+03  0.00000000000E+00 0. -1.
          4    1    6    6  503    0  0.31345143563E+03  0.44282840888E+03  0.23398036311E+03  0.59084313700E+03  0.00000000000E+00 0. -1.
         -2    1    5    5    0  502  0.31800956612E+02 -0.80802155306E+02 -0.86003239188E+02  0.12221639127E+03  0.00000000000E+00 0.  1.
         -4    1    6    6    0  503 -0.28987671772E+01 -0.22489197267E+01 -0.92385889989E+00  0.37833855674E+01  0.00000000000E+00 0.  1.
<mgrwt>
<rscale>  0 0.18173616E+04</rscale>
<asrwt>0</asrwt>
<pdfrwt beam="1">  1        1 0.20359464E+00 0.18173616E+04</pdfrwt>
<pdfrwt beam="2">  1       -1 0.95990808E-01 0.18173616E+04</pdfrwt>
<totfact> 0.85794593E+00</totfact>
</mgrwt>
</event>
<event>
12    1  0.4820219E-008  0.2650514E+04  0.7818608E-02  0.8351243E-01
          2   -1    0    0  501    0  0.00000000000E+00  0.00000000000E+00  0.34889095473E+04  0.34889095473E+04  0.00000000000E+00 0.  1.
         -2   -1    0    0    0  501 -0.00000000000E+00 -0.00000000000E+00 -0.50339671583E+03  0.50339671583E+03  0.00000000000E+00 0. -1.
         23    2    1    2    0    0  0.18546564971E+01 -0.11154592134E+04  0.18457539593E+04  0.21585498924E+04  0.90979466048E+02 0.  0.
        254    2    1    2    0    0 -0.18546564971E+01  0.11154592134E+04  0.11397588722E+04  0.18337563708E+04  0.90518475680E+03 0.  0.
         23    2    4    4    0    0 -0.29652603210E+03  0.79722330979E+02  0.44908626342E+03  0.55150000133E+03  0.90501059102E+02 0.  0.
         23    2    4    4    0    0  0.29467137561E+03  0.10357368824E+04  0.69067260882E+03  0.12822563694E+04  0.87009396942E+02 0.  0.
         13    1    3    3    0    0  0.19008947554E+02 -0.20598306067E+03  0.40270848785E+03  0.45273003827E+03  0.00000000000E+00 0. -1.
        -13    1    3    3    0    0 -0.17154291056E+02 -0.90947615275E+03  0.14430454714E+04  0.17058198541E+04  0.00000000000E+00 0.  1.
          3    1    5    5  502    0 -0.49036059206E+02  0.47372151651E+00  0.27408600093E+02  0.56178206393E+02  0.00000000000E+00 0. -1.
          3    1    6    6  503    0  0.17634027576E+03  0.64906282866E+03  0.38169570592E+03  0.77334989515E+03  0.00000000000E+00 0.  1.
         -3    1    5    5    0  502 -0.24748997290E+03  0.79248609463E+02  0.42167766333E+03  0.49532179493E+03  0.00000000000E+00 0.  1.
         -3    1    6    6    0  503  0.11833109984E+03  0.38667405378E+03  0.30897690290E+03  0.50890647430E+03  0.00000000000E+00 0. -1.
<mgrwt>
<rscale>  0 0.26505136E+04</rscale>
<asrwt>0</asrwt>
<pdfrwt beam="1">  1        2 0.53675530E+00 0.26505136E+04</pdfrwt>
<pdfrwt beam="2">  1       -2 0.77445651E-01 0.26505136E+04</pdfrwt>
<totfact> 0.10843047E+00</totfact>
</mgrwt>
</event>
<event>
12    1  0.4820219E-008  0.1603891E+04  0.7818608E-02  0.8818161E-01
          1   -1    0    0  501    0  0.00000000000E+00  0.00000000000E+00  0.17761861053E+04  0.17761861053E+04  0.00000000000E+00 0. -1.
         -1   -1    0    0    0  501 -0.00000000000E+00 -0.00000000000E+00 -0.36207724873E+03  0.36207724873E+03  0.00000000000E+00 0.  1.
         23    2    1    2    0    0  0.27633496204E+03  0.41715514452E+03  0.76205506960E+03  0.91616444256E+03  0.90829130016E+02 0.  0.
        254    2    1    2    0    0 -0.27633496204E+03 -0.41715514452E+03  0.65205378697E+03  0.12220989115E+04  0.90441814582E+03 0.  0.
         23    2    4    4    0    0  0.30949314900E+03 -0.79829239540E+02  0.10525502421E+03  0.34809298173E+03  0.89058335076E+02 0.  0.
         23    2    4    4    0    0 -0.58582811103E+03 -0.33732590498E+03  0.54679876276E+03  0.87400592975E+03  0.88961432254E+02 0.  0.
         11    1    3    3    0    0  0.14591639627E+03  0.21453773705E+03  0.31310210309E+03  0.40663369546E+03  0.00000000000E+00 0. -1.
        -11    1    3    3    0    0  0.13041856577E+03  0.20261740747E+03  0.44895296650E+03  0.50953074710E+03  0.00000000000E+00 0.  1.
          4    1    5    5  502    0  0.11560521943E+02 -0.24347445916E+02 -0.94487006247E+00  0.26969178142E+02  0.00000000000E+00 0. -1.
          3    1    6    6  503    0 -0.96754564403E+02 -0.66177519889E+02  0.55767937790E+02  0.12981129672E+03  0.00000000000E+00 0. -1.
         -4    1    5    5    0  502  0.29793262705E+03 -0.55481793624E+02  0.10619989427E+03  0.32112380359E+03  0.00000000000E+00 0.  1.
         -3    1    6    6    0  503 -0.48907354663E+03 -0.27114838509E+03  0.49103082497E+03  0.74419463302E+03  0.00000000000E+00 0.  1.
<mgrwt>
<rscale>  0 0.16038910E+04</rscale>
<asrwt>0</asrwt>
<pdfrwt beam="1">  1        1 0.27325940E+00 0.16038910E+04</pdfrwt>
<pdfrwt beam="2">  1       -1 0.55704193E-01 0.16038910E+04</pdfrwt>
<totfact> 0.13222572E+01</totfact>
</mgrwt>
</event>
<event>
12    1  0.4820219E-008  0.1385201E+04  0.7818608E-02  0.8964601E-01
         -1   -1    0    0    0  501 -0.00000000000E+00  0.00000000000E+00  0.64709641591E+03  0.64709641591E+03  0.00000000000E+00 0.  1.
          1   -1    0    0  501    0  0.00000000000E+00 -0.00000000000E+00 -0.74130486486E+03  0.74130486486E+03  0.00000000000E+00 0. -1.
         23    2    1    2    0    0 -0.36151698689E+03  0.84580701219E+02 -0.12864148713E+03  0.40309162694E+03  0.89921080243E+02 0.  0.
        254    2    1    2    0    0  0.36151698689E+03 -0.84580701219E+02  0.34433038175E+02  0.98530965382E+03  0.91203127850E+03 0.  0.
         23    2    4    4    0    0  0.65138071614E+03  0.29987454819E+02  0.34515770606E+02  0.66096671159E+03  0.10241860478E+03 0.  0.
         23    2    4    4    0    0 -0.28986372924E+03 -0.11456815604E+03 -0.82732430922E-01  0.32434294224E+03  0.89730114367E+02 0.  0.
         11    1    3    3    0    0 -0.10669970627E+03  0.62919049615E+02 -0.21054311141E+02  0.12564600328E+03  0.00000000000E+00 0.  1.
        -11    1    3    3    0    0 -0.25481728062E+03  0.21661651603E+02 -0.10758717599E+03  0.27744562366E+03  0.00000000000E+00 0. -1.
          4    1    5    5  502    0 -0.20054157103E+00  0.38460227124E+01  0.73473960926E+01  0.82955612810E+01  0.00000000000E+00 0. -1.
          3    1    6    6  503    0 -0.28029070730E+03 -0.84531533301E+02  0.17368120872E+01  0.29276522546E+03  0.00000000000E+00 0.  1.
         -4    1    5    5    0  502  0.65158125771E+03  0.26141432107E+02  0.27168374513E+02  0.65267115031E+03  0.00000000000E+00 0.  1.
         -3    1    6    6    0  503 -0.95730219414E+01 -0.30036622736E+02 -0.18195445181E+01  0.31577716775E+02  0.00000000000E+00 0. -1.
<mgrwt>
<rscale>  0 0.13852014E+04</rscale>
<asrwt>0</asrwt>
<pdfrwt beam="1">  1        1 0.11404690E+00 0.13852014E+04</pdfrwt>
<pdfrwt beam="2">  1       -1 0.99553295E-01 0.13852014E+04</pdfrwt>
<totfact> 0.23456141E+01</totfact>
</mgrwt>
</event>
<event>
12    1  0.4820219E-008  0.3664249E+04  0.7818608E-02  0.8075931E-01
          2   -1    0    0  501    0  0.00000000000E+00  0.00000000000E+00  0.21082482940E+04  0.21082482940E+04  0.00000000000E+00 0. -1.
         -2   -1    0    0    0  501 -0.00000000000E+00 -0.00000000000E+00 -0.15921652638E+04  0.15921652638E+04  0.00000000000E+00 0.  1.
         23    2    1    2    0    0 -0.67936342192E+03 -0.24445056278E+02 -0.13449256785E+04  0.15085884165E+04  0.69869234271E+02 0.  0.
        254    2    1    2    0    0  0.67936342192E+03  0.24445056278E+02  0.18610087087E+04  0.21918251414E+04  0.93734295576E+03 0.  0.
         23    2    4    4    0    0 -0.57673058215E+02  0.33341537002E+03  0.49855869074E+03  0.60953721443E+03  0.92102426978E+02 0.  0.
         23    2    4    4    0    0  0.73703648013E+03 -0.30897031374E+03  0.13624500180E+04  0.15822879270E+04  0.93164395006E+02 0.  0.
         11    1    3    3    0    0 -0.54132547356E+02 -0.59401723764E+01 -0.15476888808E+03  0.16407018940E+03  0.00000000000E+00 0. -1.
        -11    1    3    3    0    0 -0.62523087456E+03 -0.18504883902E+02 -0.11901567904E+04  0.13445182271E+04  0.00000000000E+00 0.  1.
          3    1    5    5  502    0 -0.18518290961E+02  0.11154364552E+02  0.60906002731E+02  0.64628848956E+02  0.00000000000E+00 0. -1.
          3    1    6    6  503    0  0.32615034752E+03 -0.16158809166E+03  0.69943321329E+03  0.78847421037E+03  0.00000000000E+00 0. -1.
         -3    1    5    5    0  502 -0.39154767254E+02  0.32226100547E+03  0.43765268801E+03  0.54490836548E+03  0.00000000000E+00 0.  1.
         -3    1    6    6    0  503  0.41088613262E+03 -0.14738222208E+03  0.66301680467E+03  0.79381371659E+03  0.00000000000E+00 0.  1.
<mgrwt>
<rscale>  0 0.36642487E+04</rscale>
<asrwt>0</asrwt>
<pdfrwt beam="1">  1        2 0.32434589E+00 0.36642487E+04</pdfrwt>
<pdfrwt beam="2">  1       -2 0.24494850E+00 0.36642487E+04</pdfrwt>
<totfact> 0.32543624E-01</totfact>
</mgrwt>
</event>
<event>
12    1  0.4820219E-008  0.1752209E+04  0.7818608E-02  0.8732135E-01
          1   -1    0    0  501    0  0.00000000000E+00  0.00000000000E+00  0.37380367301E+04  0.37380367301E+04  0.00000000000E+00 0. -1.
         -1   -1    0    0    0  501 -0.00000000000E+00 -0.00000000000E+00 -0.20533759098E+03  0.20533759098E+03  0.00000000000E+00 0.  1.
         23    2    1    2    0    0 -0.35946473032E+03 -0.32958567489E+03  0.22967219048E+04  0.23494373630E+04  0.84159404799E+02 0.  0.
        254    2    1    2    0    0  0.35946473032E+03  0.32958567489E+03  0.12359772343E+04  0.15939369580E+04  0.88042813053E+03 0.  0.
         23    2    4    4    0    0 -0.27688143210E+03  0.13100778706E+03  0.53303365570E+03  0.62092190024E+03  0.87136446916E+02 0.  0.
         23    2    4    4    0    0  0.63634616242E+03  0.19857788782E+03  0.70294357861E+03  0.97301505779E+03  0.90879106589E+02 0.  0.
         11    1    3    3    0    0 -0.55230411318E+02 -0.19366662987E+02  0.21295906506E+03  0.22085522263E+03  0.00000000000E+00 0.  1.
        -11    1    3    3    0    0 -0.30423431900E+03 -0.31021901190E+03  0.20837628397E+04  0.21285821404E+04  0.00000000000E+00 0. -1.
          2    1    5    5  502    0 -0.23451818392E+03  0.79456118365E+02  0.37493946086E+03  0.44932355007E+03  0.00000000000E+00 0. -1.
          1    1    6    6  503    0  0.13329057854E+03  0.53579258427E+02  0.20629330659E+03  0.25138425489E+03  0.00000000000E+00 0. -1.
         -2    1    5    5    0  502 -0.42363248183E+02  0.51551668696E+02  0.15809419483E+03  0.17159835017E+03  0.00000000000E+00 0.  1.
         -1    1    6    6    0  503  0.50305558388E+03  0.14499862940E+03  0.49665027202E+03  0.72163080290E+03  0.00000000000E+00 0.  1.
<mgrwt>
<rscale>  0 0.17522094E+04</rscale>
<asrwt>0</asrwt>
<pdfrwt beam="1">  1        1 0.57508252E+00 0.17522094E+04</pdfrwt>
<pdfrwt beam="2">  1       -1 0.31590401E-01 0.17522094E+04</pdfrwt>
<totfact> 0.14302957E+00</totfact>
</mgrwt>
</event>
<event>
12    1  0.4820219E-008  0.1887107E+04  0.7818608E-02  0.8661301E-01
          1   -1    0    0  501    0  0.00000000000E+00  0.00000000000E+00  0.14095981413E+04  0.14095981413E+04  0.00000000000E+00 0. -1.
         -1   -1    0    0    0  501 -0.00000000000E+00 -0.00000000000E+00 -0.63159363462E+03  0.63159363462E+03  0.00000000000E+00 0.  1.
         23    2    1    2    0    0 -0.60015569040E+03  0.22352952371E+03 -0.67192439379E+02  0.65031319956E+03  0.90775177905E+02 0.  0.
        254    2    1    2    0    0  0.60015569040E+03 -0.22352952371E+03  0.84519694605E+03  0.13908785763E+04  0.90001835305E+03 0.  0.
         23    2    4    4    0    0  0.21506982684E+03 -0.51729544292E+03  0.25424456458E+03  0.62158876627E+03  0.88784514715E+02 0.  0.
         23    2    4    4    0    0  0.38508586356E+03  0.29376591921E+03  0.59095238147E+03  0.76928981007E+03  0.89401102387E+02 0.  0.
         13    1    3    3    0    0 -0.14266716409E+02  0.28441166920E+00 -0.15709416939E+02  0.21222767672E+02  0.00000000000E+00 0.  1.
        -13    1    3    3    0    0 -0.58588897400E+03  0.22324511204E+03 -0.51483022440E+02  0.62909043189E+03  0.00000000000E+00 0. -1.
          3    1    6    6  502    0  0.18619780253E+03  0.10522773737E+03  0.31177820120E+03  0.37808483853E+03  0.00000000000E+00 0. -1.
          3    1    5    5  503    0  0.78237274555E+02 -0.20558830903E+03  0.53482929559E+02  0.22638031649E+03  0.00000000000E+00 0. -1.
         -3    1    5    5    0  503  0.13683255229E+03 -0.31170713389E+03  0.20076163502E+03  0.39520844978E+03  0.00000000000E+00 0.  1.
         -3    1    6    6    0  502  0.19888806103E+03  0.18853818184E+03  0.27917418027E+03  0.39120497154E+03  0.00000000000E+00 0.  1.
<mgrwt>
<rscale>  0 0.18871070E+04</rscale>
<asrwt>0</asrwt>
<pdfrwt beam="1">  1        1 0.21686125E+00 0.18871070E+04</pdfrwt>
<pdfrwt beam="2">  1       -1 0.97168252E-01 0.18871070E+04</pdfrwt>
<totfact> 0.72096770E+00</totfact>
</mgrwt>
</event>
<event>
12    1  0.4820219E-008  0.2237556E+04  0.7818608E-02  0.8502957E-01
          1   -1    0    0  501    0  0.00000000000E+00  0.00000000000E+00  0.79885493216E+03  0.79885493216E+03  0.00000000000E+00 0. -1.
         -1   -1    0    0    0  501 -0.00000000000E+00 -0.00000000000E+00 -0.15668233762E+04  0.15668233762E+04  0.00000000000E+00 0.  1.
         23    2    1    2    0    0  0.22113714223E+03  0.71867643042E+03 -0.91260052566E+03  0.11860170852E+04  0.91648020489E+02 0.  0.
        254    2    1    2    0    0 -0.22113714223E+03 -0.71867643042E+03  0.14463208167E+03  0.11796612231E+04  0.89737657364E+03 0.  0.
         23    2    4    4    0    0  0.10844460919E+03 -0.86214760595E+02 -0.29405553404E+03  0.33743599262E+03  0.90560332449E+02 0.  0.
         23    2    4    4    0    0 -0.32958175142E+03 -0.63246166983E+03  0.43868761571E+03  0.84222523048E+03  0.90909955508E+02 0.  0.
         13    1    3    3    0    0  0.15963154512E+03  0.57524627768E+03 -0.77252240645E+03  0.97631008325E+03  0.00000000000E+00 0.  1.
        -13    1    3    3    0    0  0.61505597109E+02  0.14343015274E+03 -0.14007811921E+03  0.20970700197E+03  0.00000000000E+00 0. -1.
          2    1    5    5  502    0  0.36332859740E+02 -0.50826449874E+02 -0.48549951870E+02  0.79123337456E+02  0.00000000000E+00 0. -1.
          3    1    6    6  503    0 -0.54692751333E+02 -0.53457806487E+02  0.30482424426E+02  0.82329899318E+02  0.00000000000E+00 0. -1.
         -2    1    5    5    0  502  0.72111749447E+02 -0.35388310721E+02 -0.24550558217E+03  0.25831265517E+03  0.00000000000E+00 0.  1.
         -3    1    6    6    0  503 -0.27488900009E+03 -0.57900386334E+03  0.40820519128E+03  0.75989533116E+03  0.00000000000E+00 0.  1.
<mgrwt>
<rscale>  0 0.22375563E+04</rscale>
<asrwt>0</asrwt>
<pdfrwt beam="1">  1        1 0.12290076E+00 0.22375563E+04</pdfrwt>
<pdfrwt beam="2">  1       -1 0.24104975E+00 0.22375563E+04</pdfrwt>
<totfact> 0.16068593E+00</totfact>
</mgrwt>
</event>
<event>
12    1  0.4820219E-008  0.1305584E+04  0.7818608E-02  0.9025149E-01
         -1   -1    0    0    0  501 -0.00000000000E+00  0.00000000000E+00  0.39006451948E+03  0.39006451948E+03  0.00000000000E+00 0.  1.
          1   -1    0    0  501    0  0.00000000000E+00 -0.00000000000E+00 -0.10924792755E+04  0.10924792755E+04  0.00000000000E+00 0. -1.
         23    2    1    2    0    0 -0.17667385069E+03  0.14479405317E+03  0.96793064612E+02  0.26542171499E+03  0.94344168247E+02 0.  0.
        254    2    1    2    0    0  0.17667385069E+03 -0.14479405317E+03 -0.79920782063E+03  0.12171220800E+04  0.88908607553E+03 0.  0.
         23    2    4    4    0    0  0.32687559242E+03 -0.12930982543E+02 -0.90993683545E+03  0.97138438854E+03  0.92669965740E+02 0.  0.
         23    2    4    4    0    0 -0.15020174173E+03 -0.13186307063E+03  0.11072901482E+03  0.24573769146E+03  0.90430446555E+02 0.  0.
         11    1    3    3    0    0 -0.65702154151E+02  0.21126843615E+02 -0.72226067245E+01  0.69392237528E+02  0.00000000000E+00 0. -1.
        -11    1    3    3    0    0 -0.11097169654E+03  0.12366720956E+03  0.10401567134E+03  0.19602947747E+03  0.00000000000E+00 0.  1.
          2    1    6    6  502    0 -0.37773796937E+02 -0.60966462091E+02  0.83481329606E+02  0.11005862814E+03  0.00000000000E+00 0. -1.
          2    1    5    5  503    0  0.47704600265E+01  0.31607424815E+01 -0.91772460172E+02  0.91950704336E+02  0.00000000000E+00 0. -1.
         -2    1    5    5    0  503  0.32210513239E+03 -0.16091725025E+02 -0.81816437528E+03  0.87943368420E+03  0.00000000000E+00 0.  1.
         -2    1    6    6    0  502 -0.11242794480E+03 -0.70896608539E+02  0.27247685212E+02  0.13567906332E+03  0.00000000000E+00 0.  1.
<mgrwt>
<rscale>  0 0.13055840E+04</rscale>
<asrwt>0</asrwt>
<pdfrwt beam="1">  1        1 0.16807374E+00 0.13055840E+04</pdfrwt>
<pdfrwt beam="2">  1       -1 0.60009926E-01 0.13055840E+04</pdfrwt>
<totfact> 0.35520624E+01</totfact>
</mgrwt>
</event>
<event>
12    1  0.4820219E-008  0.2124561E+04  0.7818608E-02  0.8550501E-01
          2   -1    0    0  501    0  0.00000000000E+00  0.00000000000E+00  0.38652550992E+04  0.38652550992E+04  0.00000000000E+00 0. -1.
         -2   -1    0    0    0  501 -0.00000000000E+00 -0.00000000000E+00 -0.29194449662E+03  0.29194449662E+03  0.00000000000E+00 0.  1.
         23    2    1    2    0    0  0.27632400548E+03  0.80565223345E+03  0.11705431717E+04  0.14505023817E+04  0.91407687761E+02 0.  0.
        254    2    1    2    0    0 -0.27632400548E+03 -0.80565223345E+03  0.24027674310E+04  0.27066972141E+04  0.90966367657E+03 0.  0.
         23    2    4    4    0    0 -0.17190595683E+03  0.11029946536E+03  0.14569094801E+03  0.26690459059E+03  0.91074574373E+02 0.  0.
         23    2    4    4    0    0 -0.10441804866E+03 -0.91595169881E+03  0.22570764829E+04  0.24397926235E+04  0.91231313553E+02 0.  0.
         11    1    3    3    0    0  0.10972318403E+03  0.38511877919E+03  0.48153939049E+03  0.62628734284E+03  0.00000000000E+00 0. -1.
        -11    1    3    3    0    0  0.16660082145E+03  0.42053345426E+03  0.68900378116E+03  0.82421503887E+03  0.00000000000E+00 0.  1.
          3    1    6    6  502    0 -0.46409624964E+02 -0.18769940055E+03  0.40322984057E+03  0.44719036504E+03  0.00000000000E+00 0. -1.
          3    1    5    5  503    0 -0.92314300332E+02  0.70968156176E+01  0.50055215432E+02  0.10525122056E+03  0.00000000000E+00 0. -1.
         -3    1    5    5    0  503 -0.79591656494E+02  0.10320264974E+03  0.95635732576E+02  0.16165337003E+03  0.00000000000E+00 0.  1.
         -3    1    6    6    0  502 -0.58008423691E+02 -0.72825229826E+03  0.18538466424E+04  0.19926022585E+04  0.00000000000E+00 0.  1.
<mgrwt>
<rscale>  0 0.21245611E+04</rscale>
<asrwt>0</asrwt>
<pdfrwt beam="1">  1        2 0.59465459E+00 0.21245611E+04</pdfrwt>
<pdfrwt beam="2">  1       -2 0.44914541E-01 0.21245611E+04</pdfrwt>
<totfact> 0.19053585E+00</totfact>
</mgrwt>
</event>
<event>
12    1  0.4820219E-008  0.1912550E+04  0.7818608E-02  0.8648634E-01
          1   -1    0    0  501    0  0.00000000000E+00  0.00000000000E+00  0.25401641464E+04  0.25401641464E+04  0.00000000000E+00 0. -1.
         -1   -1    0    0    0  501 -0.00000000000E+00 -0.00000000000E+00 -0.36000126431E+03  0.36000126431E+03  0.00000000000E+00 0.  1.
         23    2    1    2    0    0  0.51369999838E+03  0.35887231168E+03  0.25578428840E+03  0.68280172073E+03  0.90086420843E+02 0.  0.
        254    2    1    2    0    0 -0.51369999838E+03 -0.35887231168E+03  0.19243785937E+04  0.22173636900E+04  0.90597557215E+03 0.  0.
         23    2    4    4    0    0 -0.17636332106E+03 -0.38626241527E+03  0.23859825363E+03  0.49552850976E+03  0.91195958707E+02 0.  0.
         23    2    4    4    0    0 -0.33733667732E+03  0.27390103591E+02  0.16857803401E+04  0.17218351802E+04  0.91185422193E+02 0.  0.
         11    1    3    3    0    0  0.12413263868E+03  0.56121803254E+02  0.26643513420E+02  0.13881082664E+03  0.00000000000E+00 0. -1.
        -11    1    3    3    0    0  0.38956735969E+03  0.30275050843E+03  0.22914077498E+03  0.54399089409E+03  0.00000000000E+00 0.  1.
          2    1    5    5  502    0 -0.57536420323E+02 -0.12773433704E+03  0.31450740941E+02  0.14358150866E+03  0.00000000000E+00 0. -1.
          3    1    6    6  503    0 -0.30802474719E+03  0.14063831883E+02  0.13624866573E+04  0.13969419915E+04  0.00000000000E+00 0. -1.
         -2    1    5    5    0  502 -0.11882690074E+03 -0.25852807823E+03  0.20714751269E+03  0.35194700110E+03  0.00000000000E+00 0.  1.
         -3    1    6    6    0  503 -0.29311930126E+02  0.13326271709E+02  0.32329368275E+03  0.32489318871E+03  0.00000000000E+00 0.  1.
<mgrwt>
<rscale>  0 0.19125504E+04</rscale>
<asrwt>0</asrwt>
<pdfrwt beam="1">  1        1 0.39079447E+00 0.19125504E+04</pdfrwt>
<pdfrwt beam="2">  1       -1 0.55384812E-01 0.19125504E+04</pdfrwt>
<totfact> 0.39166220E+00</totfact>
</mgrwt>
</event>
<event>
12    1  0.4820219E-008  0.2709503E+04  0.7818608E-02  0.8331928E-01
          1   -1    0    0  501    0  0.00000000000E+00  0.00000000000E+00  0.19465146339E+04  0.19465146339E+04  0.00000000000E+00 0. -1.
         -1   -1    0    0    0  501 -0.00000000000E+00 -0.00000000000E+00 -0.94289094517E+03  0.94289094517E+03  0.00000000000E+00 0.  1.
         23    2    1    2    0    0 -0.10222642291E+04 -0.45185616297E+03 -0.41112733913E+02  0.11221533143E+04  0.91321726948E+02 0.  0.
        254    2    1    2    0    0  0.10222642291E+04  0.45185616297E+03  0.10447364227E+04  0.17672522648E+04  0.88459495168E+03 0.  0.
         23    2    4    4    0    0  0.95311580185E+03  0.15136264596E+02  0.58314006570E+03  0.11212449389E+04  0.92081695328E+02 0.  0.
         23    2    4    4    0    0  0.69148427239E+02  0.43671989838E+03  0.46159635700E+03  0.64600732589E+03  0.93533382753E+02 0.  0.
         11    1    3    3    0    0 -0.62448378456E+02 -0.21317676343E+02  0.18436720069E+02  0.68513910582E+02  0.00000000000E+00 0. -1.
        -11    1    3    3    0    0 -0.95981585063E+03 -0.43053848663E+03 -0.59549453982E+02  0.10536394037E+04  0.00000000000E+00 0.  1.
          4    1    5    5  502    0  0.32604350899E+03  0.16632965594E+02  0.24983353684E+03  0.41109344611E+03  0.00000000000E+00 0. -1.
          3    1    6    6  503    0  0.22443780584E+02  0.36319768439E+03  0.35528491998E+03  0.50857020715E+03  0.00000000000E+00 0. -1.
         -4    1    5    5    0  502  0.62707229285E+03 -0.14967009986E+01  0.33330652885E+03  0.71015149282E+03  0.00000000000E+00 0.  1.
         -3    1    6    6    0  503  0.46704646655E+02  0.73522213984E+02  0.10631143702E+03  0.13743711875E+03  0.00000000000E+00 0.  1.
<mgrwt>
<rscale>  0 0.27095026E+04</rscale>
<asrwt>0</asrwt>
<pdfrwt beam="1">  1        1 0.29946379E+00 0.27095026E+04</pdfrwt>
<pdfrwt beam="2">  1       -1 0.14506015E+00 0.27095026E+04</pdfrwt>
<totfact> 0.10786787E+00</totfact>
</mgrwt>
</event>
<event>
12    1  0.4820219E-008  0.3073260E+04  0.7818608E-02  0.8223115E-01
          1   -1    0    0  501    0  0.00000000000E+00  0.00000000000E+00  0.32714736531E+04  0.32714736531E+04  0.00000000000E+00 0.  1.
         -1   -1    0    0    0  501 -0.00000000000E+00 -0.00000000000E+00 -0.72176403542E+03  0.72176403542E+03  0.00000000000E+00 0. -1.
         23    2    1    2    0    0 -0.92289411100E+02  0.12294379799E+03  0.29828405931E+04  0.29881967320E+04  0.91373916597E+02 0.  0.
        254    2    1    2    0    0  0.92289411100E+02 -0.12294379799E+03 -0.43313097546E+03  0.10050409564E+04  0.89379660402E+03 0.  0.
         23    2    4    4    0    0 -0.60140260612E+02 -0.12369695882E+03 -0.68101740253E+03  0.70031583195E+03  0.87975981699E+02 0.  0.
         23    2    4    4    0    0  0.15242967171E+03  0.75316083215E+00  0.24788642707E+03  0.30472512449E+03  0.90412104845E+02 0.  0.
         11    1    3    3    0    0  0.11278848613E+02 -0.65301123391E+01  0.21963080188E+03  0.22001714463E+03  0.00000000000E+00 0. -1.
        -11    1    3    3    0    0 -0.10356825971E+03  0.12947391033E+03  0.27632097912E+04  0.27681795874E+04  0.00000000000E+00 0.  1.
          4    1    5    5  502    0 -0.64094749547E+02 -0.76945043881E+02 -0.58428853869E+03  0.59280837809E+03  0.00000000000E+00 0. -1.
          1    1    6    6  503    0  0.14602693392E+03 -0.23305921931E+02  0.23223302692E+03  0.27531656365E+03  0.00000000000E+00 0. -1.
         -4    1    5    5    0  502  0.39544889354E+01 -0.46751914938E+02 -0.96728863846E+02  0.10750745385E+03  0.00000000000E+00 0.  1.
         -1    1    6    6    0  503  0.64027377932E+01  0.24059082763E+02  0.15653400147E+02  0.29408560843E+02  0.00000000000E+00 0.  1.
<mgrwt>
<rscale>  0 0.30732602E+04</rscale>
<asrwt>0</asrwt>
<pdfrwt beam="1">  1        1 0.50330363E+00 0.30732602E+04</pdfrwt>
<pdfrwt beam="2">  1       -1 0.11104062E+00 0.30732602E+04</pdfrwt>
<totfact> 0.23674252E-01</totfact>
</mgrwt>
</event>
<event>
12    1  0.4820219E-008  0.1419781E+04  0.7818608E-02  0.8939624E-01
          1   -1    0    0  501    0  0.00000000000E+00  0.00000000000E+00  0.18138947342E+04  0.18138947342E+04  0.00000000000E+00 0. -1.
         -1   -1    0    0    0  501 -0.00000000000E+00 -0.00000000000E+00 -0.27782438903E+03  0.27782438903E+03  0.00000000000E+00 0.  1.
         23    2    1    2    0    0 -0.20359465936E+03  0.25797032037E+03  0.79955122314E+03  0.86985024517E+03  0.96735821071E+02 0.  0.
        254    2    1    2    0    0  0.20359465936E+03 -0.25797032037E+03  0.73651912204E+03  0.12218688781E+04  0.91787998484E+03 0.  0.
         23    2    4    4    0    0  0.38206867584E+03 -0.18774173399E+03  0.86907593316E+03  0.97208807755E+03  0.91863056713E+02 0.  0.
         23    2    4    4    0    0 -0.17847401648E+03 -0.70228586378E+02 -0.13255681111E+03  0.24978080053E+03  0.89633203864E+02 0.  0.
         13    1    3    3    0    0 -0.20435348396E+03  0.23145861301E+03  0.67154570840E+03  0.73912588536E+03  0.00000000000E+00 0. -1.
        -13    1    3    3    0    0  0.75882460051E+00  0.26511707361E+02  0.12800551474E+03  0.13072435980E+03  0.00000000000E+00 0.  1.
          4    1    5    5  502    0  0.28248046108E+03 -0.13095341009E+03  0.71662576095E+03  0.78134274667E+03  0.00000000000E+00 0. -1.
          3    1    6    6  503    0 -0.17511500690E+03 -0.52683478467E+02 -0.14012306966E+03  0.23038074832E+03  0.00000000000E+00 0. -1.
         -4    1    5    5    0  502  0.99588214760E+02 -0.56788323895E+02  0.15245017220E+03  0.19074533089E+03  0.00000000000E+00 0.  1.
         -3    1    6    6    0  503 -0.33590095777E+01 -0.17545107911E+02  0.75662585510E+01  0.19400052201E+02  0.00000000000E+00 0.  1.
<mgrwt>
<rscale>  0 0.14197805E+04</rscale>
<asrwt>0</asrwt>
<pdfrwt beam="1">  1        1 0.27906072E+00 0.14197805E+04</pdfrwt>
<pdfrwt beam="2">  1       -1 0.42742215E-01 0.14197805E+04</pdfrwt>
<totfact> 0.20925529E+01</totfact>
</mgrwt>
</event>
<event>
12    1  0.4820219E-008  0.1035508E+04  0.7818608E-02  0.9270435E-01
         -2   -1    0    0    0  501 -0.00000000000E+00  0.00000000000E+00  0.13532248624E+03  0.13532248624E+03  0.00000000000E+00 0.  1.
          2   -1    0    0  501    0  0.00000000000E+00 -0.00000000000E+00 -0.19809669084E+04  0.19809669084E+04  0.00000000000E+00 0. -1.
         23    2    1    2    0    0  0.50062726516E+01 -0.93677013081E+02 -0.26281553217E+03  0.29408366293E+03  0.92804909939E+02 0.  0.
        254    2    1    2    0    0 -0.50062726516E+01  0.93677013081E+02 -0.15828288900E+04  0.18222057317E+04  0.89793428941E+03 0.  0.
         23    2    4    4    0    0  0.35021079076E+03  0.22836363272E+03 -0.44026277379E+03  0.61456600154E+03  0.95197234994E+02 0.  0.
         23    2    4    4    0    0 -0.35521706341E+03 -0.13468661964E+03 -0.11425661162E+04  0.12076397302E+04  0.92826398902E+02 0.  0.
         13    1    3    3    0    0 -0.12156485998E+02 -0.10837935998E+03 -0.22480831278E+03  0.24986525032E+03  0.00000000000E+00 0. -1.
        -13    1    3    3    0    0  0.17162758649E+02  0.14702346894E+02 -0.38007219382E+02  0.44218412611E+02  0.00000000000E+00 0.  1.
          2    1    5    5  502    0  0.75785654368E+02  0.62646400377E+02 -0.16475554523E+03  0.19186564719E+03  0.00000000000E+00 0. -1.
          1    1    6    6  503    0 -0.87975714240E+02 -0.40702625510E+02 -0.18243405418E+03  0.20658803001E+03  0.00000000000E+00 0. -1.
         -2    1    5    5    0  502  0.27442513639E+03  0.16571723234E+03 -0.27550722856E+03  0.42270035435E+03  0.00000000000E+00 0.  1.
         -1    1    6    6    0  503 -0.26724134917E+03 -0.93983994125E+02 -0.96013206201E+03  0.10010517001E+04  0.00000000000E+00 0.  1.
<mgrwt>
<rscale>  0 0.10355083E+04</rscale>
<asrwt>0</asrwt>
<pdfrwt beam="1">  1        2 0.30476415E+00 0.10355083E+04</pdfrwt>
<pdfrwt beam="2">  1       -2 0.20818843E-01 0.10355083E+04</pdfrwt>
<totfact> 0.13624277E+02</totfact>
</mgrwt>
</event>
<event>
12    1  0.4820219E-008  0.1368237E+04  0.7818608E-02  0.8977136E-01
          2   -1    0    0  501    0  0.00000000000E+00  0.00000000000E+00  0.35867004456E+04  0.35867004456E+04  0.00000000000E+00 0. -1.
         -2   -1    0    0    0  501 -0.00000000000E+00 -0.00000000000E+00 -0.13048718289E+03  0.13048718289E+03  0.00000000000E+00 0.  1.
         23    2    1    2    0    0 -0.37808395478E+02  0.31365918822E+03  0.46635160479E+03  0.57053652707E+03  0.90645178043E+02 0.  0.
        254    2    1    2    0    0  0.37808395478E+02 -0.31365918822E+03  0.29898616579E+04  0.31466511015E+04  0.92861663754E+03 0.  0.
         23    2    4    4    0    0  0.54772339578E+02 -0.43340936897E+03  0.29584075102E+04  0.29918690194E+04  0.90893027893E+02 0.  0.
         23    2    4    4    0    0 -0.16963944099E+02  0.11975018075E+03  0.31454147707E+02  0.15478208202E+03  0.91324959988E+02 0.  0.
         13    1    3    3    0    0 -0.55316495111E+02  0.20219667885E+03  0.24776168471E+03  0.32454470259E+03  0.00000000000E+00 0.  1.
        -13    1    3    3    0    0  0.17508099633E+02  0.11146250937E+03  0.21858992008E+03  0.24599182447E+03  0.00000000000E+00 0. -1.
          4    1    5    5  502    0  0.56676960783E+02 -0.42680911259E+03  0.29487494735E+04  0.29800170728E+04  0.00000000000E+00 0. -1.
          3    1    6    6  503    0 -0.43885533636E+02  0.80238755609E+02 -0.93409113930E+01  0.91931771384E+02  0.00000000000E+00 0. -1.
         -4    1    5    5    0  502 -0.19046212049E+01 -0.66002563771E+01  0.96580367051E+01  0.11851946641E+02  0.00000000000E+00 0.  1.
         -3    1    6    6    0  503  0.26921589537E+02  0.39511425145E+02  0.40795059100E+02  0.62850310637E+02  0.00000000000E+00 0.  1.
<mgrwt>
<rscale>  0 0.13682375E+04</rscale>
<asrwt>0</asrwt>
<pdfrwt beam="1">  1        2 0.55179999E+00 0.13682375E+04</pdfrwt>
<pdfrwt beam="2">  1       -2 0.20074954E-01 0.13682375E+04</pdfrwt>
<totfact> 0.14915996E+01</totfact>
</mgrwt>
</event>
<event>
12    1  0.4820219E-008  0.1233796E+04  0.7818608E-02  0.9083779E-01
         -1   -1    0    0    0  501 -0.00000000000E+00  0.00000000000E+00  0.24739215079E+03  0.24739215079E+03  0.00000000000E+00 0.  1.
          1   -1    0    0  501    0  0.00000000000E+00 -0.00000000000E+00 -0.15382989779E+04  0.15382989779E+04  0.00000000000E+00 0. -1.
         23    2    1    2    0    0  0.76869323531E+02 -0.25358092798E+03 -0.39688237246E+03  0.48597280282E+03  0.91879092185E+02 0.  0.
        254    2    1    2    0    0 -0.76869323531E+02  0.25358092798E+03 -0.89402445466E+03  0.12997183259E+04  0.90541472329E+03 0.  0.
         23    2    4    4    0    0  0.35604546286E+03  0.49244213451E+01 -0.14086192445E+03  0.39161311171E+03  0.82012962138E+02 0.  0.
         23    2    4    4    0    0 -0.43291478639E+03  0.24865650663E+03 -0.75316253021E+03  0.90810521416E+03  0.90310644553E+02 0.  0.
         13    1    3    3    0    0 -0.20587822145E+02 -0.31501178975E+02 -0.61268227918E+02  0.71902562192E+02  0.00000000000E+00 0. -1.
        -13    1    3    3    0    0  0.97457145677E+02 -0.22207974900E+03 -0.33561414454E+03  0.41407024063E+03  0.00000000000E+00 0.  1.
          4    1    5    5  502    0  0.19775225586E+02  0.20227825809E+01  0.10901094296E+02  0.22671238458E+02  0.00000000000E+00 0. -1.
          1    1    6    6  503    0 -0.46698044668E+02  0.63804947762E+02 -0.12419620829E+03  0.14722933433E+03  0.00000000000E+00 0. -1.
         -4    1    5    5    0  502  0.33627023727E+03  0.29016387642E+01 -0.15176301875E+03  0.36894187325E+03  0.00000000000E+00 0.  1.
         -1    1    6    6    0  503 -0.38621674172E+03  0.18485155887E+03 -0.62896632192E+03  0.76087587983E+03  0.00000000000E+00 0.  1.
<mgrwt>
<rscale>  0 0.12337959E+04</rscale>
<asrwt>0</asrwt>
<pdfrwt beam="1">  1        1 0.23666138E+00 0.12337959E+04</pdfrwt>
<pdfrwt beam="2">  1       -1 0.38060331E-01 0.12337959E+04</pdfrwt>
<totfact> 0.40518434E+01</totfact>
</mgrwt>
</event>
<event>
12    1  0.4820219E-008  0.2220713E+04  0.7818608E-02  0.8509856E-01
         -2   -1    0    0    0  501 -0.00000000000E+00  0.00000000000E+00  0.44522820720E+03  0.44522820720E+03  0.00000000000E+00 0. -1.
          2   -1    0    0  501    0  0.00000000000E+00 -0.00000000000E+00 -0.27691232508E+04  0.27691232508E+04  0.00000000000E+00 0.  1.
         23    2    1    2    0    0 -0.56919861175E+03  0.11917971705E+03 -0.20254869804E+04  0.21092544737E+04  0.90366267098E+02 0.  0.
        254    2    1    2    0    0  0.56919861175E+03 -0.11917971705E+03 -0.29840806320E+03  0.11050969844E+04  0.89106739818E+03 0.  0.
         23    2    4    4    0    0  0.18644188963E+03 -0.45639898960E+03  0.10703356409E+02  0.50173256654E+03  0.92522378753E+02 0.  0.
         23    2    4    4    0    0  0.38275672212E+03  0.33721927256E+03 -0.30911141961E+03  0.60336441782E+03  0.90990135996E+02 0.  0.
         11    1    3    3    0    0 -0.50642067308E+03  0.97069630367E+02 -0.16775811169E+04  0.17550392631E+04  0.00000000000E+00 0. -1.
        -11    1    3    3    0    0 -0.62777938669E+02  0.22110086681E+02 -0.34790586351E+03  0.35421521054E+03  0.00000000000E+00 0.  1.
          2    1    5    5  502    0  0.59035996964E+02 -0.67948200328E+02 -0.18449641839E+02  0.91883601090E+02  0.00000000000E+00 0. -1.
          4    1    6    6  503    0  0.26035165797E+02  0.45019221703E+02 -0.59485387300E+02  0.79013109565E+02  0.00000000000E+00 0. -1.
         -2    1    5    5    0  502  0.12740589266E+03 -0.38845078927E+03  0.29152998247E+02  0.40984896545E+03  0.00000000000E+00 0.  1.
         -4    1    6    6    0  503  0.35672155632E+03  0.29220005085E+03 -0.24962603231E+03  0.52435130826E+03  0.00000000000E+00 0.  1.
<mgrwt>
<rscale>  0 0.22207132E+04</rscale>
<asrwt>0</asrwt>
<pdfrwt beam="1">  1        2 0.42601897E+00 0.22207132E+04</pdfrwt>
<pdfrwt beam="2">  1       -2 0.68496647E-01 0.22207132E+04</pdfrwt>
<totfact> 0.42953211E+00</totfact>
</mgrwt>
</event>
<event>
12    1  0.4820219E-008  0.1444391E+04  0.7818608E-02  0.8922298E-01
          1   -1    0    0  501    0  0.00000000000E+00  0.00000000000E+00  0.13830911544E+04  0.13830911544E+04  0.00000000000E+00 0. -1.
         -1   -1    0    0    0  501 -0.00000000000E+00 -0.00000000000E+00 -0.37710182816E+03  0.37710182816E+03  0.00000000000E+00 0.  1.
         23    2    1    2    0    0  0.37802552508E+03  0.83335792338E+02  0.55678033202E+03  0.68408861814E+03  0.90137380962E+02 0.  0.
        254    2    1    2    0    0 -0.37802552508E+03 -0.83335792338E+02  0.44920899423E+03  0.10761043644E+04  0.89797757810E+03 0.  0.
         23    2    4    4    0    0  0.67383812835E+02 -0.12052327354E+03  0.57850248730E+03  0.60152261161E+03  0.89988259045E+02 0.  0.
         23    2    4    4    0    0 -0.44540933791E+03  0.37187481198E+02 -0.12929349307E+03  0.47458175283E+03  0.93480723759E+02 0.  0.
         11    1    3    3    0    0  0.28525479900E+03  0.43932124281E+02  0.46763838570E+03  0.54953252104E+03  0.00000000000E+00 0. -1.
        -11    1    3    3    0    0  0.92770726078E+02  0.39403668057E+02  0.89141946318E+02  0.13455609710E+03  0.00000000000E+00 0.  1.
          2    1    5    5  502    0  0.28528023125E+02  0.55245674009E+01  0.62438035848E+02  0.68868550652E+02  0.00000000000E+00 0. -1.
          1    1    6    6  503    0 -0.29159995238E+03 -0.76332608944E+01 -0.50470031636E+02  0.29603382069E+03  0.00000000000E+00 0. -1.
         -2    1    5    5    0  502  0.38855789710E+02 -0.12604784094E+03  0.51606445145E+03  0.53265406095E+03  0.00000000000E+00 0.  1.
         -1    1    6    6    0  503 -0.15380938553E+03  0.44820742093E+02 -0.78823461433E+02  0.17854793214E+03  0.00000000000E+00 0.  1.
<mgrwt>
<rscale>  0 0.14443908E+04</rscale>
<asrwt>0</asrwt>
<pdfrwt beam="1">  1        1 0.21278325E+00 0.14443908E+04</pdfrwt>
<pdfrwt beam="2">  1       -1 0.58015667E-01 0.14443908E+04</pdfrwt>
<totfact> 0.23092785E+01</totfact>
</mgrwt>
</event>
<event>
12    1  0.5860606E-008  0.1761958E+04  0.7818608E-02  0.8726795E-01
         -1   -1    0    0    0  501 -0.00000000000E+00  0.00000000000E+00  0.61802491423E+03  0.61802491423E+03  0.00000000000E+00 0.  1.
          1   -1    0    0  501    0  0.00000000000E+00 -0.00000000000E+00 -0.12558139997E+04  0.12558139997E+04  0.00000000000E+00 0. -1.
         23    2    1    2    0    0  0.59675971540E+03  0.29952997896E+02  0.27387179051E+02  0.60540887535E+03  0.93544154148E+02 0.  0.
        254    2    1    2    0    0 -0.59675971540E+03 -0.29952997896E+02 -0.66517626455E+03  0.12684300386E+04  0.89968658984E+03 0.  0.
         23    2    4    4    0    0  0.15754636901E+03  0.14969270001E+03 -0.36199694008E+03  0.43186915016E+03  0.90776733831E+02 0.  0.
         23    2    4    4    0    0 -0.75430608441E+03 -0.17964569791E+03 -0.30317932447E+03  0.83656088846E+03  0.81646626123E+02 0.  0.
         13    1    3    3    0    0  0.13450572680E+03  0.59595783176E+01  0.45667383357E+02  0.14217178700E+03  0.00000000000E+00 0. -1.
        -13    1    3    3    0    0  0.46225398860E+03  0.23993419579E+02 -0.18280204306E+02  0.46323708835E+03  0.00000000000E+00 0.  1.
          4    1    5    5  502    0  0.16709838332E+03  0.15131220988E+03 -0.35158139378E+03  0.41764426372E+03  0.00000000000E+00 0. -1.
          1    1    6    6  503    0 -0.64190315014E+03 -0.18184237095E+03 -0.25465941815E+03  0.71411324122E+03  0.00000000000E+00 0. -1.
         -4    1    5    5    0  502 -0.95520143049E+01 -0.16195098647E+01 -0.10415546300E+02  0.14224886440E+02  0.00000000000E+00 0.  1.
         -1    1    6    6    0  503 -0.11240293427E+03  0.21966730436E+01 -0.48519906320E+02  0.12244764723E+03  0.00000000000E+00 0.  1.
<mgrwt>
<rscale>  0 0.17619584E+04</rscale>
<asrwt>0</asrwt>
<pdfrwt beam="1">  1        1 0.19320215E+00 0.17619584E+04</pdfrwt>
<pdfrwt beam="2">  1       -1 0.95080757E-01 0.17619584E+04</pdfrwt>
<totfact> 0.98469017E+00</totfact>
</mgrwt>
</event>
<event>
12    1  0.4820219E-008  0.2745006E+04  0.7818608E-02  0.8320548E-01
          1   -1    0    0  501    0  0.00000000000E+00  0.00000000000E+00  0.10864562399E+04  0.10864562399E+04  0.00000000000E+00 0. -1.
         -1   -1    0    0    0  501 -0.00000000000E+00 -0.00000000000E+00 -0.17338614160E+04  0.17338614160E+04  0.00000000000E+00 0.  1.
         23    2    1    2    0    0  0.55123825292E+03  0.32849735406E+03 -0.13575358127E+04  0.15049265017E+04  0.10062887127E+03 0.  0.
        254    2    1    2    0    0 -0.55123825292E+03 -0.32849735406E+03  0.71013063651E+03  0.13153911542E+04  0.90232712718E+03 0.  0.
         23    2    4    4    0    0  0.10922402001E+03 -0.40335405008E+03  0.35487379902E+03  0.55600051176E+03  0.92610904240E+02 0.  0.
         23    2    4    4    0    0 -0.66046227293E+03  0.74856696014E+02  0.35525683749E+03  0.75939064241E+03  0.93020364962E+02 0.  0.
         11    1    3    3    0    0  0.23239982290E+02 -0.27641633311E+00 -0.90745722468E+02  0.93674752890E+02  0.00000000000E+00 0. -1.
        -11    1    3    3    0    0  0.52799827063E+03  0.32877377040E+03 -0.12667900902E+04  0.14112517488E+04  0.00000000000E+00 0.  1.
          2    1    5    5  502    0  0.67089296578E+02 -0.23022666928E+03  0.26160920161E+03  0.35488683736E+03  0.00000000000E+00 0. -1.
          3    1    6    6  503    0 -0.59523015855E+03  0.47118435888E+02  0.29327327744E+03  0.66522800896E+03  0.00000000000E+00 0. -1.
         -2    1    5    5    0  502  0.42134723430E+02 -0.17312738080E+03  0.93264597406E+02  0.20111367440E+03  0.00000000000E+00 0.  1.
         -3    1    6    6    0  503 -0.65232114377E+02  0.27738260126E+02  0.61983560056E+02  0.94162633449E+02  0.00000000000E+00 0.  1.
<mgrwt>
<rscale>  0 0.27450061E+04</rscale>
<asrwt>0</asrwt>
<pdfrwt beam="1">  1        1 0.16714712E+00 0.27450061E+04</pdfrwt>
<pdfrwt beam="2">  1       -1 0.26674790E+00 0.27450061E+04</pdfrwt>
<totfact> 0.61241462E-01</totfact>
</mgrwt>
</event>
<event>
12    1  0.4820219E-008  0.1557802E+04  0.7818608E-02  0.8846899E-01
          1   -1    0    0  501    0  0.00000000000E+00  0.00000000000E+00  0.57694823259E+03  0.57694823259E+03  0.00000000000E+00 0. -1.
         -1   -1    0    0    0  501 -0.00000000000E+00 -0.00000000000E+00 -0.10515449055E+04  0.10515449055E+04  0.00000000000E+00 0.  1.
         23    2    1    2    0    0 -0.12106277353E+03  0.28676426745E+02  0.36077914070E+03  0.39186431831E+03  0.88980464271E+02 0.  0.
        254    2    1    2    0    0  0.12106277353E+03 -0.28676426745E+02 -0.83537581356E+03  0.12366288197E+04  0.90328265529E+03 0.  0.
         23    2    4    4    0    0  0.29376245867E+03 -0.39252111585E+03 -0.48070257116E+03  0.69242716145E+03  0.89505326600E+02 0.  0.
         23    2    4    4    0    0 -0.17269968515E+03  0.36384468910E+03 -0.35467324240E+03  0.54420165829E+03  0.90300592292E+02 0.  0.
         11    1    3    3    0    0 -0.18515008051E+02  0.39144709048E+02  0.16522733098E+03  0.17080744911E+03  0.00000000000E+00 0. -1.
        -11    1    3    3    0    0 -0.10254776548E+03 -0.10468282302E+02  0.19555180972E+03  0.22105686921E+03  0.00000000000E+00 0.  1.
          4    1    5    5  502    0  0.22243972534E+03 -0.22610671746E+03 -0.29801576458E+03  0.43522071990E+03  0.00000000000E+00 0. -1.
          3    1    6    6  503    0 -0.14317037209E+03  0.29042542635E+03 -0.32746628527E+03  0.46052019685E+03  0.00000000000E+00 0. -1.
         -4    1    5    5    0  502  0.71322733333E+02 -0.16641439838E+03 -0.18268680658E+03  0.25720644155E+03  0.00000000000E+00 0.  1.
         -3    1    6    6    0  503 -0.29529313054E+02  0.73419262750E+02 -0.27206957135E+02  0.83681461440E+02  0.00000000000E+00 0.  1.
<mgrwt>
<rscale>  0 0.15578023E+04</rscale>
<asrwt>0</asrwt>
<pdfrwt beam="1">  1        1 0.88761268E-01 0.15578023E+04</pdfrwt>
<pdfrwt beam="2">  1       -1 0.16177614E+00 0.15578023E+04</pdfrwt>
<totfact> 0.98855102E+00</totfact>
</mgrwt>
</event>
<event>
12    1  0.4820219E-008  0.1152339E+04  0.7818608E-02  0.9155628E-01
         -2   -1    0    0    0  501 -0.00000000000E+00  0.00000000000E+00  0.46611216277E+03  0.46611216277E+03  0.00000000000E+00 0.  1.
          2   -1    0    0  501    0  0.00000000000E+00 -0.00000000000E+00 -0.71221376937E+03  0.71221376937E+03  0.00000000000E+00 0. -1.
         23    2    1    2    0    0  0.41816941355E+02  0.54565400533E+02  0.15688175310E+03  0.19319530132E+03  0.89367222606E+02 0.  0.
        254    2    1    2    0    0 -0.41816941355E+02 -0.54565400533E+02 -0.40298335970E+03  0.98513063082E+03  0.89630392840E+03 0.  0.
         23    2    4    4    0    0  0.23528301743E+03 -0.89269807473E+02  0.18715642642E+03  0.32589696819E+03  0.88623411740E+02 0.  0.
         23    2    4    4    0    0 -0.27709995878E+03  0.34704406940E+02 -0.59013978611E+03  0.65923366263E+03  0.91297709566E+02 0.  0.
         13    1    3    3    0    0  0.62659671987E+02  0.15108657892E+02  0.67721702106E+02  0.93491897900E+02  0.00000000000E+00 0. -1.
        -13    1    3    3    0    0 -0.20842730632E+02  0.39456742641E+02  0.89160050998E+02  0.99703403422E+02  0.00000000000E+00 0.  1.
          4    1    5    5  502    0  0.14097622925E+03 -0.77789219483E+02  0.71367104384E+02  0.17612133167E+03  0.00000000000E+00 0. -1.
          1    1    6    6  503    0 -0.21807183125E+03  0.12681318846E+02 -0.52490072700E+03  0.56853927976E+03  0.00000000000E+00 0. -1.
         -4    1    5    5    0  502  0.94306788175E+02 -0.11480587990E+02  0.11578932203E+03  0.14977563652E+03  0.00000000000E+00 0.  1.
         -1    1    6    6    0  503 -0.59028127530E+02  0.22023088094E+02 -0.65239059117E+02  0.90694382865E+02  0.00000000000E+00 0.  1.
<mgrwt>
<rscale>  0 0.11523394E+04</rscale>
<asrwt>0</asrwt>
<pdfrwt beam="1">  1        2 0.10957135E+00 0.11523394E+04</pdfrwt>
<pdfrwt beam="2">  1       -2 0.71709564E-01 0.11523394E+04</pdfrwt>
<totfact> 0.69981048E+01</totfact>
</mgrwt>
</event>
<event>
12    1  0.4820219E-008  0.1134712E+04  0.7818608E-02  0.9172004E-01
         -2   -1    0    0    0  501 -0.00000000000E+00  0.00000000000E+00  0.30714033207E+03  0.30714033207E+03  0.00000000000E+00 0.  1.
          2   -1    0    0  501    0  0.00000000000E+00 -0.00000000000E+00 -0.10480319182E+04  0.10480319182E+04  0.00000000000E+00 0. -1.
         23    2    1    2    0    0 -0.14192431961E+03 -0.69950187180E+01 -0.27817334606E+03  0.32467864624E+03  0.88568448575E+02 0.  0.
        254    2    1    2    0    0  0.14192431961E+03  0.69950187180E+01 -0.46271824004E+03  0.10304936040E+04  0.90973482699E+03 0.  0.
         23    2    4    4    0    0  0.50324607834E+03  0.72669290891E+02 -0.14265746839E+03  0.53496658821E+03  0.85443876388E+02 0.  0.
         23    2    4    4    0    0 -0.36132175873E+03 -0.65674272173E+02 -0.32006077165E+03  0.49552701580E+03  0.90783272041E+02 0.  0.
         13    1    3    3    0    0 -0.36947348642E+02 -0.37348313069E+02 -0.13279678183E+03  0.14281102312E+03  0.00000000000E+00 0.  1.
        -13    1    3    3    0    0 -0.10497697097E+03  0.30353294351E+02 -0.14537656423E+03  0.18186762312E+03  0.00000000000E+00 0. -1.
          3    1    6    6  502    0  0.49827360710E+01  0.24926190448E+01 -0.64075956577E+01  0.84910594492E+01  0.00000000000E+00 0. -1.
          3    1    5    5  503    0  0.34181275957E+02 -0.16778427371E+02 -0.10722777707E+02  0.39558225603E+02  0.00000000000E+00 0. -1.
         -3    1    5    5    0  503  0.46906480238E+03  0.89447718263E+02 -0.13193469069E+03  0.49540836261E+03  0.00000000000E+00 0.  1.
         -3    1    6    6    0  502 -0.36630449480E+03 -0.68166891218E+02 -0.31365317599E+03  0.48703595635E+03  0.00000000000E+00 0.  1.
<mgrwt>
<rscale>  0 0.11347121E+04</rscale>
<asrwt>0</asrwt>
<pdfrwt beam="1">  1        2 0.16123568E+00 0.11347121E+04</pdfrwt>
<pdfrwt beam="2">  1       -2 0.47252360E-01 0.11347121E+04</pdfrwt>
<totfact> 0.98698042E+01</totfact>
</mgrwt>
</event>
<event>
12    1  0.4820219E-008  0.1426693E+04  0.7818608E-02  0.8934721E-01
         -1   -1    0    0    0  501 -0.00000000000E+00  0.00000000000E+00  0.19050984891E+03  0.19050984891E+03  0.00000000000E+00 0.  1.
          1   -1    0    0  501    0  0.00000000000E+00 -0.00000000000E+00 -0.26710584950E+04  0.26710584950E+04  0.00000000000E+00 0. -1.
         23    2    1    2    0    0  0.13850800814E+03  0.19671010837E+03 -0.56849522930E+02  0.26384702481E+03  0.92217401779E+02 0.  0.
        254    2    1    2    0    0 -0.13850800814E+03 -0.19671010837E+03 -0.24236991232E+04  0.25977213191E+04  0.90330464245E+03 0.  0.
         23    2    4    4    0    0  0.14168290341E+03 -0.24175752817E+03 -0.22066551309E+04  0.22262115742E+04  0.90390036395E+02 0.  0.
         23    2    4    4    0    0 -0.28019091155E+03  0.45047419795E+02 -0.21704399221E+03  0.37150974489E+03  0.10185862284E+03 0.  0.
         11    1    3    3    0    0  0.17526926412E+02 -0.83817610327E+01 -0.23075366053E+01  0.19564554496E+02  0.00000000000E+00 0. -1.
        -11    1    3    3    0    0  0.12098108172E+03  0.20509186940E+03 -0.54541986325E+02  0.24428247031E+03  0.00000000000E+00 0.  1.
          4    1    5    5  502    0 -0.31224232772E+01 -0.55384327789E+01 -0.24536093793E+03  0.24544330023E+03  0.00000000000E+00 0. -1.
          1    1    6    6  503    0 -0.46876995281E+02 -0.30311144444E+02 -0.32079485627E+02  0.64384094016E+02  0.00000000000E+00 0. -1.
         -4    1    5    5    0  502  0.14480532669E+03 -0.23621909539E+03 -0.19612941930E+04  0.19807682740E+04  0.00000000000E+00 0.  1.
         -1    1    6    6    0  503 -0.23331391627E+03  0.75358564240E+02 -0.18496450658E+03  0.30712565087E+03  0.00000000000E+00 0.  1.
<mgrwt>
<rscale>  0 0.14266926E+04</rscale>
<asrwt>0</asrwt>
<pdfrwt beam="1">  1        1 0.41093205E+00 0.14266926E+04</pdfrwt>
<pdfrwt beam="2">  1       -1 0.29309209E-01 0.14266926E+04</pdfrwt>
<totfact> 0.10686801E+01</totfact>
</mgrwt>
</event>
<event>
12    1  0.4820219E-008  0.2138126E+04  0.7818608E-02  0.8544632E-01
         -1   -1    0    0    0  501 -0.00000000000E+00  0.00000000000E+00  0.11200818935E+04  0.11200818935E+04  0.00000000000E+00 0.  1.
          1   -1    0    0  501    0  0.00000000000E+00 -0.00000000000E+00 -0.10203675484E+04  0.10203675484E+04  0.00000000000E+00 0. -1.
         23    2    1    2    0    0  0.56825199988E+02 -0.87136188988E+03  0.10393475302E+02  0.87785624280E+03  0.89570710590E+02 0.  0.
        254    2    1    2    0    0 -0.56825199988E+02  0.87136188988E+03  0.89320869787E+02  0.12625931991E+04  0.90755866038E+03 0.  0.
         23    2    4    4    0    0  0.31962106937E+03  0.93499225146E+02 -0.12570308935E+03  0.36740664279E+03  0.91030991440E+02 0.  0.
         23    2    4    4    0    0 -0.37644626936E+03  0.77786266474E+03  0.21502395913E+03  0.89518655627E+03  0.91332078767E+02 0.  0.
         13    1    3    3    0    0  0.32388218667E+01 -0.50299114093E+03  0.38997034852E+02  0.50451099745E+03  0.00000000000E+00 0. -1.
        -13    1    3    3    0    0  0.53586378121E+02 -0.36837074895E+03 -0.28603559550E+02  0.37334524534E+03  0.00000000000E+00 0.  1.
          4    1    5    5  502    0  0.20022410128E+03  0.10062935963E+03 -0.98280243742E+02  0.24469361467E+03  0.00000000000E+00 0. -1.
          3    1    6    6  503    0 -0.71673759868E+01  0.51616133270E+02  0.28393126156E+02  0.59344469879E+02  0.00000000000E+00 0. -1.
         -4    1    5    5    0  502  0.11939696809E+03 -0.71301344814E+01 -0.27422845605E+02  0.12271302811E+03  0.00000000000E+00 0.  1.
         -3    1    6    6    0  503 -0.36927889337E+03  0.72624653147E+03  0.18663083298E+03  0.83584208639E+03  0.00000000000E+00 0.  1.
<mgrwt>
<rscale>  0 0.21381255E+04</rscale>
<asrwt>0</asrwt>
<pdfrwt beam="1">  1        1 0.15697962E+00 0.21381255E+04</pdfrwt>
<pdfrwt beam="2">  1       -1 0.17232029E+00 0.21381255E+04</pdfrwt>
<totfact> 0.31639308E+00</totfact>
</mgrwt>
</event>
<event>
12    1  0.4820219E-008  0.2003017E+04  0.7818608E-02  0.8605212E-01
          2   -1    0    0  501    0  0.00000000000E+00  0.00000000000E+00  0.31291417977E+04  0.31291417977E+04  0.00000000000E+00 0. -1.
         -2   -1    0    0    0  501 -0.00000000000E+00 -0.00000000000E+00 -0.32054118283E+03  0.32054118283E+03  0.00000000000E+00 0.  1.
         23    2    1    2    0    0 -0.22152611523E+03 -0.37554913399E+03 -0.26333752298E+02  0.44683762255E+03  0.94124506077E+02 0.  0.
        254    2    1    2    0    0  0.22152611523E+03  0.37554913399E+03  0.28349343672E+04  0.30028453580E+04  0.88888492281E+03 0.  0.
         23    2    4    4    0    0 -0.36102686141E+02  0.61727231615E+03  0.17687143201E+04  0.18759040406E+04  0.91307760847E+02 0.  0.
         23    2    4    4    0    0  0.25762880137E+03 -0.24172318216E+03  0.10662200471E+04  0.11269413174E+04  0.91481407640E+02 0.  0.
         11    1    3    3    0    0 -0.73488825964E+02 -0.12004522295E+03  0.35456066804E+02  0.14515025239E+03  0.00000000000E+00 0. -1.
        -11    1    3    3    0    0 -0.14803728927E+03 -0.25550391103E+03 -0.61789819102E+02  0.30168737016E+03  0.00000000000E+00 0.  1.
          4    1    6    6  502    0  0.17245600989E+03 -0.11421008074E+03  0.52072372491E+03  0.56030189681E+03  0.00000000000E+00 0. -1.
          4    1    5    5  503    0 -0.49730862349E+02  0.59993938602E+03  0.16839858432E+04  0.17883536411E+04  0.00000000000E+00 0. -1.
         -4    1    5    5    0  503  0.13628176208E+02  0.17332930125E+02  0.84728476906E+02  0.87550399498E+02  0.00000000000E+00 0.  1.
         -4    1    6    6    0  502  0.85172791480E+02 -0.12751310142E+03  0.54549632219E+03  0.56663942058E+03  0.00000000000E+00 0.  1.
<mgrwt>
<rscale>  0 0.20030165E+04</rscale>
<asrwt>0</asrwt>
<pdfrwt beam="1">  1        2 0.48140641E+00 0.20030165E+04</pdfrwt>
<pdfrwt beam="2">  1       -2 0.49314030E-01 0.20030165E+04</pdfrwt>
<totfact> 0.52274460E+00</totfact>
</mgrwt>
</event>
<event>
12    1  0.4820219E-008  0.1659811E+04  0.7818608E-02  0.8784623E-01
          2   -1    0    0  501    0  0.00000000000E+00  0.00000000000E+00  0.28125067394E+03  0.28125067394E+03  0.00000000000E+00 0. -1.
         -2   -1    0    0    0  501 -0.00000000000E+00 -0.00000000000E+00 -0.24488598578E+04  0.24488598578E+04  0.00000000000E+00 0.  1.
         23    2    1    2    0    0 -0.51869649645E+03  0.26787552861E+03 -0.75655369825E+03  0.96064443216E+03  0.98289737202E+02 0.  0.
        254    2    1    2    0    0  0.51869649645E+03 -0.26787552861E+03 -0.14110554856E+04  0.17694660996E+04  0.89394034468E+03 0.  0.
         23    2    4    4    0    0 -0.29782077993E+01 -0.47885395432E+03 -0.52668737774E+03  0.71734866459E+03  0.88766736027E+02 0.  0.
         23    2    4    4    0    0  0.52167470425E+03  0.21097842571E+03 -0.88436810790E+03  0.10521174350E+04  0.90486206858E+02 0.  0.
         11    1    3    3    0    0 -0.48060408508E+03  0.27144809181E+03 -0.68705871724E+03  0.88131381135E+03  0.00000000000E+00 0. -1.
        -11    1    3    3    0    0 -0.38092411371E+02 -0.35725631975E+01 -0.69494981014E+02  0.79330620809E+02  0.00000000000E+00 0.  1.
          2    1    5    5  502    0  0.37417829790E+02 -0.14329370023E+03 -0.14036114258E+03  0.20404516377E+03  0.00000000000E+00 0. -1.
          4    1    6    6  503    0  0.48436578068E+03  0.20577614564E+03 -0.85650136394E+03  0.10052604727E+04  0.00000000000E+00 0. -1.
         -2    1    5    5    0  502 -0.40396037589E+02 -0.33556025410E+03 -0.38632623516E+03  0.51330350082E+03  0.00000000000E+00 0.  1.
         -4    1    6    6    0  503  0.37308923565E+02  0.52022800749E+01 -0.27866743957E+02  0.46856962283E+02  0.00000000000E+00 0.  1.
<mgrwt>
<rscale>  0 0.16598114E+04</rscale>
<asrwt>0</asrwt>
<pdfrwt beam="1">  1        2 0.43269334E-01 0.16598114E+04</pdfrwt>
<pdfrwt beam="2">  1       -2 0.37674767E+00 0.16598114E+04</pdfrwt>
<totfact> 0.11906802E+00</totfact>
</mgrwt>
</event>
<event>
12    1  0.4820219E-008  0.1768171E+04  0.7818608E-02  0.8723411E-01
          1   -1    0    0  501    0  0.00000000000E+00  0.00000000000E+00  0.27817178751E+04  0.27817178751E+04  0.00000000000E+00 0. -1.
         -1   -1    0    0    0  501 -0.00000000000E+00 -0.00000000000E+00 -0.28097998162E+03  0.28097998162E+03  0.00000000000E+00 0.  1.
         23    2    1    2    0    0  0.50310464314E+03  0.36325875228E+03  0.58920388730E+03  0.86089730810E+03  0.94402072166E+02 0.  0.
        254    2    1    2    0    0 -0.50310464314E+03 -0.36325875228E+03  0.19115340061E+04  0.22018005486E+04  0.89938434279E+03 0.  0.
         23    2    4    4    0    0 -0.40611776174E+03 -0.53116397920E+03  0.70344717100E+03  0.97495286884E+03  0.92888992154E+02 0.  0.
         23    2    4    4    0    0 -0.96986881394E+02  0.16790522692E+03  0.12080868351E+04  0.12268476798E+04  0.89904436330E+02 0.  0.
         13    1    3    3    0    0  0.43710083298E+03  0.32999088523E+03  0.47557200098E+03  0.72534119602E+03  0.00000000000E+00 0.  1.
        -13    1    3    3    0    0  0.66003810155E+02  0.33267867050E+02  0.11363188632E+03  0.13555611208E+03  0.00000000000E+00 0. -1.
          4    1    5    5  502    0 -0.26988112280E+03 -0.27766401773E+03  0.40943350289E+03  0.56353253719E+03  0.00000000000E+00 0. -1.
          1    1    6    6  503    0 -0.38688066376E+02  0.20365556855E+02  0.13008870608E+03  0.13723918477E+03  0.00000000000E+00 0.  1.
         -4    1    5    5    0  502 -0.13623663894E+03 -0.25349996146E+03  0.29401366812E+03  0.41142033165E+03  0.00000000000E+00 0.  1.
         -1    1    6    6    0  503 -0.58298815018E+02  0.14753967006E+03  0.10779981291E+04  0.10896084950E+04  0.00000000000E+00 0. -1.
<mgrwt>
<rscale>  0 0.17681708E+04</rscale>
<asrwt>0</asrwt>
<pdfrwt beam="1">  1        1 0.42795658E+00 0.17681708E+04</pdfrwt>
<pdfrwt beam="2">  1       -1 0.43227691E-01 0.17681708E+04</pdfrwt>
<totfact> 0.42987562E+00</totfact>
</mgrwt>
</event>
<event>
12    1  0.4820219E-008  0.1594527E+04  0.7818608E-02  0.8823918E-01
          2   -1    0    0  501    0  0.00000000000E+00  0.00000000000E+00  0.78948606837E+03  0.78948606837E+03  0.00000000000E+00 0.  1.
         -2   -1    0    0    0  501 -0.00000000000E+00 -0.00000000000E+00 -0.80511716176E+03  0.80511716176E+03  0.00000000000E+00 0. -1.
         23    2    1    2    0    0 -0.52885388388E+03  0.61285445330E+02 -0.44464779370E+02  0.54250403929E+03  0.94293052485E+02 0.  0.
        254    2    1    2    0    0  0.52885388388E+03 -0.61285445330E+02  0.28833685977E+02  0.10520991908E+04  0.90699448157E+03 0.  0.
         23    2    4    4    0    0  0.67094618090E+03  0.59791828353E+02 -0.23240462249E+03  0.71852673165E+03  0.92330467057E+02 0.  0.
         23    2    4    4    0    0 -0.14209229702E+03 -0.12107727368E+03  0.26123830846E+03  0.33357245917E+03  0.90416838227E+02 0.  0.
         11    1    3    3    0    0 -0.39263888798E+02 -0.10375455260E+02  0.16739933369E+02  0.43926397583E+02  0.00000000000E+00 0. -1.
        -11    1    3    3    0    0 -0.48958999508E+03  0.71660900590E+02 -0.61204712739E+02  0.49857764171E+03  0.00000000000E+00 0.  1.
          4    1    5    5  502    0  0.28452254980E+03  0.25333781722E+02 -0.50646476931E+02  0.29010333929E+03  0.00000000000E+00 0. -1.
          3    1    6    6  503    0 -0.70235620032E+02 -0.64320576337E+02  0.60215675586E+02  0.11267700053E+03  0.00000000000E+00 0. -1.
         -4    1    5    5    0  502  0.38642363110E+03  0.34458046631E+02 -0.18175814556E+03  0.42842339236E+03  0.00000000000E+00 0.  1.
         -3    1    6    6    0  503 -0.71856676993E+02 -0.56756697345E+02  0.20102263288E+03  0.22089545865E+03  0.00000000000E+00 0.  1.
<mgrwt>
<rscale>  0 0.15945266E+04</rscale>
<asrwt>0</asrwt>
<pdfrwt beam="1">  1        2 0.12145940E+00 0.15945266E+04</pdfrwt>
<pdfrwt beam="2">  1       -2 0.12386418E+00 0.15945266E+04</pdfrwt>
<totfact> 0.16497495E+01</totfact>
</mgrwt>
</event>
<event>
12    1  0.4820219E-008  0.1723912E+04  0.7818608E-02  0.8747843E-01
         -2   -1    0    0    0  501 -0.00000000000E+00  0.00000000000E+00  0.21538627716E+03  0.21538627716E+03  0.00000000000E+00 0.  1.
          2   -1    0    0  501    0  0.00000000000E+00 -0.00000000000E+00 -0.34494682429E+04  0.34494682429E+04  0.00000000000E+00 0. -1.
         23    2    1    2    0    0  0.45221026898E+03  0.37261472781E+03 -0.16405795436E+04  0.17444779441E+04  0.91466910264E+02 0.  0.
        254    2    1    2    0    0 -0.45221026898E+03 -0.37261472781E+03 -0.15935024221E+04  0.19203765760E+04  0.89736300431E+03 0.  0.
         23    2    4    4    0    0 -0.12820526769E+03 -0.20125435772E+03 -0.15135160164E+04  0.15350135310E+04  0.92714082497E+02 0.  0.
         23    2    4    4    0    0 -0.32400500130E+03 -0.17136037009E+03 -0.79986405677E+02  0.38536304500E+03  0.88109216636E+02 0.  0.
         13    1    3    3    0    0 -0.34198301476E+01 -0.34290110304E+00 -0.44474592430E+01  0.56207395530E+01  0.00000000000E+00 0.  1.
        -13    1    3    3    0    0  0.45563009913E+03  0.37295762892E+03 -0.16361320844E+04  0.17388572045E+04  0.00000000000E+00 0. -1.
          2    1    5    5  502    0 -0.90828313839E+02 -0.18453537482E+03 -0.13834296407E+04  0.13986352841E+04  0.00000000000E+00 0. -1.
          1    1    6    6  503    0 -0.24307995940E+03 -0.11439277565E+03 -0.19458205329E+02  0.26935514760E+03  0.00000000000E+00 0. -1.
         -2    1    5    5    0  502 -0.37376953847E+02 -0.16718982898E+02 -0.13008637571E+03  0.13637824685E+03  0.00000000000E+00 0.  1.
         -1    1    6    6    0  503 -0.80925041893E+02 -0.56967594442E+02 -0.60528200348E+02  0.11600789740E+03  0.00000000000E+00 0.  1.
<mgrwt>
<rscale>  0 0.17239120E+04</rscale>
<asrwt>0</asrwt>
<pdfrwt beam="1">  1        2 0.53068741E+00 0.17239120E+04</pdfrwt>
<pdfrwt beam="2">  1       -2 0.33136351E-01 0.17239120E+04</pdfrwt>
<totfact> 0.71837437E+00</totfact>
</mgrwt>
</event>
<event>
12    1  0.4820219E-008  0.1549376E+04  0.7818608E-02  0.8852266E-01
         -2   -1    0    0    0  501 -0.00000000000E+00  0.00000000000E+00  0.38505508588E+03  0.38505508588E+03  0.00000000000E+00 0.  1.
          2   -1    0    0  501    0  0.00000000000E+00 -0.00000000000E+00 -0.15585865615E+04  0.15585865615E+04  0.00000000000E+00 0. -1.
         23    2    1    2    0    0  0.27851099824E+03  0.12862900379E+02  0.14320214914E+03  0.32625947427E+03  0.90579018997E+02 0.  0.
        254    2    1    2    0    0 -0.27851099824E+03 -0.12862900379E+02 -0.13167336247E+04  0.16173821731E+04  0.89688562535E+03 0.  0.
         23    2    4    4    0    0 -0.23851330701E+02  0.23979209395E+03 -0.12035845849E+04  0.12309730492E+04  0.92788257379E+02 0.  0.
         23    2    4    4    0    0 -0.25465966754E+03 -0.25265499433E+03 -0.11314903987E+03  0.38640912385E+03  0.88448930708E+02 0.  0.
         13    1    3    3    0    0  0.28072456395E+03  0.23900057334E+02  0.13967836678E+03  0.31446389251E+03  0.00000000000E+00 0.  1.
        -13    1    3    3    0    0 -0.22135657122E+01 -0.11037156955E+02  0.35237823621E+01  0.11795581755E+02  0.00000000000E+00 0. -1.
          3    1    6    6  502    0 -0.24397995539E+03 -0.21503798764E+03 -0.79438228988E+02  0.33478050568E+03  0.00000000000E+00 0. -1.
          3    1    5    5  503    0 -0.39858721692E+02  0.21581892384E+03 -0.91500517492E+03  0.94095748879E+03  0.00000000000E+00 0.  1.
         -3    1    5    5    0  503  0.16007390991E+02  0.23973170104E+02 -0.28857940995E+03  0.29001556044E+03  0.00000000000E+00 0. -1.
         -3    1    6    6    0  502 -0.10679712144E+02 -0.37617006691E+02 -0.33710810877E+02  0.51628618167E+02  0.00000000000E+00 0.  1.
<mgrwt>
<rscale>  0 0.15493762E+04</rscale>
<asrwt>0</asrwt>
<pdfrwt beam="1">  1        2 0.23978254E+00 0.15493762E+04</pdfrwt>
<pdfrwt beam="2">  1       -2 0.59239245E-01 0.15493762E+04</pdfrwt>
<totfact> 0.30128645E+01</totfact>
</mgrwt>
</event>
<event>
12    1  0.4820219E-008  0.2567055E+04  0.7818608E-02  0.8379479E-01
         -2   -1    0    0    0  501 -0.00000000000E+00  0.00000000000E+00  0.42973741807E+03  0.42973741807E+03  0.00000000000E+00 0.  1.
          2   -1    0    0  501    0  0.00000000000E+00 -0.00000000000E+00 -0.38336039199E+04  0.38336039199E+04  0.00000000000E+00 0. -1.
         23    2    1    2    0    0 -0.13461386586E+03 -0.90761498559E+03 -0.25779738085E+04  0.27378501793E+04  0.89380043183E+02 0.  0.
        254    2    1    2    0    0  0.13461386586E+03  0.90761498559E+03 -0.82589269334E+03  0.15254911587E+04  0.89618004849E+03 0.  0.
         23    2    4    4    0    0 -0.15285981338E+03  0.91554460226E+02  0.12679140069E+03  0.23586175900E+03  0.88353654897E+02 0.  0.
         23    2    4    4    0    0  0.28747367924E+03  0.81606052537E+03 -0.95268409402E+03  0.12896293997E+04  0.83313313262E+02 0.  0.
         13    1    3    3    0    0 -0.71754261692E+02 -0.45713405620E+03 -0.11677534882E+04  0.12560925239E+04  0.00000000000E+00 0. -1.
        -13    1    3    3    0    0 -0.62859604167E+02 -0.45048092939E+03 -0.14102203203E+04  0.14817576554E+04  0.00000000000E+00 0.  1.
          1    1    5    5  502    0 -0.80045658916E+02  0.89718073743E+02  0.50580188527E+02  0.13044154146E+03  0.00000000000E+00 0. -1.
          3    1    6    6  503    0  0.22788081474E+03  0.72766501281E+03 -0.82945138637E+03  0.11266834688E+04  0.00000000000E+00 0.  1.
         -1    1    5    5    0  502 -0.72814154467E+02  0.18363864829E+01  0.76211212159E+02  0.10542021753E+03  0.00000000000E+00 0.  1.
         -3    1    6    6    0  503  0.59592864503E+02  0.88395512554E+02 -0.12323270766E+03  0.16294593084E+03  0.00000000000E+00 0. -1.
<mgrwt>
<rscale>  0 0.25670552E+04</rscale>
<asrwt>0</asrwt>
<pdfrwt beam="1">  1        2 0.58978523E+00 0.25670552E+04</pdfrwt>
<pdfrwt beam="2">  1       -2 0.66113448E-01 0.25670552E+04</pdfrwt>
<totfact> 0.86586711E-01</totfact>
</mgrwt>
</event>
<event>
12    1  0.4820219E-008  0.1367706E+04  0.7818608E-02  0.8977532E-01
         -2   -1    0    0    0  501 -0.00000000000E+00  0.00000000000E+00  0.31947514923E+03  0.31947514923E+03  0.00000000000E+00 0.  1.
          2   -1    0    0  501    0  0.00000000000E+00 -0.00000000000E+00 -0.14638227110E+04  0.14638227110E+04  0.00000000000E+00 0. -1.
         23    2    1    2    0    0 -0.15177859493E+03 -0.32878536897E+03 -0.16213973604E+03  0.40691918944E+03  0.90318170962E+02 0.  0.
        254    2    1    2    0    0  0.15177859493E+03  0.32878536897E+03 -0.98220782570E+03  0.13763786707E+04  0.89361595314E+03 0.  0.
         23    2    4    4    0    0  0.42282107652E+03 -0.99271914322E+02 -0.38246738447E+03  0.58586001913E+03  0.91203542174E+02 0.  0.
         23    2    4    4    0    0 -0.27104248159E+03  0.42805728330E+03 -0.59974044123E+03  0.79051865162E+03  0.92380068798E+02 0.  0.
         13    1    3    3    0    0  0.11181799354E+02 -0.40626764308E+02 -0.16493933917E+02  0.45250596361E+02  0.00000000000E+00 0.  1.
        -13    1    3    3    0    0 -0.16296039429E+03 -0.28815860467E+03 -0.14564580212E+03  0.36166859308E+03  0.00000000000E+00 0. -1.
          1    1    5    5  502    0  0.93142940472E+02 -0.58769277348E+02 -0.75044372179E+02  0.13327075116E+03  0.00000000000E+00 0. -1.
          3    1    6    6  503    0 -0.14359509388E+03  0.29462404376E+03 -0.34376936575E+03  0.47497395189E+03  0.00000000000E+00 0. -1.
         -1    1    5    5    0  502  0.32967813605E+03 -0.40502636974E+02 -0.30742301229E+03  0.45258926796E+03  0.00000000000E+00 0.  1.
         -3    1    6    6    0  503 -0.12744738771E+03  0.13343323954E+03 -0.25597107548E+03  0.31554469973E+03  0.00000000000E+00 0.  1.
<mgrwt>
<rscale>  0 0.13677061E+04</rscale>
<asrwt>0</asrwt>
<pdfrwt beam="1">  1        2 0.22520349E+00 0.13677061E+04</pdfrwt>
<pdfrwt beam="2">  1       -2 0.49150024E-01 0.13677061E+04</pdfrwt>
<totfact> 0.50862234E+01</totfact>
</mgrwt>
</event>
<event>
12    1  0.4820219E-008  0.1279933E+04  0.7818608E-02  0.9045632E-01
         -1   -1    0    0    0  501 -0.00000000000E+00  0.00000000000E+00  0.47583548215E+03  0.47583548215E+03  0.00000000000E+00 0.  1.
          1   -1    0    0  501    0  0.00000000000E+00 -0.00000000000E+00 -0.86071109952E+03  0.86071109952E+03  0.00000000000E+00 0. -1.
         23    2    1    2    0    0  0.24578187160E+03  0.15365787410E+03  0.35444384365E+02  0.30594478649E+03  0.91249314077E+02 0.  0.
        254    2    1    2    0    0 -0.24578187160E+03 -0.15365787410E+03 -0.42032000174E+03  0.10306017952E+04  0.89523834015E+03 0.  0.
         23    2    4    4    0    0  0.54353707067E+02 -0.20213290048E+03 -0.61594601727E+03  0.65725836345E+03  0.93739133794E+02 0.  0.
         23    2    4    4    0    0 -0.30013557867E+03  0.48475026376E+02  0.19562601554E+03  0.37334343172E+03  0.93191127758E+02 0.  0.
         11    1    3    3    0    0  0.51656858848E+02  0.35715494599E+02 -0.29944428513E+02  0.69575113507E+02  0.00000000000E+00 0.  1.
        -11    1    3    3    0    0  0.19412501275E+03  0.11794237950E+03  0.65388812879E+02  0.23636967299E+03  0.00000000000E+00 0. -1.
          3    1    5    5  502    0  0.78766997003E+02 -0.12611566102E+03 -0.37375862425E+03  0.40224980917E+03  0.00000000000E+00 0. -1.
          3    1    6    6  503    0 -0.47644856019E+02 -0.24524580324E+01 -0.34071112998E+01  0.47829439291E+02  0.00000000000E+00 0. -1.
         -3    1    5    5    0  502 -0.24413289936E+02 -0.76017239454E+02 -0.24218739302E+03  0.25500855428E+03  0.00000000000E+00 0.  1.
         -3    1    6    6    0  503 -0.25249072265E+03  0.50927484408E+02  0.19903312684E+03  0.32551399243E+03  0.00000000000E+00 0.  1.
<mgrwt>
<rscale>  0 0.12799326E+04</rscale>
<asrwt>0</asrwt>
<pdfrwt beam="1">  1        1 0.13241709E+00 0.12799326E+04</pdfrwt>
<pdfrwt beam="2">  1       -1 0.73205459E-01 0.12799326E+04</pdfrwt>
<totfact> 0.36311278E+01</totfact>
</mgrwt>
</event>
<event>
12    1  0.4820219E-008  0.2164857E+04  0.7818608E-02  0.8533199E-01
         -2   -1    0    0    0  501 -0.00000000000E+00  0.00000000000E+00  0.13351520780E+04  0.13351520780E+04  0.00000000000E+00 0.  1.
          2   -1    0    0  501    0  0.00000000000E+00 -0.00000000000E+00 -0.87754186120E+03  0.87754186120E+03  0.00000000000E+00 0. -1.
         23    2    1    2    0    0 -0.69986112292E+03 -0.40908797286E+03 -0.18836977012E+03  0.83764342254E+03  0.94893477731E+02 0.  0.
        254    2    1    2    0    0  0.69986112292E+03  0.40908797286E+03  0.64597998693E+03  0.13750505167E+04  0.90350164302E+03 0.  0.
         23    2    4    4    0    0  0.73707979901E+02 -0.92523294877E+02 -0.16974707751E+03  0.22719044327E+03  0.93850949872E+02 0.  0.
         23    2    4    4    0    0  0.62615314302E+03  0.50161126774E+03  0.81572706444E+03  0.11478600734E+04  0.92143811478E+02 0.  0.
         11    1    3    3    0    0 -0.12013078956E+03 -0.11240419934E+03 -0.49016149780E+02  0.17166447964E+03  0.00000000000E+00 0.  1.
        -11    1    3    3    0    0 -0.57973033336E+03 -0.29668377352E+03 -0.13935362034E+03  0.66597894291E+03  0.00000000000E+00 0. -1.
          2    1    5    5  502    0  0.98353160726E+01 -0.84785375972E+02 -0.11135576594E+03  0.14030466859E+03  0.00000000000E+00 0. -1.
          1    1    6    6  503    0  0.39292455820E+03  0.26219199319E+03  0.44998513034E+03  0.65239632683E+03  0.00000000000E+00 0. -1.
         -2    1    5    5    0  502  0.63872663828E+02 -0.77379189048E+01 -0.58391311571E+02  0.86885774673E+02  0.00000000000E+00 0.  1.
         -1    1    6    6    0  503  0.23322858482E+03  0.23941927455E+03  0.36574193410E+03  0.49546374656E+03  0.00000000000E+00 0.  1.
<mgrwt>
<rscale>  0 0.21648574E+04</rscale>
<asrwt>0</asrwt>
<pdfrwt beam="1">  1        2 0.13500644E+00 0.21648574E+04</pdfrwt>
<pdfrwt beam="2">  1       -2 0.20540801E+00 0.21648574E+04</pdfrwt>
<totfact> 0.34126027E+00</totfact>
</mgrwt>
</event>
<event>
12    1  0.4820219E-008  0.2747510E+04  0.7818608E-02  0.8319752E-01
          1   -1    0    0  501    0  0.00000000000E+00  0.00000000000E+00  0.10389589945E+04  0.10389589945E+04  0.00000000000E+00 0. -1.
         -1   -1    0    0    0  501 -0.00000000000E+00 -0.00000000000E+00 -0.18164367604E+04  0.18164367604E+04  0.00000000000E+00 0.  1.
         23    2    1    2    0    0  0.11544404412E+04 -0.16546454841E+03 -0.71749797716E+03  0.13722069648E+04  0.89651314387E+02 0.  0.
        254    2    1    2    0    0 -0.11544404412E+04  0.16546454841E+03 -0.59979788738E+02  0.14831887901E+04  0.91440700074E+03 0.  0.
         23    2    4    4    0    0 -0.10547971072E+04 -0.95624727269E+02  0.21109580239E+03  0.10838252434E+04  0.91513357628E+02 0.  0.
         23    2    4    4    0    0 -0.99643333975E+02  0.26108927568E+03 -0.27107559113E+03  0.39936354669E+03  0.88954271629E+02 0.  0.
         13    1    3    3    0    0  0.61850055924E+03 -0.96369124633E+02 -0.43659858697E+03  0.76318298992E+03  0.00000000000E+00 0.  1.
        -13    1    3    3    0    0  0.53593988193E+03 -0.69095423779E+02 -0.28089939019E+03  0.60902397493E+03  0.00000000000E+00 0. -1.
          1    1    5    5  502    0 -0.27855416042E+03 -0.12721108299E+02  0.94995250031E+02  0.29458164303E+03  0.00000000000E+00 0. -1.
          3    1    6    6  503    0 -0.35222691307E+02  0.16449753055E+03 -0.20705033297E+03  0.26677690290E+03  0.00000000000E+00 0. -1.
         -1    1    5    5    0  502 -0.77624294677E+03 -0.82903618970E+02  0.11610055236E+03  0.78924360036E+03  0.00000000000E+00 0.  1.
         -3    1    6    6    0  503 -0.64420642668E+02  0.96591745133E+02 -0.64025258158E+02  0.13258664379E+03  0.00000000000E+00 0.  1.
<mgrwt>
<rscale>  0 0.27475104E+04</rscale>
<asrwt>0</asrwt>
<pdfrwt beam="1">  1        1 0.15983985E+00 0.27475104E+04</pdfrwt>
<pdfrwt beam="2">  1       -1 0.27945181E+00 0.27475104E+04</pdfrwt>
<totfact> 0.55065993E-01</totfact>
</mgrwt>
</event>
<event>
12    1  0.4820219E-008  0.1310911E+04  0.7818608E-02  0.9020957E-01
         -2   -1    0    0    0  501 -0.00000000000E+00  0.00000000000E+00  0.28746916953E+03  0.28746916953E+03  0.00000000000E+00 0.  1.
          2   -1    0    0  501    0  0.00000000000E+00 -0.00000000000E+00 -0.14944983336E+04  0.14944983336E+04  0.00000000000E+00 0. -1.
         23    2    1    2    0    0 -0.15656606448E+03  0.30099419273E+03 -0.38767068984E+03  0.52251423323E+03  0.87304774022E+02 0.  0.
        254    2    1    2    0    0  0.15656606448E+03 -0.30099419273E+03 -0.81935847426E+03  0.12594532699E+04  0.89429513762E+03 0.  0.
         23    2    4    4    0    0 -0.64284388272E+01 -0.59284705624E+03 -0.42878882058E+03  0.73715221104E+03  0.89579979187E+02 0.  0.
         23    2    4    4    0    0  0.16299450331E+03  0.29185286351E+03 -0.39056965369E+03  0.52230105889E+03  0.92241203838E+02 0.  0.
         11    1    3    3    0    0 -0.46809464534E+02  0.37802384139E+02 -0.37400947566E+02  0.70844739363E+02  0.00000000000E+00 0.  1.
        -11    1    3    3    0    0 -0.10975659995E+03  0.26319180859E+03 -0.35026974227E+03  0.45166949387E+03  0.00000000000E+00 0. -1.
          4    1    5    5  502    0 -0.30209678465E+01 -0.34175823279E+02 -0.24822991946E+01  0.34398763827E+02  0.00000000000E+00 0. -1.
          4    1    6    6  503    0  0.11973169190E+03  0.12711865567E+03 -0.17091955664E+03  0.24435287088E+03  0.00000000000E+00 0. -1.
         -4    1    5    5    0  502 -0.34074709807E+01 -0.55867123296E+03 -0.42630652138E+03  0.70275344721E+03  0.00000000000E+00 0.  1.
         -4    1    6    6    0  503  0.43262811403E+02  0.16473420784E+03 -0.21965009705E+03  0.27794818801E+03  0.00000000000E+00 0.  1.
<mgrwt>
<rscale>  0 0.13109114E+04</rscale>
<asrwt>0</asrwt>
<pdfrwt beam="1">  1        2 0.22992282E+00 0.13109114E+04</pdfrwt>
<pdfrwt beam="2">  1       -2 0.44226026E-01 0.13109114E+04</pdfrwt>
<totfact> 0.60692435E+01</totfact>
</mgrwt>
</event>
<event>
12    1  0.4820219E-008  0.1740305E+04  0.7818608E-02  0.8738705E-01
          2   -1    0    0  501    0  0.00000000000E+00  0.00000000000E+00  0.78772068911E+03  0.78772068911E+03  0.00000000000E+00 0. -1.
         -2   -1    0    0    0  501 -0.00000000000E+00 -0.00000000000E+00 -0.96121090563E+03  0.96121090563E+03  0.00000000000E+00 0.  1.
         23    2    1    2    0    0 -0.37523116290E+02  0.22708238486E+03 -0.65740834107E+03  0.70235576909E+03  0.90241374641E+02 0.  0.
        254    2    1    2    0    0  0.37523116290E+02 -0.22708238486E+03  0.48391812454E+03  0.10465758257E+04  0.89898265491E+03 0.  0.
         23    2    4    4    0    0  0.28024510011E+03  0.38224388062E+02  0.59030388033E+03  0.66095929273E+03  0.91706572954E+02 0.  0.
         23    2    4    4    0    0 -0.24272198382E+03 -0.26530677292E+03 -0.10638575579E+03  0.38561653293E+03  0.89891802999E+02 0.  0.
         13    1    3    3    0    0 -0.25451176160E+02  0.94847789420E+02 -0.40966792049E+03  0.42127386651E+03  0.00000000000E+00 0. -1.
        -13    1    3    3    0    0 -0.12071940131E+02  0.13223459544E+03 -0.24774042058E+03  0.28108190258E+03  0.00000000000E+00 0.  1.
          3    1    5    5  502    0  0.25791586378E+03  0.25873221100E+02  0.57616131365E+03  0.63178467511E+03  0.00000000000E+00 0. -1.
          3    1    6    6  503    0 -0.16833556281E+03 -0.14980789259E+03 -0.10407868720E+03  0.24821692030E+03  0.00000000000E+00 0. -1.
         -3    1    5    5    0  502  0.22329236337E+02  0.12351166961E+02  0.14142566689E+02  0.29174617620E+02  0.00000000000E+00 0.  1.
         -3    1    6    6    0  503 -0.74386421009E+02 -0.11549888032E+03 -0.23070685910E+01  0.13739961263E+03  0.00000000000E+00 0.  1.
<mgrwt>
<rscale>  0 0.17403054E+04</rscale>
<asrwt>0</asrwt>
<pdfrwt beam="1">  1        2 0.12118780E+00 0.17403054E+04</pdfrwt>
<pdfrwt beam="2">  1       -2 0.14787860E+00 0.17403054E+04</pdfrwt>
<totfact> 0.10373045E+01</totfact>
</mgrwt>
</event>
<event>
12    1  0.4820219E-008  0.2216469E+04  0.7818608E-02  0.8511605E-01
          2   -1    0    0  501    0  0.00000000000E+00  0.00000000000E+00  0.43204527263E+04  0.43204527263E+04  0.00000000000E+00 0. -1.
         -2   -1    0    0    0  501 -0.00000000000E+00 -0.00000000000E+00 -0.28427194929E+03  0.28427194929E+03  0.00000000000E+00 0.  1.
         23    2    1    2    0    0 -0.72689178350E+03  0.54749466511E+03  0.20552567537E+04  0.22496063156E+04  0.92337307035E+02 0.  0.
        254    2    1    2    0    0  0.72689178350E+03 -0.54749466511E+03  0.19809240233E+04  0.23551183600E+04  0.89129143954E+03 0.  0.
         23    2    4    4    0    0  0.37868788921E+03 -0.41700969860E+03  0.32682484159E+03  0.65757611818E+03  0.91050908612E+02 0.  0.
         23    2    4    4    0    0  0.34820389428E+03 -0.13048496651E+03  0.16540991817E+04  0.16975422418E+04  0.85634580011E+02 0.  0.
         11    1    3    3    0    0 -0.69534027588E+03  0.52290088019E+03  0.19076824087E+04  0.20967058931E+04  0.00000000000E+00 0. -1.
        -11    1    3    3    0    0 -0.31551507611E+02  0.24593784928E+02  0.14757434504E+03  0.15290042251E+03  0.00000000000E+00 0.  1.
          3    1    6    6  502    0  0.30737096469E+03 -0.92009071637E+02  0.14888412592E+04  0.15230203131E+04  0.00000000000E+00 0. -1.
          3    1    5    5  503    0  0.32440078609E+03 -0.31188663794E+03  0.28193522625E+03  0.53103353636E+03  0.00000000000E+00 0. -1.
         -3    1    5    5    0  503  0.54287103125E+02 -0.10512306066E+03  0.44889615342E+02  0.12654258182E+03  0.00000000000E+00 0.  1.
         -3    1    6    6    0  502  0.40832929596E+02 -0.38475894876E+02  0.16525792252E+03  0.17452192866E+03  0.00000000000E+00 0.  1.
<mgrwt>
<rscale>  0 0.22164688E+04</rscale>
<asrwt>0</asrwt>
<pdfrwt beam="1">  1        2 0.66468498E+00 0.22164688E+04</pdfrwt>
<pdfrwt beam="2">  1       -2 0.43734149E-01 0.22164688E+04</pdfrwt>
<totfact> 0.83049555E-01</totfact>
</mgrwt>
</event>
<event>
12    1  0.4820219E-008  0.1154783E+04  0.7818608E-02  0.9153383E-01
          1   -1    0    0  501    0  0.00000000000E+00  0.00000000000E+00  0.51910191796E+03  0.51910191796E+03  0.00000000000E+00 0. -1.
         -1   -1    0    0    0  501 -0.00000000000E+00 -0.00000000000E+00 -0.64222594956E+03  0.64222594956E+03  0.00000000000E+00 0.  1.
         23    2    1    2    0    0  0.32870367222E+02  0.12225807209E+03  0.14393505736E+03  0.21506133893E+03  0.97501700152E+02 0.  0.
        254    2    1    2    0    0 -0.32870367222E+02 -0.12225807209E+03 -0.26705908896E+03  0.94626652859E+03  0.89892841144E+03 0.  0.
         23    2    4    4    0    0  0.32857908397E+03  0.14741964190E+03  0.66156646201E+02  0.37860826538E+03  0.96284741984E+02 0.  0.
         23    2    4    4    0    0 -0.36144945119E+03 -0.26967771399E+03 -0.33321573516E+03  0.56765826320E+03  0.88495211352E+02 0.  0.
         11    1    3    3    0    0  0.48023666560E+02  0.13364776620E+02  0.44333774591E+02  0.66711118814E+02  0.00000000000E+00 0. -1.
        -11    1    3    3    0    0 -0.15153299338E+02  0.10889329547E+03  0.99601282772E+02  0.14835022012E+03  0.00000000000E+00 0.  1.
          1    1    5    5  502    0  0.15024366523E+03  0.94223789284E+02 -0.97729735577E+01  0.17761416729E+03  0.00000000000E+00 0. -1.
          3    1    6    6  503    0 -0.15171327784E+03 -0.15616415051E+03 -0.12491558254E+03  0.25101407000E+03  0.00000000000E+00 0. -1.
         -1    1    5    5    0  502  0.17833541874E+03  0.53195852616E+02  0.75929619759E+02  0.20099409809E+03  0.00000000000E+00 0.  1.
         -3    1    6    6    0  503 -0.20973617335E+03 -0.11351356348E+03 -0.20830015262E+03  0.31664419320E+03  0.00000000000E+00 0.  1.
<mgrwt>
<rscale>  0 0.11547826E+04</rscale>
<asrwt>0</asrwt>
<pdfrwt beam="1">  1        1 0.79861834E-01 0.11547826E+04</pdfrwt>
<pdfrwt beam="2">  1       -1 0.98803992E-01 0.11547826E+04</pdfrwt>
<totfact> 0.40946489E+01</totfact>
</mgrwt>
</event>
<event>
12    1  0.4820219E-008  0.2202654E+04  0.7818608E-02  0.8517324E-01
          2   -1    0    0  501    0  0.00000000000E+00  0.00000000000E+00  0.32536946996E+04  0.32536946996E+04  0.00000000000E+00 0. -1.
         -2   -1    0    0    0  501 -0.00000000000E+00 -0.00000000000E+00 -0.37278271818E+03  0.37278271818E+03  0.00000000000E+00 0.  1.
         23    2    1    2    0    0  0.14973248108E+02  0.89714547990E+03  0.13814989150E+04  0.16499436252E+04  0.93169222504E+02 0.  0.
        254    2    1    2    0    0 -0.14973248108E+02 -0.89714547990E+03  0.14994130665E+04  0.19765337926E+04  0.92377057710E+03 0.  0.
         23    2    4    4    0    0  0.46139715525E+02 -0.96303729681E+03  0.15588919128E+04  0.18352269652E+04  0.91347192348E+02 0.  0.
         23    2    4    4    0    0 -0.61112963634E+02  0.65891816905E+02 -0.59478846292E+02  0.14130682745E+03  0.91396720223E+02 0.  0.
         11    1    3    3    0    0  0.16549764255E+01  0.88116939957E+03  0.13453424777E+04  0.16082315231E+04  0.00000000000E+00 0. -1.
        -11    1    3    3    0    0  0.13318271683E+02  0.15976080333E+02  0.36156437275E+02  0.41712102079E+02  0.00000000000E+00 0.  1.
          2    1    5    5  502    0  0.89649244711E+01 -0.35914309561E+03  0.66473429828E+03  0.75560295149E+03  0.00000000000E+00 0. -1.
          3    1    6    6  503    0 -0.79193895345E+02  0.68392092100E+02 -0.63793186057E+02  0.12255089518E+03  0.00000000000E+00 0.  1.
         -2    1    5    5    0  502  0.37174791054E+02 -0.60389420120E+03  0.89415761449E+03  0.10796240137E+04  0.00000000000E+00 0.  1.
         -3    1    6    6    0  503  0.18080931711E+02 -0.25002751951E+01  0.43143397656E+01  0.18755932267E+02  0.00000000000E+00 0. -1.
<mgrwt>
<rscale>  0 0.22026540E+04</rscale>
<asrwt>0</asrwt>
<pdfrwt beam="1">  1        2 0.50056840E+00 0.22026540E+04</pdfrwt>
<pdfrwt beam="2">  1       -2 0.57351190E-01 0.22026540E+04</pdfrwt>
<totfact> 0.31191552E+00</totfact>
</mgrwt>
</event>
<event>
12    1  0.4820219E-008  0.1527570E+04  0.7818608E-02  0.8866323E-01
          2   -1    0    0  501    0  0.00000000000E+00  0.00000000000E+00  0.78250222179E+03  0.78250222179E+03  0.00000000000E+00 0. -1.
         -2   -1    0    0    0  501 -0.00000000000E+00 -0.00000000000E+00 -0.74551555870E+03  0.74551555870E+03  0.00000000000E+00 0.  1.
         23    2    1    2    0    0  0.21931942497E+03  0.79065447423E+01  0.45551446552E+03  0.51307183128E+03  0.87096223439E+02 0.  0.
        254    2    1    2    0    0 -0.21931942497E+03 -0.79065447423E+01 -0.41852780243E+03  0.10149459492E+04  0.89821280038E+03 0.  0.
         23    2    4    4    0    0  0.33379324520E+02 -0.46605614617E+02 -0.64970099510E+03  0.65815448649E+03  0.88145802091E+02 0.  0.
         23    2    4    4    0    0 -0.25269874949E+03  0.38699069875E+02  0.23117319267E+03  0.35679146271E+03  0.92221618133E+02 0.  0.
         13    1    3    3    0    0  0.20154498215E+03 -0.28947525807E+01  0.33648108599E+03  0.39223498142E+03  0.00000000000E+00 0. -1.
        -13    1    3    3    0    0  0.17774442821E+02  0.10801297323E+02  0.11903337954E+03  0.12083684987E+03  0.00000000000E+00 0.  1.
          2    1    5    5  502    0 -0.26901651711E+02 -0.20727926330E+02 -0.13136883632E+03  0.13568757110E+03  0.00000000000E+00 0. -1.
          4    1    6    6  503    0 -0.10009229708E+03  0.23590882850E+02  0.15383506049E+03  0.18504114009E+03  0.00000000000E+00 0. -1.
         -2    1    5    5    0  502  0.60280976231E+02 -0.25877688286E+02 -0.51833215879E+03  0.52246691539E+03  0.00000000000E+00 0.  1.
         -4    1    6    6    0  503 -0.15260645241E+03  0.15108187025E+02  0.77338132179E+02  0.17175032262E+03  0.00000000000E+00 0.  1.
<mgrwt>
<rscale>  0 0.15275701E+04</rscale>
<asrwt>0</asrwt>
<pdfrwt beam="1">  1        2 0.12038496E+00 0.15275701E+04</pdfrwt>
<pdfrwt beam="2">  1       -2 0.11469470E+00 0.15275701E+04</pdfrwt>
<totfact> 0.20298996E+01</totfact>
</mgrwt>
</event>
<event>
12    1  0.4820219E-008  0.2881668E+04  0.7818608E-02  0.8278353E-01
         -2   -1    0    0    0  501 -0.00000000000E+00  0.00000000000E+00  0.68948543142E+03  0.68948543142E+03  0.00000000000E+00 0.  1.
          2   -1    0    0  501    0  0.00000000000E+00 -0.00000000000E+00 -0.30109450549E+04  0.30109450549E+04  0.00000000000E+00 0. -1.
         23    2    1    2    0    0  0.12791214960E+04 -0.11388912178E+03 -0.13078381425E+04  0.18356504928E+04  0.10024764881E+03 0.  0.
        254    2    1    2    0    0 -0.12791214960E+04  0.11388912178E+03 -0.10136214810E+04  0.18647799936E+04  0.89490412006E+03 0.  0.
         23    2    4    4    0    0 -0.12590357473E+04  0.28245938577E+03 -0.63808127362E+03  0.14426646015E+04  0.95807740245E+02 0.  0.
         23    2    4    4    0    0 -0.20085748676E+02 -0.16857026399E+03 -0.37554020740E+03  0.42211539207E+03  0.91277519918E+02 0.  0.
         11    1    3    3    0    0  0.11197693249E+04 -0.70819126904E+02 -0.11636898745E+04  0.16165001744E+04  0.00000000000E+00 0.  1.
        -11    1    3    3    0    0  0.15935217109E+03 -0.43069994878E+02 -0.14414826796E+03  0.21915031838E+03  0.00000000000E+00 0. -1.
          4    1    5    5  502    0 -0.31513570145E+03  0.75051156011E+02 -0.20717300215E+03  0.38453067389E+03  0.00000000000E+00 0. -1.
          4    1    6    6  503    0  0.23445062316E+02 -0.48902024242E+02 -0.55151687638E+02  0.77348481377E+02  0.00000000000E+00 0. -1.
         -4    1    5    5    0  502 -0.94390004587E+03  0.20740822976E+03 -0.43090827147E+03  0.10581339276E+04  0.00000000000E+00 0.  1.
         -4    1    6    6    0  503 -0.43530810992E+02 -0.11966823975E+03 -0.32038851976E+03  0.34476691069E+03  0.00000000000E+00 0.  1.
<mgrwt>
<rscale>  0 0.28816681E+04</rscale>
<asrwt>0</asrwt>
<pdfrwt beam="1">  1        2 0.46322232E+00 0.28816681E+04</pdfrwt>
<pdfrwt beam="2">  1       -2 0.10607468E+00 0.28816681E+04</pdfrwt>
<totfact> 0.10620318E+00</totfact>
</mgrwt>
</event>
<event>
12    1  0.4820219E-008  0.1557799E+04  0.7818608E-02  0.8846901E-01
          1   -1    0    0  501    0  0.00000000000E+00  0.00000000000E+00  0.80762399798E+03  0.80762399798E+03  0.00000000000E+00 0. -1.
         -1   -1    0    0    0  501 -0.00000000000E+00 -0.00000000000E+00 -0.75119668826E+03  0.75119668826E+03  0.00000000000E+00 0.  1.
         23    2    1    2    0    0 -0.44782897801E+03 -0.48770628061E+02  0.25267628557E+03  0.52444570245E+03  0.90931962605E+02 0.  0.
        254    2    1    2    0    0  0.44782897801E+03  0.48770628061E+02 -0.19624897585E+03  0.10343749838E+04  0.91021347982E+03 0.  0.
         23    2    4    4    0    0  0.61040896030E+03 -0.24458929773E+03 -0.86136255102E+02  0.66961820316E+03  0.92444903540E+02 0.  0.
         23    2    4    4    0    0 -0.16257998228E+03  0.29335992579E+03 -0.11011272075E+03  0.36475678062E+03  0.91817215382E+02 0.  0.
         11    1    3    3    0    0 -0.27006290349E+03  0.12756207889E+02  0.16662431050E+03  0.31758519098E+03  0.00000000000E+00 0. -1.
        -11    1    3    3    0    0 -0.17776607453E+03 -0.61526835950E+02  0.86051975073E+02  0.20686051148E+03  0.00000000000E+00 0.  1.
          3    1    5    5  502    0  0.22277421276E+03 -0.13543309796E+03 -0.19589872640E+02  0.26144643238E+03  0.00000000000E+00 0. -1.
          3    1    6    6  503    0 -0.68093465076E+02  0.18667872954E+03 -0.29095450693E+02  0.20082881591E+03  0.00000000000E+00 0. -1.
         -3    1    5    5    0  502  0.38763474753E+03 -0.10915619977E+03 -0.66546382462E+02  0.40817177078E+03  0.00000000000E+00 0.  1.
         -3    1    6    6    0  503 -0.94486517208E+02  0.10668119625E+03 -0.81017270057E+02  0.16392796471E+03  0.00000000000E+00 0.  1.
<mgrwt>
<rscale>  0 0.15577991E+04</rscale>
<asrwt>0</asrwt>
<pdfrwt beam="1">  1        1 0.12424985E+00 0.15577991E+04</pdfrwt>
<pdfrwt beam="2">  1       -1 0.11556872E+00 0.15577991E+04</pdfrwt>
<totfact> 0.14224842E+01</totfact>
</mgrwt>
</event>
<event>
12    1  0.4820219E-008  0.1186914E+04  0.7818608E-02  0.9124388E-01
          2   -1    0    0  501    0  0.00000000000E+00  0.00000000000E+00  0.12097522136E+04  0.12097522136E+04  0.00000000000E+00 0.  1.
         -2   -1    0    0    0  501 -0.00000000000E+00 -0.00000000000E+00 -0.29112669051E+03  0.29112669051E+03  0.00000000000E+00 0. -1.
         23    2    1    2    0    0 -0.27255440219E+03 -0.15000803879E+02  0.15658023992E+03  0.32918478871E+03  0.96614322496E+02 0.  0.
        254    2    1    2    0    0  0.27255440219E+03  0.15000803879E+02  0.76204528314E+03  0.11716941154E+04  0.84713821787E+03 0.  0.
         23    2    4    4    0    0  0.40781878701E+03 -0.23043371164E+03  0.73341462032E+03  0.87534058085E+03  0.94383625073E+02 0.  0.
         23    2    4    4    0    0 -0.13526438482E+03  0.24543451552E+03  0.28630662825E+02  0.29635353453E+03  0.92038836184E+02 0.  0.
         11    1    3    3    0    0 -0.94421427171E+02 -0.16790706128E+02  0.10821220373E+03  0.14459327356E+03  0.00000000000E+00 0.  1.
        -11    1    3    3    0    0 -0.17813297502E+03  0.17899022493E+01  0.48368036181E+02  0.18459151515E+03  0.00000000000E+00 0. -1.
          4    1    5    5  502    0  0.64180786413E+02 -0.19826313088E+01  0.11897373807E+03  0.13519561576E+03  0.00000000000E+00 0. -1.
          3    1    6    6  503    0 -0.53852831767E+02  0.34178421392E+02  0.28726234453E+02  0.69953473996E+02  0.00000000000E+00 0. -1.
         -4    1    5    5    0  502  0.34363800060E+03 -0.22845108033E+03  0.61444088225E+03  0.74014496508E+03  0.00000000000E+00 0.  1.
         -3    1    6    6    0  503 -0.81411553052E+02  0.21125609413E+03 -0.95571628342E-01  0.22640006054E+03  0.00000000000E+00 0.  1.
<mgrwt>
<rscale>  0 0.11869139E+04</rscale>
<asrwt>0</asrwt>
<pdfrwt beam="1">  1        2 0.18611572E+00 0.11869139E+04</pdfrwt>
<pdfrwt beam="2">  1       -2 0.44788722E-01 0.11869139E+04</pdfrwt>
<totfact> 0.87209043E+01</totfact>
</mgrwt>
</event>
<event>
12    1  0.4820219E-008  0.1486142E+04  0.7818608E-02  0.8893721E-01
          1   -1    0    0  501    0  0.00000000000E+00  0.00000000000E+00  0.13697709422E+04  0.13697709422E+04  0.00000000000E+00 0. -1.
         -1   -1    0    0    0  501 -0.00000000000E+00 -0.00000000000E+00 -0.40310006381E+03  0.40310006381E+03  0.00000000000E+00 0.  1.
         23    2    1    2    0    0 -0.58459005108E+02 -0.65030114206E+02 -0.23784531572E+03  0.27084845675E+03  0.95614440765E+02 0.  0.
        254    2    1    2    0    0  0.58459005108E+02  0.65030114206E+02  0.12045161941E+04  0.15020225493E+04  0.89306556623E+03 0.  0.
         23    2    4    4    0    0  0.43009151923E+03  0.58342932559E+02  0.93362254753E+03  0.10336954203E+04  0.92155021433E+02 0.  0.
         23    2    4    4    0    0 -0.37163251413E+03  0.66871816472E+01  0.27089364657E+03  0.46832712897E+03  0.88269405895E+02 0.  0.
         13    1    3    3    0    0  0.43411742976E+01 -0.27295874654E+02 -0.67972089492E+01  0.28462477351E+02  0.00000000000E+00 0. -1.
        -13    1    3    3    0    0 -0.62800179405E+02 -0.37734239552E+02 -0.23104810677E+03  0.24238597940E+03  0.00000000000E+00 0.  1.
          4    1    5    5  502    0  0.40026228483E+01 -0.11277551608E+02  0.25045016028E+02  0.27757106978E+02  0.00000000000E+00 0. -1.
          3    1    6    6  503    0 -0.21855824440E+03 -0.10028340554E+01  0.21094131436E+03  0.30375146087E+03  0.00000000000E+00 0. -1.
         -4    1    5    5    0  502  0.42608889639E+03  0.69620484167E+02  0.90857753150E+03  0.10059383133E+04  0.00000000000E+00 0.  1.
         -3    1    6    6    0  503 -0.15307426973E+03  0.76900157026E+01  0.59952332209E+02  0.16457566810E+03  0.00000000000E+00 0.  1.
<mgrwt>
<rscale>  0 0.14861423E+04</rscale>
<asrwt>0</asrwt>
<pdfrwt beam="1">  1        1 0.21073399E+00 0.14861423E+04</pdfrwt>
<pdfrwt beam="2">  1       -1 0.62015395E-01 0.14861423E+04</pdfrwt>
<totfact> 0.20608084E+01</totfact>
</mgrwt>
</event>
<event>
12    1  0.4820219E-008  0.2524581E+04  0.7818608E-02  0.8394280E-01
         -2   -1    0    0    0  501 -0.00000000000E+00  0.00000000000E+00  0.85455344545E+03  0.85455344545E+03  0.00000000000E+00 0.  1.
          2   -1    0    0  501    0  0.00000000000E+00 -0.00000000000E+00 -0.18645731140E+04  0.18645731140E+04  0.00000000000E+00 0. -1.
         23    2    1    2    0    0  0.25494235875E+03 -0.76418471021E+03  0.36433598075E+03  0.88902196369E+03  0.92981005833E+02 0.  0.
        254    2    1    2    0    0 -0.25494235875E+03  0.76418471021E+03 -0.13743556493E+04  0.18301045958E+04  0.90080824989E+03 0.  0.
         23    2    4    4    0    0 -0.72034112913E+02  0.87807400633E+03 -0.13193413711E+04  0.15894836599E+04  0.97947830318E+02 0.  0.
         23    2    4    4    0    0 -0.18290824584E+03 -0.11388929612E+03 -0.55014278221E+02  0.24062093592E+03  0.91900303728E+02 0.  0.
         11    1    3    3    0    0  0.66780803214E+02 -0.24991088682E+03  0.73253958290E+02  0.26885176108E+03  0.00000000000E+00 0. -1.
        -11    1    3    3    0    0  0.18816155554E+03 -0.51427382339E+03  0.29108202246E+03  0.62017020261E+03  0.00000000000E+00 0.  1.
          4    1    5    5  502    0  0.12603254694E+02  0.11474940708E+03 -0.21998876744E+03  0.24843777139E+03  0.00000000000E+00 0.  1.
          3    1    6    6  503    0 -0.16675535085E+03 -0.10869415463E+03 -0.17953023388E+02  0.19986014444E+03  0.00000000000E+00 0. -1.
         -4    1    5    5    0  502 -0.84637367608E+02  0.76332459925E+03 -0.10993526037E+04  0.13410458885E+04  0.00000000000E+00 0. -1.
         -3    1    6    6    0  503 -0.16152894990E+02 -0.51951414914E+01 -0.37061254833E+02  0.40760791472E+02  0.00000000000E+00 0.  1.
<mgrwt>
<rscale>  0 0.25245811E+04</rscale>
<asrwt>0</asrwt>
<pdfrwt beam="1">  1        2 0.28685740E+00 0.25245811E+04</pdfrwt>
<pdfrwt beam="2">  1       -2 0.13146976E+00 0.25245811E+04</pdfrwt>
<totfact> 0.29851874E+00</totfact>
</mgrwt>
</event>
<event>
12    1  0.4820219E-008  0.1647493E+04  0.7818608E-02  0.8791891E-01
         -2   -1    0    0    0  501 -0.00000000000E+00  0.00000000000E+00  0.31850792828E+03  0.31850792828E+03  0.00000000000E+00 0.  1.
          2   -1    0    0  501    0  0.00000000000E+00 -0.00000000000E+00 -0.21304287532E+04  0.21304287532E+04  0.00000000000E+00 0. -1.
         23    2    1    2    0    0  0.32691926219E+03 -0.44253788955E+03 -0.43190367952E+03  0.70719271792E+03  0.10423417976E+03 0.  0.
        254    2    1    2    0    0 -0.32691926219E+03  0.44253788955E+03 -0.13800171454E+04  0.17417439636E+04  0.90912525282E+03 0.  0.
         23    2    4    4    0    0  0.20152938495E+03  0.37022564434E+03 -0.97197632514E+03  0.10642025973E+04  0.10053890119E+03 0.  0.
         23    2    4    4    0    0 -0.52844864714E+03  0.72312245203E+02 -0.40804082029E+03  0.67754136632E+03  0.89877464287E+02 0.  0.
         13    1    3    3    0    0  0.36053756301E+02 -0.83461389262E+02 -0.11621370462E+03  0.14755101485E+03  0.00000000000E+00 0. -1.
        -13    1    3    3    0    0  0.29086550589E+03 -0.35907650029E+03 -0.31568997490E+03  0.55964170308E+03  0.00000000000E+00 0.  1.
          2    1    5    5  502    0  0.21953802767E+02  0.13504942408E+03 -0.28123263288E+03  0.31274927689E+03  0.00000000000E+00 0. -1.
          1    1    6    6  503    0 -0.11663169593E+03  0.12806292192E+02 -0.13964565038E+03  0.18239479512E+03  0.00000000000E+00 0. -1.
         -2    1    5    5    0  502  0.17957558218E+03  0.23517622027E+03 -0.69074369226E+03  0.75145332037E+03  0.00000000000E+00 0.  1.
         -1    1    6    6    0  503 -0.41181695121E+03  0.59505953011E+02 -0.26839516991E+03  0.49514657120E+03  0.00000000000E+00 0.  1.
<mgrwt>
<rscale>  0 0.16474932E+04</rscale>
<asrwt>0</asrwt>
<pdfrwt beam="1">  1        2 0.32775827E+00 0.16474932E+04</pdfrwt>
<pdfrwt beam="2">  1       -2 0.49001219E-01 0.16474932E+04</pdfrwt>
<totfact> 0.21295554E+01</totfact>
</mgrwt>
</event>
<event>
12    1  0.4820219E-008  0.2684374E+04  0.7818608E-02  0.8340093E-01
          1   -1    0    0  501    0  0.00000000000E+00  0.00000000000E+00  0.19768225131E+04  0.19768225131E+04  0.00000000000E+00 0. -1.
         -1   -1    0    0    0  501 -0.00000000000E+00 -0.00000000000E+00 -0.91129400399E+03  0.91129400399E+03  0.00000000000E+00 0.  1.
         23    2    1    2    0    0 -0.39234838419E+03  0.47929674312E+03 -0.61742729971E+03  0.87908803824E+03  0.88975760809E+02 0.  0.
        254    2    1    2    0    0  0.39234838419E+03 -0.47929674312E+03  0.16829558088E+04  0.20090284788E+04  0.90564482654E+03 0.  0.
         23    2    4    4    0    0  0.38127384727E+03  0.14032007965E+03  0.38127154909E+03  0.56445679068E+03  0.90465479789E+02 0.  0.
         23    2    4    4    0    0  0.11074536919E+02 -0.61961682278E+03  0.13016842597E+04  0.14445716882E+04  0.91420992083E+02 0.  0.
         13    1    3    3    0    0 -0.25660825592E+03  0.27954770741E+03 -0.42920373934E+03  0.57289664652E+03  0.00000000000E+00 0.  1.
        -13    1    3    3    0    0 -0.13574012827E+03  0.19974903571E+03 -0.18822356037E+03  0.30619139173E+03  0.00000000000E+00 0. -1.
          2    1    5    5  502    0  0.18553027546E+03  0.11632033975E+03  0.20434692695E+03  0.29951556071E+03  0.00000000000E+00 0. -1.
          4    1    6    6  503    0  0.38102665277E+02 -0.51947060826E+03  0.10418482225E+04  0.11647957952E+04  0.00000000000E+00 0. -1.
         -2    1    5    5    0  502  0.19574357181E+03  0.23999739905E+02  0.17692462214E+03  0.26494122997E+03  0.00000000000E+00 0.  1.
         -4    1    6    6    0  503 -0.27028128358E+02 -0.10014621452E+03  0.25983603725E+03  0.27977589292E+03  0.00000000000E+00 0.  1.
<mgrwt>
<rscale>  0 0.26843744E+04</rscale>
<asrwt>0</asrwt>
<pdfrwt beam="1">  1        1 0.30412654E+00 0.26843744E+04</pdfrwt>
<pdfrwt beam="2">  1       -1 0.14019908E+00 0.26843744E+04</pdfrwt>
<totfact> 0.11280549E+00</totfact>
</mgrwt>
</event>
<event>
12    1  0.4820219E-008  0.2753024E+04  0.7818608E-02  0.8318003E-01
          2   -1    0    0  501    0  0.00000000000E+00  0.00000000000E+00  0.24032349977E+04  0.24032349977E+04  0.00000000000E+00 0. -1.
         -2   -1    0    0    0  501 -0.00000000000E+00 -0.00000000000E+00 -0.78843089572E+03  0.78843089572E+03  0.00000000000E+00 0.  1.
         23    2    1    2    0    0  0.22407515494E+03  0.98908191071E+03  0.15174182109E+04  0.18274400044E+04  0.92120799063E+02 0.  0.
        254    2    1    2    0    0 -0.22407515494E+03 -0.98908191071E+03  0.97385891055E+02  0.13642258890E+04  0.90726818714E+03 0.  0.
         23    2    4    4    0    0 -0.40927335952E+02 -0.12472329785E+03 -0.33894803437E+03  0.37496422376E+03  0.92094794869E+02 0.  0.
         23    2    4    4    0    0 -0.18314781899E+03 -0.86435861286E+03  0.43633392542E+03  0.98926166529E+03  0.87134451849E+02 0.  0.
         11    1    3    3    0    0  0.12579260024E+01  0.36773351361E+02  0.88727956758E+02  0.96054734702E+02  0.00000000000E+00 0.  1.
        -11    1    3    3    0    0  0.22281722894E+03  0.95230855935E+03  0.14286902542E+04  0.17313852697E+04  0.00000000000E+00 0. -1.
          1    1    6    6  502    0 -0.13684320802E+01 -0.11765032834E+03  0.37963815821E+02  0.12363140247E+03  0.00000000000E+00 0.  1.
          1    1    5    5  503    0 -0.23495905147E+02 -0.29823940861E+02 -0.21272630389E+03  0.21608795750E+03  0.00000000000E+00 0. -1.
         -1    1    5    5    0  503 -0.17431430804E+02 -0.94899356992E+02 -0.12622173048E+03  0.15887626626E+03  0.00000000000E+00 0.  1.
         -1    1    6    6    0  502 -0.18177938691E+03 -0.74670828452E+03  0.39837010960E+03  0.86563026282E+03  0.00000000000E+00 0. -1.
<mgrwt>
<rscale>  0 0.27530236E+04</rscale>
<asrwt>0</asrwt>
<pdfrwt beam="1">  1        2 0.36972846E+00 0.27530236E+04</pdfrwt>
<pdfrwt beam="2">  1       -2 0.12129706E+00 0.27530236E+04</pdfrwt>
<totfact> 0.17872583E+00</totfact>
</mgrwt>
</event>
<event>
12    1  0.4820219E-008  0.1744794E+04  0.7818608E-02  0.8736221E-01
         -2   -1    0    0    0  501 -0.00000000000E+00  0.00000000000E+00  0.10453680720E+04  0.10453680720E+04  0.00000000000E+00 0.  1.
          2   -1    0    0  501    0  0.00000000000E+00 -0.00000000000E+00 -0.72804613589E+03  0.72804613589E+03  0.00000000000E+00 0. -1.
         23    2    1    2    0    0 -0.25816559718E+03 -0.44162942590E+03  0.50161946297E+03  0.72222498811E+03  0.91108849344E+02 0.  0.
        254    2    1    2    0    0  0.25816559718E+03  0.44162942590E+03 -0.18429752688E+03  0.10511892198E+04  0.89963724464E+03 0.  0.
         23    2    4    4    0    0  0.18783866022E+03  0.46999238155E+03  0.27061113046E+03  0.58092797561E+03  0.89837230219E+02 0.  0.
         23    2    4    4    0    0  0.70326936964E+02 -0.28362955651E+02 -0.45490865734E+03  0.47026124415E+03  0.91942459799E+02 0.  0.
         13    1    3    3    0    0 -0.50347129569E+02 -0.74788174352E+02  0.45131144240E+02  0.10082125103E+03  0.00000000000E+00 0. -1.
        -13    1    3    3    0    0 -0.20781846761E+03 -0.36684125154E+03  0.45648831873E+03  0.62140373708E+03  0.00000000000E+00 0.  1.
          2    1    5    5  502    0  0.12328313287E+03  0.25643194757E+03  0.19669760630E+03  0.34589886225E+03  0.00000000000E+00 0. -1.
          4    1    6    6  503    0  0.50947087452E+02  0.12585783484E+02 -0.37287178053E+03  0.37654664038E+03  0.00000000000E+00 0. -1.
         -2    1    5    5    0  502  0.64555527352E+02  0.21356043398E+03  0.73913524160E+02  0.23502911336E+03  0.00000000000E+00 0.  1.
         -4    1    6    6    0  503  0.19379849513E+02 -0.40948739135E+02 -0.82036876816E+02  0.93714603780E+02  0.00000000000E+00 0.  1.
<mgrwt>
<rscale>  0 0.17447936E+04</rscale>
<asrwt>0</asrwt>
<pdfrwt beam="1">  1        2 0.11200710E+00 0.17447936E+04</pdfrwt>
<pdfrwt beam="2">  1       -2 0.16082586E+00 0.17447936E+04</pdfrwt>
<totfact> 0.91721044E+00</totfact>
</mgrwt>
</event>
<event>
12    1  0.4820219E-008  0.1589161E+04  0.7818608E-02  0.8827235E-01
         -1   -1    0    0    0  501 -0.00000000000E+00  0.00000000000E+00  0.48576277606E+03  0.48576277606E+03  0.00000000000E+00 0.  1.
          1   -1    0    0  501    0  0.00000000000E+00 -0.00000000000E+00 -0.12997251161E+04  0.12997251161E+04  0.00000000000E+00 0. -1.
         23    2    1    2    0    0  0.50055076745E+03 -0.17802077841E+03 -0.28372329725E+03  0.60906810443E+03  0.90678432373E+02 0.  0.
        254    2    1    2    0    0 -0.50055076745E+03  0.17802077841E+03 -0.53023904283E+03  0.11764197878E+04  0.90585186767E+03 0.  0.
         23    2    4    4    0    0  0.15556295613E+03  0.16738638805E+03 -0.44571550809E+03  0.50900973158E+03  0.90612120988E+02 0.  0.
         23    2    4    4    0    0 -0.65611372357E+03  0.10634390353E+02 -0.84523534740E+02  0.66741005618E+03  0.87713434823E+02 0.  0.
         13    1    3    3    0    0  0.21680418736E+03 -0.82969074698E+02 -0.17490043385E+03  0.29065113930E+03  0.00000000000E+00 0.  1.
        -13    1    3    3    0    0  0.28374658008E+03 -0.95051703709E+02 -0.10882286340E+03  0.31841696514E+03  0.00000000000E+00 0. -1.
          2    1    5    5  502    0  0.59909428316E+02  0.49821692710E+02 -0.24758586751E+03  0.25955751281E+03  0.00000000000E+00 0.  1.
          1    1    6    6  503    0 -0.22306794021E+03 -0.45505422440E+01 -0.70064702874E+02  0.23385695623E+03  0.00000000000E+00 0. -1.
         -2    1    5    5    0  502  0.95653527812E+02  0.11756469534E+03 -0.19812964057E+03  0.24945221877E+03  0.00000000000E+00 0. -1.
         -1    1    6    6    0  503 -0.43304578336E+03  0.15184932597E+02 -0.14458831866E+02  0.43355309996E+03  0.00000000000E+00 0.  1.
<mgrwt>
<rscale>  0 0.15891609E+04</rscale>
<asrwt>0</asrwt>
<pdfrwt beam="1">  1        1 0.19995771E+00 0.15891609E+04</pdfrwt>
<pdfrwt beam="2">  1       -1 0.74732735E-01 0.15891609E+04</pdfrwt>
<totfact> 0.15656011E+01</totfact>
</mgrwt>
</event>
<event>
12    1  0.4820219E-008  0.1897870E+04  0.7818608E-02  0.8655917E-01
          1   -1    0    0  501    0  0.00000000000E+00  0.00000000000E+00  0.77861245689E+03  0.77861245689E+03  0.00000000000E+00 0. -1.
         -1   -1    0    0    0  501 -0.00000000000E+00 -0.00000000000E+00 -0.11565161075E+04  0.11565161075E+04  0.00000000000E+00 0.  1.
         23    2    1    2    0    0 -0.54194407422E+03  0.40432099597E+03  0.78851647472E+02  0.68697495235E+03  0.92402140015E+02 0.  0.
        254    2    1    2    0    0  0.54194407422E+03 -0.40432099597E+03 -0.45675529804E+03  0.12481536120E+04  0.94450155612E+03 0.  0.
         23    2    4    4    0    0  0.97030458590E+02  0.22936900571E+03 -0.38312159119E+03  0.46542388534E+03  0.88386586900E+02 0.  0.
         23    2    4    4    0    0  0.44491361563E+03 -0.63369000168E+03 -0.73633706855E+02  0.78272972666E+03  0.87936105314E+02 0.  0.
         11    1    3    3    0    0 -0.24723834113E+02  0.43044784948E+02 -0.74565396097E+01  0.50196827264E+02  0.00000000000E+00 0.  1.
        -11    1    3    3    0    0 -0.51722024011E+03  0.36127621102E+03  0.86308187081E+02  0.63677812508E+03  0.00000000000E+00 0. -1.
          2    1    5    5  502    0  0.25792367046E+02  0.13593964260E+02 -0.14921725879E+02  0.32752098640E+02  0.00000000000E+00 0. -1.
          1    1    6    6  503    0  0.50707468385E+02 -0.10922115587E+03  0.12223268068E+02  0.12103683952E+03  0.00000000000E+00 0. -1.
         -2    1    5    5    0  502  0.71238091544E+02  0.21577504145E+03 -0.36819986531E+03  0.43267178670E+03  0.00000000000E+00 0.  1.
         -1    1    6    6    0  503  0.39420614725E+03 -0.52446884581E+03 -0.85856974924E+02  0.66169288714E+03  0.00000000000E+00 0.  1.
<mgrwt>
<rscale>  0 0.18978702E+04</rscale>
<asrwt>0</asrwt>
<pdfrwt beam="1">  1        1 0.11978653E+00 0.18978702E+04</pdfrwt>
<pdfrwt beam="2">  1       -1 0.17792555E+00 0.18978702E+04</pdfrwt>
<totfact> 0.46537195E+00</totfact>
</mgrwt>
</event>
<event>
12    1  0.4820219E-008  0.1224750E+04  0.7818608E-02  0.9091465E-01
         -1   -1    0    0    0  501 -0.00000000000E+00  0.00000000000E+00  0.27917618356E+03  0.27917618356E+03  0.00000000000E+00 0.  1.
          1   -1    0    0  501    0  0.00000000000E+00 -0.00000000000E+00 -0.13432485025E+04  0.13432485025E+04  0.00000000000E+00 0. -1.
         23    2    1    2    0    0  0.22118046078E+03 -0.75933877312E+02 -0.70812275006E+02  0.26106267457E+03  0.91937978049E+02 0.  0.
        254    2    1    2    0    0 -0.22118046078E+03  0.75933877312E+02 -0.99326004391E+03  0.13613620115E+04  0.90114053370E+03 0.  0.
         23    2    4    4    0    0 -0.63319672601E+02  0.47532614283E+03 -0.45916563942E+03  0.67003165921E+03  0.90360483209E+02 0.  0.
         23    2    4    4    0    0 -0.15786078818E+03 -0.39939226552E+03 -0.53409440449E+03  0.69133035225E+03  0.90810863008E+02 0.  0.
         11    1    3    3    0    0  0.22208193751E+03 -0.88146426780E+02 -0.68877363738E+02  0.24866497695E+03  0.00000000000E+00 0.  1.
        -11    1    3    3    0    0 -0.90147673178E+00  0.12212549468E+02 -0.19349112681E+01  0.12397697626E+02  0.00000000000E+00 0. -1.
          4    1    5    5  502    0 -0.26821944036E+02  0.42088511071E+03 -0.40904082229E+03  0.58751858473E+03  0.00000000000E+00 0.  1.
          3    1    6    6  503    0 -0.65877945660E+01 -0.92307574459E+01  0.17225859223E+01  0.11470537151E+02  0.00000000000E+00 0. -1.
         -4    1    5    5    0  502 -0.36497728565E+02  0.54441032119E+02 -0.50124817135E+02  0.82513074488E+02  0.00000000000E+00 0. -1.
         -3    1    6    6    0  503 -0.15127299361E+03 -0.39016150807E+03 -0.53581699041E+03  0.67985981510E+03  0.00000000000E+00 0.  1.
<mgrwt>
<rscale>  0 0.12247498E+04</rscale>
<asrwt>0</asrwt>
<pdfrwt beam="1">  1        1 0.20665361E+00 0.12247498E+04</pdfrwt>
<pdfrwt beam="2">  1       -1 0.42950182E-01 0.12247498E+04</pdfrwt>
<totfact> 0.44451752E+01</totfact>
</mgrwt>
</event>
<event>
12    1  0.4820219E-008  0.1559428E+04  0.7818608E-02  0.8845868E-01
          2   -1    0    0  501    0  0.00000000000E+00  0.00000000000E+00  0.59659302033E+03  0.59659302033E+03  0.00000000000E+00 0. -1.
         -2   -1    0    0    0  501 -0.00000000000E+00 -0.00000000000E+00 -0.10190427112E+04  0.10190427112E+04  0.00000000000E+00 0.  1.
         23    2    1    2    0    0 -0.25975675498E+03 -0.41619327005E+03 -0.32944171755E+03  0.59815392941E+03  0.92551975714E+02 0.  0.
        254    2    1    2    0    0  0.25975675498E+03  0.41619327005E+03 -0.93007973331E+02  0.10174818021E+04  0.88652598652E+03 0.  0.
         23    2    4    4    0    0  0.57072708148E+03  0.32021360268E+03 -0.14525402412E+03  0.67592371713E+03  0.86648640930E+02 0.  0.
         23    2    4    4    0    0 -0.31097032650E+03  0.95979667369E+02  0.52246050794E+02  0.34155808500E+03  0.89541248011E+02 0.  0.
         13    1    3    3    0    0 -0.50284309457E+01  0.29435658282E+01 -0.13574459235E+02  0.14772123784E+02  0.00000000000E+00 0.  1.
        -13    1    3    3    0    0 -0.25472832403E+03 -0.41913683588E+03 -0.31586725832E+03  0.58338180562E+03  0.00000000000E+00 0. -1.
          1    1    5    5  502    0  0.88186553313E+02  0.44531064935E+02  0.89231787155E+01  0.99194289392E+02  0.00000000000E+00 0. -1.
          3    1    6    6  503    0 -0.15240667640E+03  0.79396513104E+02  0.59788612561E+02  0.18195131079E+03  0.00000000000E+00 0.  1.
         -1    1    5    5    0  502  0.48254052817E+03  0.27568253775E+03 -0.15417720284E+03  0.57672942774E+03  0.00000000000E+00 0.  1.
         -3    1    6    6    0  503 -0.15856365010E+03  0.16583154266E+02 -0.75425617669E+01  0.15960677422E+03  0.00000000000E+00 0. -1.
<mgrwt>
<rscale>  0 0.15594278E+04</rscale>
<asrwt>0</asrwt>
<pdfrwt beam="1">  1        2 0.91783541E-01 0.15594278E+04</pdfrwt>
<pdfrwt beam="2">  1       -2 0.15677580E+00 0.15594278E+04</pdfrwt>
<totfact> 0.12777445E+01</totfact>
</mgrwt>
</event>
<event>
12    1  0.4820219E-008  0.1734831E+04  0.7818608E-02  0.8741745E-01
          1   -1    0    0  501    0  0.00000000000E+00  0.00000000000E+00  0.15866958606E+04  0.15866958606E+04  0.00000000000E+00 0. -1.
         -1   -1    0    0    0  501 -0.00000000000E+00 -0.00000000000E+00 -0.47419907979E+03  0.47419907979E+03  0.00000000000E+00 0.  1.
         23    2    1    2    0    0  0.36937768720E+03  0.47672040673E+03  0.60815695905E+03  0.86123618698E+03  0.90391708258E+02 0.  0.
        254    2    1    2    0    0 -0.36937768720E+03 -0.47672040673E+03  0.50433982172E+03  0.11996587534E+04  0.90615685553E+03 0.  0.
         23    2    4    4    0    0 -0.45356873827E+03 -0.58612871475E+03  0.89062485536E+02  0.75228053657E+03  0.93393836981E+02 0.  0.
         23    2    4    4    0    0  0.84191051078E+02  0.10940830802E+03  0.41527733619E+03  0.44737821682E+03  0.92917662387E+02 0.  0.
         13    1    3    3    0    0  0.35257059411E+03  0.47623656076E+03  0.59643847557E+03  0.84074142325E+03  0.00000000000E+00 0. -1.
        -13    1    3    3    0    0  0.16807093084E+02  0.48384597061E+00  0.11718483483E+02  0.20494763721E+02  0.00000000000E+00 0.  1.
          1    1    6    6  502    0  0.10071889704E+03  0.68562605372E+02  0.31979585896E+03  0.34221998551E+03  0.00000000000E+00 0. -1.
          1    1    5    5  503    0 -0.25975183987E+03 -0.38802436752E+03  0.87838582187E+02  0.47513108152E+03  0.00000000000E+00 0.  1.
         -1    1    5    5    0  503 -0.19381689840E+03 -0.19810434722E+03  0.12239033486E+01  0.27714945505E+03  0.00000000000E+00 0. -1.
         -1    1    6    6    0  502 -0.16527845961E+02  0.40845702651E+02  0.95481477227E+02  0.10515823130E+03  0.00000000000E+00 0.  1.
<mgrwt>
<rscale>  0 0.17348311E+04</rscale>
<asrwt>0</asrwt>
<pdfrwt beam="1">  1        1 0.24410705E+00 0.17348311E+04</pdfrwt>
<pdfrwt beam="2">  1       -1 0.72953705E-01 0.17348311E+04</pdfrwt>
<totfact> 0.10241877E+01</totfact>
</mgrwt>
</event>
<event>
12    1  0.4820219E-008  0.1288782E+04  0.7818608E-02  0.9038509E-01
          2   -1    0    0  501    0  0.00000000000E+00  0.00000000000E+00  0.13714951722E+04  0.13714951722E+04  0.00000000000E+00 0. -1.
         -2   -1    0    0    0  501 -0.00000000000E+00 -0.00000000000E+00 -0.30276412582E+03  0.30276412582E+03  0.00000000000E+00 0.  1.
         23    2    1    2    0    0 -0.50155217928E+02  0.94237374929E+02 -0.10676112993E+03  0.19156132419E+03  0.11790493349E+03 0.  0.
        254    2    1    2    0    0  0.50155217928E+02 -0.94237374929E+02  0.11754921763E+04  0.14826979738E+04  0.89733783846E+03 0.  0.
         23    2    4    4    0    0 -0.27983420726E+03  0.24920929405E+03  0.72000023731E+03  0.81692874896E+03  0.92519097238E+02 0.  0.
         23    2    4    4    0    0  0.32998942519E+03 -0.34344666898E+03  0.45549193899E+03  0.66576922487E+03  0.94483433072E+02 0.  0.
         13    1    3    3    0    0 -0.57904300846E+02  0.28035437877E+02  0.15856121585E+01  0.64353772223E+02  0.00000000000E+00 0. -1.
        -13    1    3    3    0    0  0.77490829189E+01  0.66201937052E+02 -0.10834674209E+03  0.12720755196E+03  0.00000000000E+00 0.  1.
          1    1    5    5  502    0 -0.14904377544E+03  0.16606727207E+03  0.34162411144E+03  0.40804340378E+03  0.00000000000E+00 0. -1.
          3    1    6    6  503    0  0.23565738259E+03 -0.20938351404E+03  0.24658298407E+03  0.40022371987E+03  0.00000000000E+00 0. -1.
         -1    1    5    5    0  502 -0.13079043182E+03  0.83142021985E+02  0.37837612587E+03  0.40888534518E+03  0.00000000000E+00 0.  1.
         -3    1    6    6    0  503  0.94332042601E+02 -0.13406315494E+03  0.20890895493E+03  0.26554550500E+03  0.00000000000E+00 0.  1.
<mgrwt>
<rscale>  0 0.12887817E+04</rscale>
<asrwt>0</asrwt>
<pdfrwt beam="1">  1        2 0.21099925E+00 0.12887817E+04</pdfrwt>
<pdfrwt beam="2">  1       -2 0.46579097E-01 0.12887817E+04</pdfrwt>
<totfact> 0.64384845E+01</totfact>
</mgrwt>
</event>
<event>
12    1  0.4820219E-008  0.2607200E+04  0.7818608E-02  0.8365759E-01
         -2   -1    0    0    0  501 -0.00000000000E+00  0.00000000000E+00  0.14819024347E+04  0.14819024347E+04  0.00000000000E+00 0.  1.
          2   -1    0    0  501    0  0.00000000000E+00 -0.00000000000E+00 -0.11467512932E+04  0.11467512932E+04  0.00000000000E+00 0. -1.
         23    2    1    2    0    0 -0.84869956274E+00  0.22801633331E+03 -0.99044114285E+03  0.10202825655E+04  0.89502443885E+02 0.  0.
        254    2    1    2    0    0  0.84869956274E+00 -0.22801633331E+03  0.13255922843E+04  0.16083711624E+04  0.88185640744E+03 0.  0.
         23    2    4    4    0    0  0.35046727536E+03 -0.36563327944E+02  0.10606411993E+04  0.11210641274E+04  0.87526202169E+02 0.  0.
         23    2    4    4    0    0 -0.34961857580E+03 -0.19145300537E+03  0.26495108498E+03  0.48730703498E+03  0.91551445121E+02 0.  0.
         11    1    3    3    0    0  0.87573189329E+01  0.23310026611E+03 -0.96082714422E+03  0.98873718741E+03  0.00000000000E+00 0. -1.
        -11    1    3    3    0    0 -0.96060184956E+01 -0.50839327940E+01 -0.29613998633E+02  0.31545378092E+02  0.00000000000E+00 0.  1.
          1    1    5    5  502    0 -0.46323539454E+01 -0.41425829433E+01  0.13138933141E+02  0.14534485220E+02  0.00000000000E+00 0. -1.
          3    1    6    6  503    0 -0.14220314382E+02  0.83581013501E+01  0.21934781735E+02  0.27444668864E+02  0.00000000000E+00 0. -1.
         -1    1    5    5    0  502  0.35509962931E+03 -0.32420745001E+02  0.10475022662E+04  0.11065296422E+04  0.00000000000E+00 0.  1.
         -3    1    6    6    0  503 -0.33539826142E+03 -0.19981110672E+03  0.24301630325E+03  0.45986236612E+03  0.00000000000E+00 0.  1.
<mgrwt>
<rscale>  0 0.26072004E+04</rscale>
<asrwt>0</asrwt>
<pdfrwt beam="1">  1        2 0.17642328E+00 0.26072004E+04</pdfrwt>
<pdfrwt beam="2">  1       -2 0.22798499E+00 0.26072004E+04</pdfrwt>
<totfact> 0.15869188E+00</totfact>
</mgrwt>
</event>
<event>
12    1  0.4820219E-008  0.2240974E+04  0.7818608E-02  0.8501565E-01
         -2   -1    0    0    0  501 -0.00000000000E+00  0.00000000000E+00  0.52170471426E+03  0.52170471426E+03  0.00000000000E+00 0.  1.
          2   -1    0    0  501    0  0.00000000000E+00 -0.00000000000E+00 -0.24065158819E+04  0.24065158819E+04  0.00000000000E+00 0. -1.
         23    2    1    2    0    0  0.14096358971E+03  0.19130578453E+02 -0.20102965627E+04  0.20174092479E+04  0.91711998174E+02 0.  0.
        254    2    1    2    0    0 -0.14096358971E+03 -0.19130578453E+02  0.12548539509E+03  0.91081134829E+03  0.89083893894E+03 0.  0.
         23    2    4    4    0    0 -0.13073494788E+03  0.26534452427E+03  0.39925227812E+03  0.50538544723E+03  0.92264432617E+02 0.  0.
         23    2    4    4    0    0 -0.10228641822E+02 -0.28447510273E+03 -0.27376688304E+03  0.40542590106E+03  0.91603197628E+02 0.  0.
         11    1    3    3    0    0  0.59963472373E+02 -0.25573599796E+02 -0.49250239022E+03  0.49679797845E+03  0.00000000000E+00 0.  1.
        -11    1    3    3    0    0  0.81000117332E+02  0.44704178249E+02 -0.15177941725E+04  0.15206112694E+04  0.00000000000E+00 0. -1.
          4    1    5    5  502    0 -0.70803220836E+02  0.22836541691E+03  0.31818971928E+03  0.39800572505E+03  0.00000000000E+00 0. -1.
          1    1    6    6  503    0  0.28244198886E+02 -0.11078765856E+03 -0.15046880357E+03  0.18897751429E+03  0.00000000000E+00 0. -1.
         -4    1    5    5    0  502 -0.59931727048E+02  0.36979107364E+02  0.81062558845E+02  0.10737972218E+03  0.00000000000E+00 0.  1.
         -1    1    6    6    0  503 -0.38472840707E+02 -0.17368744417E+03 -0.12329807947E+03  0.21644838677E+03  0.00000000000E+00 0.  1.
<mgrwt>
<rscale>  0 0.22409736E+04</rscale>
<asrwt>0</asrwt>
<pdfrwt beam="1">  1        2 0.37023322E+00 0.22409736E+04</pdfrwt>
<pdfrwt beam="2">  1       -2 0.80262263E-01 0.22409736E+04</pdfrwt>
<totfact> 0.49265606E+00</totfact>
</mgrwt>
</event>
<event>
12    1  0.4820219E-008  0.1742043E+04  0.7818608E-02  0.8737742E-01
         -1   -1    0    0    0  501 -0.00000000000E+00  0.00000000000E+00  0.76457451710E+03  0.76457451710E+03  0.00000000000E+00 0.  1.
          1   -1    0    0  501    0  0.00000000000E+00 -0.00000000000E+00 -0.99228862359E+03  0.99228862359E+03  0.00000000000E+00 0. -1.
         23    2    1    2    0    0  0.24526730271E+03  0.39540332755E+03  0.34560072978E+03  0.58653340227E+03  0.89898422359E+02 0.  0.
        254    2    1    2    0    0 -0.24526730271E+03 -0.39540332755E+03 -0.57331483627E+03  0.11703297384E+04  0.90800988647E+03 0.  0.
         23    2    4    4    0    0  0.13109791902E+03  0.62779055098E+02  0.15176952516E+03  0.22914562626E+03  0.91355651930E+02 0.  0.
         23    2    4    4    0    0 -0.37636522172E+03 -0.45818238264E+03 -0.72508436143E+03  0.94118411215E+03  0.92186364996E+02 0.  0.
         13    1    3    3    0    0  0.38735748438E+02  0.67284567515E+02  0.19829730991E+02  0.80130452788E+02  0.00000000000E+00 0. -1.
        -13    1    3    3    0    0  0.20653155427E+03  0.32811876003E+03  0.32577099879E+03  0.50640294948E+03  0.00000000000E+00 0.  1.
          1    1    5    5  502    0  0.39885106132E+02  0.68935962692E+02  0.61024294003E+02  0.10033420704E+03  0.00000000000E+00 0. -1.
          3    1    6    6  503    0 -0.36058432618E+03 -0.43705618210E+03 -0.65367102355E+03  0.86505778398E+03  0.00000000000E+00 0. -1.
         -1    1    5    5    0  502  0.91212812884E+02 -0.61569075942E+01  0.90745231155E+02  0.12881141923E+03  0.00000000000E+00 0.  1.
         -3    1    6    6    0  503 -0.15780895543E+02 -0.21126200540E+02 -0.71413337879E+02  0.76126328169E+02  0.00000000000E+00 0.  1.
<mgrwt>
<rscale>  0 0.17420432E+04</rscale>
<asrwt>0</asrwt>
<pdfrwt beam="1">  1        1 0.15265979E+00 0.17420432E+04</pdfrwt>
<pdfrwt beam="2">  1       -1 0.11762685E+00 0.17420432E+04</pdfrwt>
<totfact> 0.94589170E+00</totfact>
</mgrwt>
</event>
<event>
12    1  0.4820219E-008  0.2249155E+04  0.7818608E-02  0.8498243E-01
         -2   -1    0    0    0  501 -0.00000000000E+00  0.00000000000E+00  0.71149303617E+03  0.71149303617E+03  0.00000000000E+00 0.  1.
          2   -1    0    0  501    0  0.00000000000E+00 -0.00000000000E+00 -0.17774932388E+04  0.17774932388E+04  0.00000000000E+00 0. -1.
         23    2    1    2    0    0  0.85531988431E+03  0.97334003765E+02 -0.12248096414E+02  0.86581379004E+03  0.91855812919E+02 0.  0.
        254    2    1    2    0    0 -0.85531988431E+03 -0.97334003765E+02 -0.10537521062E+04  0.16231724849E+04  0.88501378614E+03 0.  0.
         23    2    4    4    0    0 -0.68779657704E+03 -0.60232266683E+02 -0.16872774212E+03  0.71663291060E+03  0.91660352720E+02 0.  0.
         23    2    4    4    0    0 -0.16752330728E+03 -0.37101737083E+02 -0.88502436404E+03  0.90653957429E+03  0.95421577330E+02 0.  0.
         11    1    3    3    0    0  0.18647862171E+02 -0.10710144045E+02 -0.53760126657E+01  0.22166448998E+02  0.00000000000E+00 0. -1.
        -11    1    3    3    0    0  0.83667202214E+03  0.10804414781E+03 -0.68720837481E+01  0.84364734104E+03  0.00000000000E+00 0.  1.
          2    1    5    5  502    0 -0.14384612330E+03 -0.49884884103E+02 -0.30048610615E+02  0.15518739591E+03  0.00000000000E+00 0. -1.
          1    1    6    6  503    0 -0.78935382498E+02  0.30597570682E+02 -0.36294365165E+03  0.37268632953E+03  0.00000000000E+00 0. -1.
         -2    1    5    5    0  502 -0.54395045374E+03 -0.10347382580E+02 -0.13867913151E+03  0.56144551469E+03  0.00000000000E+00 0.  1.
         -1    1    6    6    0  503 -0.88587924779E+02 -0.67699307765E+02 -0.52208071239E+03  0.53385324476E+03  0.00000000000E+00 0.  1.
<mgrwt>
<rscale>  0 0.22491546E+04</rscale>
<asrwt>0</asrwt>
<pdfrwt beam="1">  1        2 0.27346050E+00 0.22491546E+04</pdfrwt>
<pdfrwt beam="2">  1       -2 0.10946047E+00 0.22491546E+04</pdfrwt>
<totfact> 0.53757846E+00</totfact>
</mgrwt>
</event>
<event>
12    1  0.4820219E-008  0.2285536E+04  0.7818608E-02  0.8483646E-01
          1   -1    0    0  501    0  0.00000000000E+00  0.00000000000E+00  0.10162731104E+04  0.10162731104E+04  0.00000000000E+00 0. -1.
         -1   -1    0    0    0  501 -0.00000000000E+00 -0.00000000000E+00 -0.12850071538E+04  0.12850071538E+04  0.00000000000E+00 0.  1.
         23    2    1    2    0    0  0.64981805455E+03 -0.51788595441E+03 -0.60518178831E+03  0.10320610448E+04  0.91845726244E+02 0.  0.
        254    2    1    2    0    0 -0.64981805455E+03  0.51788595441E+03  0.33644774492E+03  0.12692192195E+04  0.89847146657E+03 0.  0.
         23    2    4    4    0    0 -0.78894015341E+03  0.61541353482E+03  0.37461828463E+03  0.10724537102E+04  0.93046853151E+02 0.  0.
         23    2    4    4    0    0  0.13912209886E+03 -0.97527580406E+02 -0.38170539713E+02  0.19676550927E+03  0.91613799206E+02 0.  0.
         13    1    3    3    0    0  0.40550942584E+03 -0.27707337974E+03 -0.32244085437E+03  0.58751651617E+03  0.00000000000E+00 0. -1.
        -13    1    3    3    0    0  0.24430862871E+03 -0.24081257467E+03 -0.28274093393E+03  0.44454452859E+03  0.00000000000E+00 0.  1.
          1    1    5    5  502    0 -0.50902563475E+03  0.44965955336E+03  0.26733153263E+03  0.72990887041E+03  0.00000000000E+00 0. -1.
          1    1    6    6  503    0  0.80101625574E+02 -0.10632758589E+03 -0.30792395918E+02  0.13663819959E+03  0.00000000000E+00 0. -1.
         -1    1    5    5    0  502 -0.27991451866E+03  0.16575398145E+03  0.10728675201E+03  0.34254483981E+03  0.00000000000E+00 0.  1.
         -1    1    6    6    0  503  0.59020473282E+02  0.88000054853E+01 -0.73781437954E+01  0.60127309675E+02  0.00000000000E+00 0.  1.
<mgrwt>
<rscale>  0 0.22855356E+04</rscale>
<asrwt>0</asrwt>
<pdfrwt beam="1">  1        1 0.15634971E+00 0.22855356E+04</pdfrwt>
<pdfrwt beam="2">  1       -1 0.19769341E+00 0.22855356E+04</pdfrwt>
<totfact> 0.20764749E+00</totfact>
</mgrwt>
</event>
<event>
12    1  0.4820219E-008  0.1399329E+04  0.7818608E-02  0.8954304E-01
         -2   -1    0    0    0  501 -0.00000000000E+00  0.00000000000E+00  0.66366225072E+03  0.66366225072E+03  0.00000000000E+00 0.  1.
          2   -1    0    0  501    0  0.00000000000E+00 -0.00000000000E+00 -0.73762005320E+03  0.73762005320E+03  0.00000000000E+00 0. -1.
         23    2    1    2    0    0  0.34456360619E+03  0.20551827448E+03 -0.27585512561E+02  0.41228444005E+03  0.90860657869E+02 0.  0.
        254    2    1    2    0    0 -0.34456360619E+03 -0.20551827448E+03 -0.46372289921E+02  0.98899786386E+03  0.90277602183E+03 0.  0.
         23    2    4    4    0    0 -0.62267886430E+03 -0.61477986567E+01 -0.75476101167E+02  0.63372923728E+03  0.90273699719E+02 0.  0.
         23    2    4    4    0    0  0.27811525810E+03 -0.19937047582E+03  0.29103811246E+02  0.35526862659E+03  0.90950985636E+02 0.  0.
         11    1    3    3    0    0  0.34435091495E+03  0.21051924220E+03 -0.32951160285E+02  0.40494651860E+03  0.00000000000E+00 0.  1.
        -11    1    3    3    0    0  0.21269124647E+00 -0.50009677239E+01  0.53656477238E+01  0.73379214521E+01  0.00000000000E+00 0. -1.
          4    1    5    5  502    0 -0.12027741369E+03  0.32541369605E+02 -0.28582721899E+01  0.12463453253E+03  0.00000000000E+00 0. -1.
          3    1    6    6  503    0  0.10495592739E+03 -0.30095858713E+02  0.29555947571E+02  0.11311525734E+03  0.00000000000E+00 0. -1.
         -4    1    5    5    0  502 -0.50240145061E+03 -0.38689168261E+02 -0.72617828977E+02  0.50909470474E+03  0.00000000000E+00 0.  1.
         -3    1    6    6    0  503  0.17315933071E+03 -0.16927461711E+03 -0.45213632434E+00  0.24215336924E+03  0.00000000000E+00 0.  1.
<mgrwt>
<rscale>  0 0.13993292E+04</rscale>
<asrwt>0</asrwt>
<pdfrwt beam="1">  1        2 0.11348001E+00 0.13993292E+04</pdfrwt>
<pdfrwt beam="2">  1       -2 0.10210188E+00 0.13993292E+04</pdfrwt>
<totfact> 0.29323363E+01</totfact>
</mgrwt>
</event>
<event>
12    1  0.4820219E-008  0.2960861E+04  0.7818608E-02  0.8254996E-01
          1   -1    0    0  501    0  0.00000000000E+00  0.00000000000E+00  0.16287692859E+04  0.16287692859E+04  0.00000000000E+00 0. -1.
         -1   -1    0    0    0  501 -0.00000000000E+00 -0.00000000000E+00 -0.13456018148E+04  0.13456018148E+04  0.00000000000E+00 0.  1.
         23    2    1    2    0    0  0.95543836956E+03 -0.54756916081E+03  0.89464417078E+03  0.14218626055E+04  0.92793386916E+02 0.  0.
        254    2    1    2    0    0 -0.95543836956E+03  0.54756916081E+03 -0.61147669974E+03  0.15525084952E+04  0.90757060850E+03 0.  0.
         23    2    4    4    0    0  0.90754483185E+02 -0.10845631998E+03 -0.16387962702E+03  0.23589505529E+03  0.93759241654E+02 0.  0.
         23    2    4    4    0    0 -0.10461928527E+04  0.65602548078E+03 -0.44759707272E+03  0.13166134399E+04  0.90768353788E+02 0.  0.
         13    1    3    3    0    0  0.21530071218E+03 -0.80368339523E+02  0.19182114527E+03  0.29934732075E+03  0.00000000000E+00 0.  1.
        -13    1    3    3    0    0  0.74013765738E+03 -0.46720082129E+03  0.70282302550E+03  0.11225152847E+04  0.00000000000E+00 0. -1.
          2    1    5    5  502    0  0.10490929174E+03 -0.93446300058E+02 -0.11073626393E+03  0.17888736858E+03  0.00000000000E+00 0. -1.
          3    1    6    6  503    0 -0.12740429842E+03  0.46977112087E+02 -0.53931169669E+02  0.14610706820E+03  0.00000000000E+00 0. -1.
         -2    1    5    5    0  502 -0.14154808556E+02 -0.15010019917E+02 -0.53143363089E+02  0.57007686706E+02  0.00000000000E+00 0.  1.
         -3    1    6    6    0  503 -0.91878855433E+03  0.60904836870E+03 -0.39366590305E+03  0.11705063717E+04  0.00000000000E+00 0.  1.
<mgrwt>
<rscale>  0 0.29608613E+04</rscale>
<asrwt>0</asrwt>
<pdfrwt beam="1">  1        1 0.25057989E+00 0.29608613E+04</pdfrwt>
<pdfrwt beam="2">  1       -1 0.20701566E+00 0.29608613E+04</pdfrwt>
<totfact> 0.61339093E-01</totfact>
</mgrwt>
</event>
<event>
12    1  0.4820219E-008  0.1109298E+04  0.7818608E-02  0.9196177E-01
          2   -1    0    0  501    0  0.00000000000E+00  0.00000000000E+00  0.18107489907E+04  0.18107489907E+04  0.00000000000E+00 0. -1.
         -2   -1    0    0    0  501 -0.00000000000E+00 -0.00000000000E+00 -0.16989403431E+03  0.16989403431E+03  0.00000000000E+00 0.  1.
         23    2    1    2    0    0  0.14337247532E+03 -0.37374753397E+02  0.43004882009E+03  0.46421220225E+03  0.92727785360E+02 0.  0.
        254    2    1    2    0    0 -0.14337247532E+03  0.37374753397E+02  0.12108061363E+04  0.15164308228E+04  0.90086536269E+03 0.  0.
         23    2    4    4    0    0 -0.34888682754E+03 -0.32120214194E+03  0.54913188106E+03  0.73148448485E+03  0.92902606927E+02 0.  0.
         23    2    4    4    0    0  0.20551435222E+03  0.35857689534E+03  0.66167425527E+03  0.78494633795E+03  0.86685607417E+02 0.  0.
         11    1    3    3    0    0  0.14099146629E+03 -0.13087207266E+02  0.40586079019E+03  0.42985212524E+03  0.00000000000E+00 0. -1.
        -11    1    3    3    0    0  0.23810090280E+01 -0.24287546131E+02  0.24188029907E+02  0.34360077006E+02  0.00000000000E+00 0.  1.
          2    1    5    5  502    0 -0.92767327769E+02 -0.14572751896E+03  0.20014391244E+03  0.26438584033E+03  0.00000000000E+00 0. -1.
          3    1    6    6  503    0  0.22506940123E+02  0.78333458585E+02  0.82215694776E+02  0.11576749784E+03  0.00000000000E+00 0. -1.
         -2    1    5    5    0  502 -0.25611949977E+03 -0.17547462298E+03  0.34898796862E+03  0.46709864452E+03  0.00000000000E+00 0.  1.
         -3    1    6    6    0  503  0.18300741209E+03  0.28024343675E+03  0.57945856049E+03  0.66917884011E+03  0.00000000000E+00 0.  1.
<mgrwt>
<rscale>  0 0.11092979E+04</rscale>
<asrwt>0</asrwt>
<pdfrwt beam="1">  1        2 0.27857675E+00 0.11092979E+04</pdfrwt>
<pdfrwt beam="2">  1       -2 0.26137545E-01 0.11092979E+04</pdfrwt>
<totfact> 0.11179352E+02</totfact>
</mgrwt>
</event>
<event>
12    1  0.4820219E-008  0.2456129E+04  0.7818608E-02  0.8418784E-01
          2   -1    0    0  501    0  0.00000000000E+00  0.00000000000E+00  0.22158589812E+04  0.22158589812E+04  0.00000000000E+00 0. -1.
         -2   -1    0    0    0  501 -0.00000000000E+00 -0.00000000000E+00 -0.68061305853E+03  0.68061305853E+03  0.00000000000E+00 0.  1.
         23    2    1    2    0    0  0.32609119205E+03 -0.38833554044E+03  0.17657863859E+04  0.18395028078E+04  0.92892743699E+02 0.  0.
        254    2    1    2    0    0 -0.32609119205E+03  0.38833554044E+03 -0.23054046329E+03  0.10569692319E+04  0.89827339623E+03 0.  0.
         23    2    4    4    0    0 -0.53034817179E+03 -0.22053450353E+02 -0.88665750147E+01  0.53831521156E+03  0.89157797434E+02 0.  0.
         23    2    4    4    0    0  0.20425697974E+03  0.41038899079E+03 -0.22167388827E+03  0.51865402030E+03  0.98603460890E+02 0.  0.
         11    1    3    3    0    0  0.44283971168E+02 -0.11201889539E+03  0.44434918045E+03  0.46038624784E+03  0.00000000000E+00 0.  1.
        -11    1    3    3    0    0  0.28180722089E+03 -0.27631664505E+03  0.13214372055E+04  0.13791165600E+04  0.00000000000E+00 0. -1.
          3    1    6    6  502    0 -0.78996946428E+01  0.13236348814E+01 -0.26064562963E+01  0.84232297353E+01  0.00000000000E+00 0. -1.
          3    1    5    5  503    0 -0.50611829338E+03 -0.28580014645E+02 -0.26546028376E+02  0.50761918379E+03  0.00000000000E+00 0.  1.
         -3    1    5    5    0  503 -0.24229878418E+02  0.65265642928E+01  0.17679453362E+02  0.30696027769E+02  0.00000000000E+00 0. -1.
         -3    1    6    6    0  502  0.21215667438E+03  0.40906535591E+03 -0.21906743198E+03  0.51023079057E+03  0.00000000000E+00 0.  1.
<mgrwt>
<rscale>  0 0.24561291E+04</rscale>
<asrwt>0</asrwt>
<pdfrwt beam="1">  1        2 0.34090138E+00 0.24561291E+04</pdfrwt>
<pdfrwt beam="2">  1       -2 0.10470970E+00 0.24561291E+04</pdfrwt>
<totfact> 0.33502498E+00</totfact>
</mgrwt>
</event>
<event>
12    1  0.4820219E-008  0.1928053E+04  0.7818608E-02  0.8641017E-01
         -2   -1    0    0    0  501 -0.00000000000E+00  0.00000000000E+00  0.37038704446E+03  0.37038704446E+03  0.00000000000E+00 0.  1.
          2   -1    0    0  501    0  0.00000000000E+00 -0.00000000000E+00 -0.25091233988E+04  0.25091233988E+04  0.00000000000E+00 0. -1.
         23    2    1    2    0    0  0.19803541012E+03 -0.24774199295E+03 -0.18072313271E+04  0.18370959920E+04  0.90788190303E+02 0.  0.
        254    2    1    2    0    0 -0.19803541012E+03  0.24774199295E+03 -0.33150502727E+03  0.10424144513E+04  0.93602253520E+03 0.  0.
         23    2    4    4    0    0 -0.10406990011E+03  0.59586451173E+03 -0.16510607276E+03  0.63343269734E+03  0.89955024040E+02 0.  0.
         23    2    4    4    0    0 -0.93965510014E+02 -0.34812251878E+03 -0.16639895451E+03  0.40898175394E+03  0.97768388745E+02 0.  0.
         13    1    3    3    0    0  0.96780084474E+02 -0.17571714350E+03 -0.12651274606E+04  0.12809334061E+04  0.00000000000E+00 0. -1.
        -13    1    3    3    0    0  0.10125532565E+03 -0.72024849451E+02 -0.54210386643E+03  0.55616258586E+03  0.00000000000E+00 0.  1.
          2    1    5    5  502    0 -0.11605535852E+03  0.53012718275E+03 -0.13036768139E+03  0.55812132058E+03  0.00000000000E+00 0. -1.
          2    1    6    6  503    0 -0.30560976252E+02 -0.18615642209E+02 -0.34293692576E+01  0.35948240260E+02  0.00000000000E+00 0.  1.
         -2    1    5    5    0  502  0.11985458417E+02  0.65737328983E+02 -0.34738391371E+02  0.75311376766E+02  0.00000000000E+00 0.  1.
         -2    1    6    6    0  503 -0.63404533762E+02 -0.32950687657E+03 -0.16296958525E+03  0.37303351368E+03  0.00000000000E+00 0. -1.
<mgrwt>
<rscale>  0 0.19280527E+04</rscale>
<asrwt>0</asrwt>
<pdfrwt beam="1">  1        2 0.38601899E+00 0.19280527E+04</pdfrwt>
<pdfrwt beam="2">  1       -2 0.56982622E-01 0.19280527E+04</pdfrwt>
<totfact> 0.92856031E+00</totfact>
</mgrwt>
</event>
<event>
12    1  0.4820219E-008  0.1285867E+04  0.7818608E-02  0.9040848E-01
         -2   -1    0    0    0  501 -0.00000000000E+00  0.00000000000E+00  0.28683241657E+03  0.28683241657E+03  0.00000000000E+00 0.  1.
          2   -1    0    0  501    0  0.00000000000E+00 -0.00000000000E+00 -0.14411322724E+04  0.14411322724E+04  0.00000000000E+00 0. -1.
         23    2    1    2    0    0 -0.12835934363E+03 -0.31291414561E+03 -0.32383482246E+03  0.47689037200E+03  0.90355138438E+02 0.  0.
        254    2    1    2    0    0  0.12835934363E+03  0.31291414561E+03 -0.83046503335E+03  0.12510743170E+04  0.87242385990E+03 0.  0.
         23    2    4    4    0    0  0.14472243278E+02  0.35131724379E+03  0.41450339934E+02  0.36567368041E+03  0.91465065751E+02 0.  0.
         23    2    4    4    0    0  0.11388710036E+03 -0.38403098179E+02 -0.87191537328E+03  0.88540063656E+03  0.96191472986E+02 0.  0.
         13    1    3    3    0    0 -0.48192330726E+02 -0.32205217430E+02 -0.48001529534E+02  0.75258378989E+02  0.00000000000E+00 0.  1.
        -13    1    3    3    0    0 -0.80167012907E+02 -0.28070892818E+03 -0.27583329293E+03  0.40163199301E+03  0.00000000000E+00 0. -1.
          4    1    6    6  502    0  0.24266630530E+00  0.23746874344E+02 -0.10783420781E+03  0.11041824715E+03  0.00000000000E+00 0. -1.
          4    1    5    5  503    0 -0.19517586467E+02  0.51563722216E+02 -0.18392729251E+02  0.58120961103E+02  0.00000000000E+00 0. -1.
         -4    1    5    5    0  503  0.33989829745E+02  0.29975352157E+03  0.59843069185E+02  0.30755271930E+03  0.00000000000E+00 0.  1.
         -4    1    6    6    0  502  0.11364443405E+03 -0.62149972523E+02 -0.76408116547E+03  0.77498238941E+03  0.00000000000E+00 0.  1.
<mgrwt>
<rscale>  0 0.12858669E+04</rscale>
<asrwt>0</asrwt>
<pdfrwt beam="1">  1        2 0.22171266E+00 0.12858669E+04</pdfrwt>
<pdfrwt beam="2">  1       -2 0.44128065E-01 0.12858669E+04</pdfrwt>
<totfact> 0.65473898E+01</totfact>
</mgrwt>
</event>
<event>
12    1  0.4820219E-008  0.2368431E+04  0.7818608E-02  0.8451418E-01
         -2   -1    0    0    0  501 -0.00000000000E+00  0.00000000000E+00  0.44556505389E+03  0.44556505389E+03  0.00000000000E+00 0.  1.
          2   -1    0    0  501    0  0.00000000000E+00 -0.00000000000E+00 -0.31473881801E+04  0.31473881801E+04  0.00000000000E+00 0. -1.
         23    2    1    2    0    0 -0.41572752110E+03 -0.64891748983E+03 -0.21602944380E+04  0.22954017765E+04  0.89855306679E+02 0.  0.
        254    2    1    2    0    0  0.41572752110E+03  0.64891748983E+03 -0.54152868819E+03  0.12975514575E+04  0.89244786084E+03 0.  0.
         23    2    4    4    0    0 -0.13694575272E+03  0.58485069947E+03 -0.34996126265E+03  0.70173177197E+03  0.95656231285E+02 0.  0.
         23    2    4    4    0    0  0.55267327383E+03  0.64066790360E+02 -0.19156742554E+03  0.59581968553E+03  0.93545271941E+02 0.  0.
         11    1    3    3    0    0 -0.40312020343E+03 -0.58485953280E+03 -0.19610192304E+04  0.20857044358E+04  0.00000000000E+00 0. -1.
        -11    1    3    3    0    0 -0.12607317672E+02 -0.64057957021E+02 -0.19927520763E+03  0.20969734069E+03  0.00000000000E+00 0.  1.
          4    1    5    5  502    0 -0.36360919887E+02  0.14071056524E+03 -0.39569711618E+02  0.15062317797E+03  0.00000000000E+00 0. -1.
          3    1    6    6  503    0  0.28628603819E+03  0.24604447339E+02 -0.50264438263E+02  0.29170462499E+03  0.00000000000E+00 0.  1.
         -4    1    5    5    0  502 -0.10058483284E+03  0.44414013423E+03 -0.31039155103E+03  0.55110859400E+03  0.00000000000E+00 0.  1.
         -3    1    6    6    0  503  0.26638723564E+03  0.39462343021E+02 -0.14130298727E+03  0.30411506053E+03  0.00000000000E+00 0. -1.
<mgrwt>
<rscale>  0 0.23684309E+04</rscale>
<asrwt>0</asrwt>
<pdfrwt beam="1">  1        2 0.48421358E+00 0.23684309E+04</pdfrwt>
<pdfrwt beam="2">  1       -2 0.68548469E-01 0.23684309E+04</pdfrwt>
<totfact> 0.24634697E+00</totfact>
</mgrwt>
</event>
<event>
12    1  0.4820219E-008  0.1812264E+04  0.7818608E-02  0.8699805E-01
          1   -1    0    0  501    0  0.00000000000E+00  0.00000000000E+00  0.15579265117E+04  0.15579265117E+04  0.00000000000E+00 0. -1.
         -1   -1    0    0    0  501 -0.00000000000E+00 -0.00000000000E+00 -0.52703083095E+03  0.52703083095E+03  0.00000000000E+00 0.  1.
         23    2    1    2    0    0  0.59176937007E+03 -0.25207461807E+03  0.15824180862E+03  0.66879216497E+03  0.92249062298E+02 0.  0.
        254    2    1    2    0    0 -0.59176937007E+03  0.25207461807E+03  0.87265387211E+03  0.14161651777E+04  0.91118956836E+03 0.  0.
         23    2    4    4    0    0 -0.11729829314E+03 -0.30695828121E+03  0.45064546893E+03  0.56508932904E+03  0.90897388017E+02 0.  0.
         23    2    4    4    0    0 -0.47447107693E+03  0.55903289929E+03  0.42200840318E+03  0.85107584862E+03  0.92727678827E+02 0.  0.
         11    1    3    3    0    0  0.55621601673E+03 -0.24893062476E+03  0.16738082028E+03  0.63194861517E+03  0.00000000000E+00 0.  1.
        -11    1    3    3    0    0  0.35553353336E+02 -0.31439933094E+01 -0.91390116637E+01  0.36843549796E+02  0.00000000000E+00 0. -1.
          2    1    5    5  502    0 -0.41380803262E+02 -0.23693970169E+02  0.63572309853E+02  0.79468318725E+02  0.00000000000E+00 0. -1.
          2    1    6    6  503    0 -0.10202744309E+03  0.16528743395E+03  0.14506297370E+03  0.24243102380E+03  0.00000000000E+00 0. -1.
         -2    1    5    5    0  502 -0.75917489876E+02 -0.28326431104E+03  0.38707315908E+03  0.48562101032E+03  0.00000000000E+00 0.  1.
         -2    1    6    6    0  503 -0.37244363385E+03  0.39374546534E+03  0.27694542948E+03  0.60864482482E+03  0.00000000000E+00 0.  1.
<mgrwt>
<rscale>  0 0.18122641E+04</rscale>
<asrwt>0</asrwt>
<pdfrwt beam="1">  1        1 0.23968100E+00 0.18122641E+04</pdfrwt>
<pdfrwt beam="2">  1       -1 0.81081667E-01 0.18122641E+04</pdfrwt>
<totfact> 0.85222661E+00</totfact>
</mgrwt>
</event>
<event>
12    1  0.4820219E-008  0.1793704E+04  0.7818608E-02  0.8709655E-01
         -2   -1    0    0    0  501 -0.00000000000E+00  0.00000000000E+00  0.29693528465E+03  0.29693528465E+03  0.00000000000E+00 0.  1.
          2   -1    0    0  501    0  0.00000000000E+00 -0.00000000000E+00 -0.27088166153E+04  0.27088166153E+04  0.00000000000E+00 0. -1.
         23    2    1    2    0    0  0.10819961810E+03 -0.12885830263E+03 -0.19979764717E+04  0.20070421968E+04  0.89424709658E+02 0.  0.
        254    2    1    2    0    0 -0.10819961810E+03  0.12885830263E+03 -0.41390485892E+03  0.99870970313E+03  0.89319215143E+03 0.  0.
         23    2    4    4    0    0 -0.20538742800E+03  0.19804421310E+03  0.20389249000E+03  0.36372579190E+03  0.96533923029E+02 0.  0.
         23    2    4    4    0    0  0.97187809894E+02 -0.69185910467E+02 -0.61779734892E+03  0.63498391123E+03  0.85433263925E+02 0.  0.
         11    1    3    3    0    0  0.91174432429E+02 -0.68260796679E+02 -0.16070304235E+04  0.16110614810E+04  0.00000000000E+00 0. -1.
        -11    1    3    3    0    0  0.17025185673E+02 -0.60597505950E+02 -0.39094604819E+03  0.39598071578E+03  0.00000000000E+00 0.  1.
          4    1    5    5  502    0 -0.69127825594E+01  0.38212197985E+02  0.24832096633E+01  0.38911758734E+02  0.00000000000E+00 0. -1.
          1    1    6    6  503    0  0.48821607526E+02 -0.23701811546E+02 -0.10787452923E+03  0.12075694303E+03  0.00000000000E+00 0. -1.
         -4    1    5    5    0  502 -0.19847464544E+03  0.15983201511E+03  0.20140928034E+03  0.32481403317E+03  0.00000000000E+00 0.  1.
         -1    1    6    6    0  503  0.48366202369E+02 -0.45484098921E+02 -0.50992281969E+03  0.51422696821E+03  0.00000000000E+00 0.  1.
<mgrwt>
<rscale>  0 0.17937037E+04</rscale>
<asrwt>0</asrwt>
<pdfrwt beam="1">  1        2 0.41674103E+00 0.17937037E+04</pdfrwt>
<pdfrwt beam="2">  1       -2 0.45682350E-01 0.17937037E+04</pdfrwt>
<totfact> 0.11284302E+01</totfact>
</mgrwt>
</event>
<event>
12    1  0.4820219E-008  0.1367547E+04  0.7818608E-02  0.8977650E-01
          2   -1    0    0  501    0  0.00000000000E+00  0.00000000000E+00  0.65686240421E+03  0.65686240421E+03  0.00000000000E+00 0. -1.
         -2   -1    0    0    0  501 -0.00000000000E+00 -0.00000000000E+00 -0.71178738661E+03  0.71178738661E+03  0.00000000000E+00 0.  1.
         23    2    1    2    0    0  0.35671434944E+03 -0.87276630779E+02 -0.91007231999E+02  0.38974924323E+03  0.93593904419E+02 0.  0.
        254    2    1    2    0    0 -0.35671434944E+03  0.87276630779E+02  0.36082249597E+02  0.97890054759E+03  0.90668738602E+03 0.  0.
         23    2    4    4    0    0 -0.70016928765E+02  0.40926168071E+03 -0.21045856140E+03  0.47375677283E+03  0.88063500551E+02 0.  0.
         23    2    4    4    0    0 -0.28669742068E+03 -0.32198504993E+03  0.24654081100E+03  0.50514377476E+03  0.92293435781E+02 0.  0.
         13    1    3    3    0    0  0.31839137545E+03 -0.99486729067E+02 -0.10057666766E+03  0.34840542949E+03  0.00000000000E+00 0.  1.
        -13    1    3    3    0    0  0.38322973994E+02  0.12210098289E+02  0.95694356560E+01  0.41343813742E+02  0.00000000000E+00 0. -1.
          2    1    5    5  502    0  0.19922775535E+02  0.61911396862E+02 -0.23409097890E+02  0.69122528241E+02  0.00000000000E+00 0. -1.
          1    1    6    6  503    0 -0.71196017132E+02 -0.45026171699E+02  0.17350339679E+02  0.86007344339E+02  0.00000000000E+00 0. -1.
         -2    1    5    5    0  502 -0.89939704300E+02  0.34735028384E+03 -0.18704946351E+03  0.40463424459E+03  0.00000000000E+00 0.  1.
         -1    1    6    6    0  503 -0.21550140355E+03 -0.27695887823E+03  0.22919047132E+03  0.41913643042E+03  0.00000000000E+00 0.  1.
<mgrwt>
<rscale>  0 0.13675473E+04</rscale>
<asrwt>0</asrwt>
<pdfrwt beam="1">  1        2 0.10105575E+00 0.13675473E+04</pdfrwt>
<pdfrwt beam="2">  1       -2 0.10950575E+00 0.13675473E+04</pdfrwt>
<totfact> 0.28759825E+01</totfact>
</mgrwt>
</event>
<event>
12    1  0.4820219E-008  0.2882885E+04  0.7818608E-02  0.8277988E-01
         -1   -1    0    0    0  501 -0.00000000000E+00  0.00000000000E+00  0.14528248494E+04  0.14528248494E+04  0.00000000000E+00 0.  1.
          1   -1    0    0  501    0  0.00000000000E+00 -0.00000000000E+00 -0.14301493249E+04  0.14301493249E+04  0.00000000000E+00 0. -1.
         23    2    1    2    0    0  0.10058881758E+04 -0.23098362482E+03  0.80109254094E+03  0.13095151665E+04  0.88973337627E+02 0.  0.
        254    2    1    2    0    0 -0.10058881758E+04  0.23098362482E+03 -0.77841701639E+03  0.15734590079E+04  0.89703720146E+03 0.  0.
         23    2    4    4    0    0 -0.69392254053E+03 -0.28538752177E+03 -0.45398465066E+03  0.88234671549E+03  0.97258076631E+02 0.  0.
         23    2    4    4    0    0 -0.31196563530E+03  0.51637114659E+03 -0.32443236573E+03  0.69111229237E+03  0.91750324740E+02 0.  0.
         13    1    3    3    0    0  0.93592192575E+03 -0.22394119203E+03  0.77067408389E+03  0.12328982327E+04  0.00000000000E+00 0.  1.
        -13    1    3    3    0    0  0.69966250083E+02 -0.70424327898E+01  0.30418457049E+02  0.76616933765E+02  0.00000000000E+00 0. -1.
          2    1    6    6  502    0 -0.72650348857E+02  0.57921956443E+02 -0.55194803077E+02  0.10807170080E+03  0.00000000000E+00 0. -1.
          2    1    5    5  503    0 -0.60625229929E+02 -0.54975408024E+02 -0.62524232884E+02  0.10299026017E+03  0.00000000000E+00 0. -1.
         -2    1    5    5    0  503 -0.63329731060E+03 -0.23041211375E+03 -0.39146041777E+03  0.77935645533E+03  0.00000000000E+00 0.  1.
         -2    1    6    6    0  502 -0.23931528644E+03  0.45844919015E+03 -0.26923756266E+03  0.58304059157E+03  0.00000000000E+00 0.  1.
<mgrwt>
<rscale>  0 0.28828850E+04</rscale>
<asrwt>0</asrwt>
<pdfrwt beam="1">  1        1 0.22002297E+00 0.28828850E+04</pdfrwt>
<pdfrwt beam="2">  1       -1 0.22351151E+00 0.28828850E+04</pdfrwt>
<totfact> 0.65582033E-01</totfact>
</mgrwt>
</event>
<event>
12    1  0.4820219E-008  0.2376664E+04  0.7818608E-02  0.8448292E-01
         -1   -1    0    0    0  501 -0.00000000000E+00  0.00000000000E+00  0.18060053518E+04  0.18060053518E+04  0.00000000000E+00 0.  1.
          1   -1    0    0  501    0  0.00000000000E+00 -0.00000000000E+00 -0.78190951913E+03  0.78190951913E+03  0.00000000000E+00 0. -1.
         23    2    1    2    0    0 -0.39302843779E+03  0.92325497869E+03  0.59947377348E+03  0.11723557119E+04  0.90432304088E+02 0.  0.
        254    2    1    2    0    0  0.39302843779E+03 -0.92325497869E+03  0.42462205915E+03  0.14155591589E+04  0.90367733775E+03 0.  0.
         23    2    4    4    0    0  0.20745334423E+03  0.64133856797E+02  0.32591467032E+03  0.40190132404E+03  0.90300943026E+02 0.  0.
         23    2    4    4    0    0  0.18557509356E+03 -0.98738883549E+03  0.98707388831E+02  0.10136578349E+04  0.91565440337E+02 0.  0.
         13    1    3    3    0    0 -0.14092837390E+03  0.23741750613E+03  0.14509763246E+03  0.31189934551E+03  0.00000000000E+00 0. -1.
        -13    1    3    3    0    0 -0.25210006389E+03  0.68583747256E+03  0.45437614102E+03  0.86045636642E+03  0.00000000000E+00 0.  1.
          3    1    6    6  502    0  0.11658980599E+03 -0.66517517911E+03  0.10860833654E+03  0.68399340094E+03  0.00000000000E+00 0. -1.
          3    1    5    5  503    0  0.21373177804E+03  0.70937940715E+02  0.30593800140E+03  0.37988356779E+03  0.00000000000E+00 0. -1.
         -3    1    5    5    0  503 -0.62784338040E+01 -0.68040839186E+01  0.19976668923E+02  0.22017756250E+02  0.00000000000E+00 0.  1.
         -3    1    6    6    0  502  0.68985287567E+02 -0.32221365638E+03 -0.99009477058E+01  0.32966443397E+03  0.00000000000E+00 0.  1.
<mgrwt>
<rscale>  0 0.23766639E+04</rscale>
<asrwt>0</asrwt>
<pdfrwt beam="1">  1        1 0.12029377E+00 0.23766639E+04</pdfrwt>
<pdfrwt beam="2">  1       -1 0.27784698E+00 0.23766639E+04</pdfrwt>
<totfact> 0.94648726E-01</totfact>
</mgrwt>
</event>
<event>
12    1  0.4820219E-008  0.2326532E+04  0.7818608E-02  0.8467533E-01
          1   -1    0    0  501    0  0.00000000000E+00  0.00000000000E+00  0.94449025484E+03  0.94449025484E+03  0.00000000000E+00 0. -1.
         -1   -1    0    0    0  501 -0.00000000000E+00 -0.00000000000E+00 -0.14327178289E+04  0.14327178289E+04  0.00000000000E+00 0.  1.
         23    2    1    2    0    0 -0.44381803120E+03  0.86039202726E+03 -0.27815777066E+02  0.97304003217E+03  0.93724603805E+02 0.  0.
        254    2    1    2    0    0  0.44381803120E+03 -0.86039202726E+03 -0.46041179696E+03  0.14041680515E+04  0.90689580924E+03 0.  0.
         23    2    4    4    0    0  0.43423075805E+03 -0.99355363202E+03 -0.55005858177E+03  0.12193989331E+04  0.93081382181E+02 0.  0.
         23    2    4    4    0    0  0.95872731541E+01  0.13316160477E+03  0.89646784808E+02  0.18476911846E+03  0.90989847331E+02 0.  0.
         11    1    3    3    0    0 -0.41128614111E+03  0.73598396799E+03 -0.95701274158E+01  0.84316088521E+03  0.00000000000E+00 0.  1.
        -11    1    3    3    0    0 -0.32531890094E+02  0.12440805927E+03 -0.18245649650E+02  0.12987914696E+03  0.00000000000E+00 0. -1.
          4    1    5    5  502    0  0.85197125889E+02 -0.24180623021E+03 -0.91741106252E+02  0.27229622437E+03  0.00000000000E+00 0. -1.
          3    1    6    6  503    0  0.52415681390E+01  0.15605888012E+02 -0.18648299445E+02  0.24875225615E+02  0.00000000000E+00 0. -1.
         -4    1    5    5    0  502  0.34903363216E+03 -0.75174740181E+03 -0.45831747552E+03  0.94710270872E+03  0.00000000000E+00 0.  1.
         -3    1    6    6    0  503  0.43457050152E+01  0.11755571676E+03  0.10829508425E+03  0.15989389284E+03  0.00000000000E+00 0.  1.
<mgrwt>
<rscale>  0 0.23265322E+04</rscale>
<asrwt>0</asrwt>
<pdfrwt beam="1">  1        1 0.14530619E+00 0.23265322E+04</pdfrwt>
<pdfrwt beam="2">  1       -1 0.22041813E+00 0.23265322E+04</pdfrwt>
<totfact> 0.16510076E+00</totfact>
</mgrwt>
</event>
<event>
12    1  0.4820219E-008  0.2868197E+04  0.7818608E-02  0.8282403E-01
         -2   -1    0    0    0  501 -0.00000000000E+00  0.00000000000E+00  0.10199054759E+04  0.10199054759E+04  0.00000000000E+00 0.  1.
          2   -1    0    0  501    0  0.00000000000E+00 -0.00000000000E+00 -0.20164994691E+04  0.20164994691E+04  0.00000000000E+00 0. -1.
         23    2    1    2    0    0  0.96304505598E+03 -0.65254786964E+03 -0.10448585867E+04  0.15662856342E+04  0.90811450798E+02 0.  0.
        254    2    1    2    0    0 -0.96304505598E+03  0.65254786964E+03  0.48264593515E+02  0.14701193109E+04  0.89757830589E+03 0.  0.
         23    2    4    4    0    0 -0.25458829560E+03  0.57229271912E+03  0.31082079894E+03  0.70513383501E+03  0.90939538214E+02 0.  0.
         23    2    4    4    0    0 -0.70845676039E+03  0.80255150517E+02 -0.26255620543E+03  0.76498547587E+03  0.88967110529E+02 0.  0.
         11    1    3    3    0    0  0.91331839802E+03 -0.59594059716E+03 -0.96104123144E+03  0.14535803865E+04  0.00000000000E+00 0. -1.
        -11    1    3    3    0    0  0.49726657960E+02 -0.56607272478E+02 -0.83817355234E+02  0.11270524765E+03  0.00000000000E+00 0.  1.
          2    1    5    5  502    0 -0.12285269028E+02  0.28444263672E+02 -0.46579961334E+01  0.31332106519E+02  0.00000000000E+00 0. -1.
          3    1    6    6  503    0 -0.12439336726E+03  0.39111823164E+02 -0.23226428247E+02  0.13244965647E+03  0.00000000000E+00 0. -1.
         -2    1    5    5    0  502 -0.24230302657E+03  0.54384845545E+03  0.31547879507E+03  0.67380172849E+03  0.00000000000E+00 0.  1.
         -3    1    6    6    0  503 -0.58406339313E+03  0.41143327353E+02 -0.23932977718E+03  0.63253581940E+03  0.00000000000E+00 0.  1.
<mgrwt>
<rscale>  0 0.28681972E+04</rscale>
<asrwt>0</asrwt>
<pdfrwt beam="1">  1        2 0.31023069E+00 0.28681972E+04</pdfrwt>
<pdfrwt beam="2">  1       -2 0.15690854E+00 0.28681972E+04</pdfrwt>
<totfact> 0.15035005E+00</totfact>
</mgrwt>
</event>
<event>
12    1  0.4820219E-008  0.3274698E+04  0.7818608E-02  0.8169364E-01
         -1   -1    0    0    0  501 -0.00000000000E+00  0.00000000000E+00  0.13320010607E+04  0.13320010607E+04  0.00000000000E+00 0.  1.
          1   -1    0    0  501    0  0.00000000000E+00 -0.00000000000E+00 -0.20126945549E+04  0.20126945549E+04  0.00000000000E+00 0. -1.
         23    2    1    2    0    0 -0.74471388346E+03 -0.24954694901E+03 -0.16349790142E+04  0.18161485140E+04  0.91469119906E+02 0.  0.
        254    2    1    2    0    0  0.74471388346E+03  0.24954694901E+03  0.95428551992E+03  0.15285471017E+04  0.89940143457E+03 0.  0.
         23    2    4    4    0    0  0.58489131986E+03  0.52450540578E+03  0.89134745158E+03  0.11915749094E+04  0.90259118339E+02 0.  0.
         23    2    4    4    0    0  0.15982256360E+03 -0.27495845676E+03  0.62938068347E+02  0.33697219231E+03  0.91889352833E+02 0.  0.
         11    1    3    3    0    0 -0.71678597158E+03 -0.22123955865E+03 -0.15691446549E+04  0.17392366197E+04  0.00000000000E+00 0. -1.
        -11    1    3    3    0    0 -0.27927911884E+02 -0.28307390361E+02 -0.65834359284E+02  0.76911894227E+02  0.00000000000E+00 0.  1.
          4    1    5    5  502    0  0.35855221953E+03  0.37705116832E+03  0.56996739817E+03  0.77174484944E+03  0.00000000000E+00 0. -1.
          1    1    6    6  503    0  0.13974387648E+03 -0.27716037421E+03  0.63227215518E+02  0.31677106059E+03  0.00000000000E+00 0. -1.
         -4    1    5    5    0  502  0.22633910034E+03  0.14745423745E+03  0.32138005341E+03  0.41983005992E+03  0.00000000000E+00 0.  1.
         -1    1    6    6    0  503  0.20078687119E+02  0.22019174444E+01 -0.28914717107E+00  0.20201131724E+02  0.00000000000E+00 0.  1.
<mgrwt>
<rscale>  0 0.32746977E+04</rscale>
<asrwt>0</asrwt>
<pdfrwt beam="1">  1        1 0.30964532E+00 0.32746977E+04</pdfrwt>
<pdfrwt beam="2">  1       -1 0.20492324E+00 0.32746977E+04</pdfrwt>
<totfact> 0.33816238E-01</totfact>
</mgrwt>
</event>
<event>
12    1  0.4820219E-008  0.3092917E+04  0.7818608E-02  0.8217684E-01
         -2   -1    0    0    0  501 -0.00000000000E+00  0.00000000000E+00  0.57653853869E+03  0.57653853869E+03  0.00000000000E+00 0.  1.
          2   -1    0    0  501    0  0.00000000000E+00 -0.00000000000E+00 -0.41480900869E+04  0.41480900869E+04  0.00000000000E+00 0. -1.
         23    2    1    2    0    0  0.56217780384E+03  0.12893501743E+04 -0.13738556840E+04  0.19684148716E+04  0.93326905244E+02 0.  0.
        254    2    1    2    0    0 -0.56217780384E+03 -0.12893501743E+04 -0.21976958642E+04  0.27562137540E+04  0.88790730999E+03 0.  0.
         23    2    4    4    0    0  0.13207121370E+03 -0.78197483596E+03 -0.10296018913E+04  0.13028306435E+04  0.91434028634E+02 0.  0.
         23    2    4    4    0    0 -0.69424901755E+03 -0.50737533830E+03 -0.11680939730E+04  0.14533831105E+04  0.92019041176E+02 0.  0.
         13    1    3    3    0    0  0.23230683048E+03  0.61732629539E+03 -0.59883344443E+03  0.89087581213E+03  0.00000000000E+00 0.  1.
        -13    1    3    3    0    0  0.32987097336E+03  0.67202387887E+03 -0.77502223956E+03  0.10775390595E+04  0.00000000000E+00 0. -1.
          1    1    5    5  502    0  0.13885694875E+01 -0.11296885465E+03 -0.19358943286E+03  0.22414450420E+03  0.00000000000E+00 0. -1.
          3    1    6    6  503    0 -0.14366577613E+03 -0.93636218701E+02 -0.17658660919E+03  0.24615122837E+03  0.00000000000E+00 0. -1.
         -1    1    5    5    0  502  0.13068264422E+03 -0.66900598130E+03 -0.83601245839E+03  0.10786861393E+04  0.00000000000E+00 0.  1.
         -3    1    6    6    0  503 -0.55058324142E+03 -0.41373911960E+03 -0.99150736380E+03  0.12072318822E+04  0.00000000000E+00 0.  1.
<mgrwt>
<rscale>  0 0.30929169E+04</rscale>
<asrwt>0</asrwt>
<pdfrwt beam="1">  1        2 0.63816770E+00 0.30929169E+04</pdfrwt>
<pdfrwt beam="2">  1       -2 0.88698238E-01 0.30929169E+04</pdfrwt>
<totfact> 0.23898238E-01</totfact>
</mgrwt>
</event>
<event>
12    1  0.4820219E-008  0.2148939E+04  0.7818608E-02  0.8539987E-01
          2   -1    0    0  501    0  0.00000000000E+00  0.00000000000E+00  0.15427940825E+04  0.15427940825E+04  0.00000000000E+00 0.  1.
         -2   -1    0    0    0  501 -0.00000000000E+00 -0.00000000000E+00 -0.74830748082E+03  0.74830748082E+03  0.00000000000E+00 0. -1.
         23    2    1    2    0    0 -0.31100225295E+03  0.95849971043E+02 -0.54830892873E+03  0.64348309487E+03  0.86707518520E+02 0.  0.
        254    2    1    2    0    0  0.31100225295E+03 -0.95849971043E+02  0.13427955304E+04  0.16476184684E+04  0.89757292896E+03 0.  0.
         23    2    4    4    0    0  0.38395535958E+03 -0.17988148386E+03  0.14194843291E+04  0.14842999097E+04  0.91822628859E+02 0.  0.
         23    2    4    4    0    0 -0.72953106635E+02  0.84031512814E+02 -0.76688798681E+02  0.16331855870E+03  0.91696940291E+02 0.  0.
         13    1    3    3    0    0 -0.16783118016E+03  0.88805967752E+02 -0.35789281673E+03  0.40514327492E+03  0.00000000000E+00 0. -1.
        -13    1    3    3    0    0 -0.14317107279E+03  0.70440032914E+01 -0.19041611200E+03  0.23833981995E+03  0.00000000000E+00 0.  1.
          2    1    5    5  502    0  0.48521889817E+02 -0.21871156239E+02  0.94991568355E+02  0.10888580865E+03  0.00000000000E+00 0. -1.
          2    1    6    6  503    0  0.60431229326E+01  0.16705452419E+02 -0.54306967710E+02  0.57138762825E+02  0.00000000000E+00 0. -1.
         -2    1    5    5    0  502  0.33543346977E+03 -0.15801032762E+03  0.13244927607E+04  0.13754141011E+04  0.00000000000E+00 0.  1.
         -2    1    6    6    0  503 -0.78996229567E+02  0.67326060394E+02 -0.22381830971E+02  0.10617979587E+03  0.00000000000E+00 0.  1.
<mgrwt>
<rscale>  0 0.21489387E+04</rscale>
<asrwt>0</asrwt>
<pdfrwt beam="1">  1        2 0.23735293E+00 0.21489387E+04</pdfrwt>
<pdfrwt beam="2">  1       -2 0.11512423E+00 0.21489387E+04</pdfrwt>
<totfact> 0.64826479E+00</totfact>
</mgrwt>
</event>
<event>
12    1  0.4820219E-008  0.1898499E+04  0.7818608E-02  0.8655604E-01
          2   -1    0    0  501    0  0.00000000000E+00  0.00000000000E+00  0.80393558413E+03  0.80393558413E+03  0.00000000000E+00 0. -1.
         -2   -1    0    0    0  501 -0.00000000000E+00 -0.00000000000E+00 -0.11208289846E+04  0.11208289846E+04  0.00000000000E+00 0.  1.
         23    2    1    2    0    0  0.15541753315E+03  0.53162371537E+02  0.60101621579E+03  0.62961731386E+03  0.90645589627E+02 0.  0.
        254    2    1    2    0    0 -0.15541753315E+03 -0.53162371537E+02 -0.91790961629E+03  0.12951472549E+04  0.89881449746E+03 0.  0.
         23    2    4    4    0    0  0.27864090754E+03  0.23668661640E+03 -0.46459279732E+03  0.59784888551E+03  0.88969167926E+02 0.  0.
         23    2    4    4    0    0 -0.43405844068E+03 -0.28984898794E+03 -0.45331681897E+03  0.69729836939E+03  0.91157620968E+02 0.  0.
         13    1    3    3    0    0  0.82843642587E+02 -0.66643669984E+01  0.38735179896E+03  0.39616776631E+03  0.00000000000E+00 0. -1.
        -13    1    3    3    0    0  0.72573890558E+02  0.59826738535E+02  0.21366441683E+03  0.23344954755E+03  0.00000000000E+00 0.  1.
          2    1    5    5  502    0  0.22615735403E+03  0.21849367871E+03 -0.35009350005E+03  0.47058696879E+03  0.00000000000E+00 0. -1.
          4    1    6    6  503    0 -0.22313189156E+03 -0.99844328520E+02 -0.23597746165E+03  0.33976770502E+03  0.00000000000E+00 0.  1.
         -2    1    5    5    0  502  0.52483553512E+02  0.18192937692E+02 -0.11449929727E+03  0.12726191672E+03  0.00000000000E+00 0.  1.
         -4    1    6    6    0  503 -0.21092654913E+03 -0.19000465942E+03 -0.21733935731E+03  0.35753066437E+03  0.00000000000E+00 0. -1.
<mgrwt>
<rscale>  0 0.18984987E+04</rscale>
<asrwt>0</asrwt>
<pdfrwt beam="1">  1        2 0.12368240E+00 0.18984987E+04</pdfrwt>
<pdfrwt beam="2">  1       -2 0.17243523E+00 0.18984987E+04</pdfrwt>
<totfact> 0.65622660E+00</totfact>
</mgrwt>
</event>
<event>
12    1  0.4820219E-008  0.2391406E+04  0.7818608E-02  0.8442728E-01
          2   -1    0    0  501    0  0.00000000000E+00  0.00000000000E+00  0.22655201298E+04  0.22655201298E+04  0.00000000000E+00 0. -1.
         -2   -1    0    0    0  501 -0.00000000000E+00 -0.00000000000E+00 -0.63107159803E+03  0.63107159803E+03  0.00000000000E+00 0.  1.
         23    2    1    2    0    0 -0.43223282379E+03 -0.65263740788E+03 -0.97340714728E+02  0.79389195314E+03  0.89601441872E+02 0.  0.
        254    2    1    2    0    0  0.43223282379E+03  0.65263740788E+03  0.17317892465E+04  0.21026997747E+04  0.89971748237E+03 0.  0.
         23    2    4    4    0    0  0.32573769265E+03  0.31357493723E+03  0.15920347172E+03  0.48779365140E+03  0.90347192911E+02 0.  0.
         23    2    4    4    0    0  0.10649513114E+03  0.33906247066E+03  0.15725857748E+04  0.16149061233E+04  0.92688705184E+02 0.  0.
         11    1    3    3    0    0 -0.36576058174E+03 -0.54274424553E+03 -0.11414133652E+03  0.66436463174E+03  0.00000000000E+00 0.  1.
        -11    1    3    3    0    0 -0.66472242051E+02 -0.10989316236E+03  0.16800621791E+02  0.12952732140E+03  0.00000000000E+00 0. -1.
          4    1    5    5  502    0  0.33391324316E+02  0.21497644513E+02 -0.10465295944E+02  0.41068865073E+02  0.00000000000E+00 0.  1.
          1    1    6    6  503    0  0.11804208147E+03  0.32042668695E+03  0.15208898999E+04  0.15587537593E+04  0.00000000000E+00 0. -1.
         -4    1    5    5    0  502  0.29234636834E+03  0.29207729271E+03  0.16966876766E+03  0.44672478633E+03  0.00000000000E+00 0. -1.
         -1    1    6    6    0  503 -0.11546950329E+02  0.18635783705E+02  0.51695874873E+02  0.56152363931E+02  0.00000000000E+00 0.  1.
<mgrwt>
<rscale>  0 0.23914058E+04</rscale>
<asrwt>0</asrwt>
<pdfrwt beam="1">  1        2 0.34854155E+00 0.23914058E+04</pdfrwt>
<pdfrwt beam="2">  1       -2 0.97087940E-01 0.23914058E+04</pdfrwt>
<totfact> 0.37790402E+00</totfact>
</mgrwt>
</event>
<event>
12    1  0.4820219E-008  0.2270113E+04  0.7818608E-02  0.8489799E-01
         -2   -1    0    0    0  501 -0.00000000000E+00  0.00000000000E+00  0.16002731887E+04  0.16002731887E+04  0.00000000000E+00 0.  1.
          2   -1    0    0  501    0  0.00000000000E+00 -0.00000000000E+00 -0.80508354509E+03  0.80508354509E+03  0.00000000000E+00 0. -1.
         23    2    1    2    0    0 -0.20393871580E+03 -0.67292094644E+03  0.10216248446E+04  0.12437010792E+04  0.93066918535E+02 0.  0.
        254    2    1    2    0    0  0.20393871580E+03  0.67292094644E+03 -0.22643520093E+03  0.11616556546E+04  0.89652515847E+03 0.  0.
         23    2    4    4    0    0 -0.28671743786E+03  0.42001776170E+02  0.58485927410E+02  0.30813611752E+03  0.86926548544E+02 0.  0.
         23    2    4    4    0    0  0.49065615365E+03  0.63091917027E+03 -0.28492112834E+03  0.85351953712E+03  0.92266409572E+02 0.  0.
         11    1    3    3    0    0 -0.20918409085E+03 -0.64842095523E+03  0.10028110010E+04  0.12123686002E+04  0.00000000000E+00 0.  1.
        -11    1    3    3    0    0  0.52453750496E+01 -0.24499991210E+02  0.18813843622E+02  0.31332479004E+02  0.00000000000E+00 0. -1.
          4    1    5    5  502    0 -0.18856116487E+03  0.56307381321E+02  0.68659370981E+02  0.20842251153E+03  0.00000000000E+00 0. -1.
          1    1    6    6  503    0  0.10025004370E+03  0.11413839461E+03 -0.92536790742E+02  0.17787833490E+03  0.00000000000E+00 0. -1.
         -4    1    5    5    0  502 -0.98156272988E+02 -0.14305605151E+02 -0.10173443572E+02  0.99713605991E+02  0.00000000000E+00 0.  1.
         -1    1    6    6    0  503  0.39040610995E+03  0.51678077567E+03 -0.19238433760E+03  0.67564120222E+03  0.00000000000E+00 0.  1.
<mgrwt>
<rscale>  0 0.22701133E+04</rscale>
<asrwt>0</asrwt>
<pdfrwt beam="1">  1        2 0.12385901E+00 0.22701133E+04</pdfrwt>
<pdfrwt beam="2">  1       -2 0.24619587E+00 0.22701133E+04</pdfrwt>
<totfact> 0.21049797E+00</totfact>
</mgrwt>
</event>
<event>
12    1  0.4820219E-008  0.1956786E+04  0.7818608E-02  0.8627095E-01
         -1   -1    0    0    0  501 -0.00000000000E+00  0.00000000000E+00  0.11237657990E+04  0.11237657990E+04  0.00000000000E+00 0.  1.
          1   -1    0    0  501    0  0.00000000000E+00 -0.00000000000E+00 -0.85182583693E+03  0.85182583693E+03  0.00000000000E+00 0. -1.
         23    2    1    2    0    0 -0.58211192607E+03 -0.33177663099E+03 -0.27150755233E+03  0.72873906222E+03  0.91729180119E+02 0.  0.
        254    2    1    2    0    0  0.58211192607E+03  0.33177663099E+03  0.54344751444E+03  0.12468525738E+04  0.90020892707E+03 0.  0.
         23    2    4    4    0    0  0.22331990626E+03  0.13325130010E+03 -0.23491023095E+03  0.36216356914E+03  0.91388974719E+02 0.  0.
         23    2    4    4    0    0  0.35879201981E+03  0.19852533090E+03  0.77835774539E+03  0.88468900462E+03  0.93219282308E+02 0.  0.
         13    1    3    3    0    0 -0.46377006556E+02 -0.55449883483E+02 -0.16079361605E+02  0.74054454188E+02  0.00000000000E+00 0.  1.
        -13    1    3    3    0    0 -0.53573491952E+03 -0.27632674751E+03 -0.25542819073E+03  0.65468460803E+03  0.00000000000E+00 0. -1.
          1    1    5    5  502    0  0.12910682358E+03  0.11709199000E+03 -0.11500286471E+03  0.20881753975E+03  0.00000000000E+00 0. -1.
          3    1    6    6  503    0  0.10137895027E+03  0.82515026316E+02  0.17399461370E+03  0.21762478425E+03  0.00000000000E+00 0. -1.
         -1    1    5    5    0  502  0.94213082686E+02  0.16159310095E+02 -0.11990736624E+03  0.15334602939E+03  0.00000000000E+00 0.  1.
         -3    1    6    6    0  503  0.25741306954E+03  0.11601030458E+03  0.60436313169E+03  0.66706422036E+03  0.00000000000E+00 0.  1.
<mgrwt>
<rscale>  0 0.19567859E+04</rscale>
<asrwt>0</asrwt>
<pdfrwt beam="1">  1        1 0.13105013E+00 0.19567859E+04</pdfrwt>
<pdfrwt beam="2">  1       -1 0.17288705E+00 0.19567859E+04</pdfrwt>
<totfact> 0.43547225E+00</totfact>
</mgrwt>
</event>
<event>
12    1  0.4820219E-008  0.1566480E+04  0.7818608E-02  0.8841409E-01
          2   -1    0    0  501    0  0.00000000000E+00  0.00000000000E+00  0.19695271599E+04  0.19695271599E+04  0.00000000000E+00 0. -1.
         -2   -1    0    0    0  501 -0.00000000000E+00 -0.00000000000E+00 -0.31147834549E+03  0.31147834549E+03  0.00000000000E+00 0.  1.
         23    2    1    2    0    0  0.25612847733E+03  0.33598713684E+03  0.12812849851E+03  0.45111935145E+03  0.92750224244E+02 0.  0.
        254    2    1    2    0    0 -0.25612847733E+03 -0.33598713684E+03  0.15299203159E+04  0.18298861539E+04  0.91067997142E+03 0.  0.
         23    2    4    4    0    0 -0.38339393347E+03  0.12126086160E+03  0.30711731600E+03  0.51425941238E+03  0.91905346213E+02 0.  0.
         23    2    4    4    0    0  0.12726545613E+03 -0.45724799844E+03  0.12228029999E+04  0.13156267415E+04  0.10175617000E+03 0.  0.
         11    1    3    3    0    0  0.17947437148E+03  0.26034557512E+03  0.13362432135E+03  0.34328752928E+03  0.00000000000E+00 0.  1.
        -11    1    3    3    0    0  0.76654105850E+02  0.75641561721E+02 -0.54958228391E+01  0.10783182217E+03  0.00000000000E+00 0. -1.
          4    1    5    5  502    0 -0.37728184696E+03  0.10812041826E+03  0.27559936175E+03  0.47956920782E+03  0.00000000000E+00 0. -1.
          1    1    6    6  503    0  0.99850355230E+02 -0.43832260782E+03  0.10982825020E+04  0.11867271195E+04  0.00000000000E+00 0. -1.
         -4    1    5    5    0  502 -0.61120865062E+01  0.13140443337E+02  0.31517954251E+02  0.34690204564E+02  0.00000000000E+00 0.  1.
         -1    1    6    6    0  503  0.27415100905E+02 -0.18925390615E+02  0.12452049792E+03  0.12889962207E+03  0.00000000000E+00 0.  1.
<mgrwt>
<rscale>  0 0.15664802E+04</rscale>
<asrwt>0</asrwt>
<pdfrwt beam="1">  1        2 0.30300417E+00 0.15664802E+04</pdfrwt>
<pdfrwt beam="2">  1       -2 0.47919747E-01 0.15664802E+04</pdfrwt>
<totfact> 0.27562981E+01</totfact>
</mgrwt>
</event>
<event>
12    1  0.5663710E-008  0.2448047E+04  0.7818608E-02  0.8421731E-01
          2   -1    0    0  501    0  0.00000000000E+00  0.00000000000E+00  0.23656868499E+04  0.23656868499E+04  0.00000000000E+00 0. -1.
         -2   -1    0    0    0  501 -0.00000000000E+00 -0.00000000000E+00 -0.63331868113E+03  0.63331868113E+03  0.00000000000E+00 0.  1.
         23    2    1    2    0    0 -0.60039397667E+03  0.57041670544E+03  0.15754829513E+04  0.17822678603E+04  0.92108909182E+02 0.  0.
        254    2    1    2    0    0  0.60039397667E+03 -0.57041670544E+03  0.15688521747E+03  0.12167376707E+04  0.87749042315E+03 0.  0.
         23    2    4    4    0    0 -0.21522106533E+03 -0.17925249880E+03  0.36053961943E+01  0.29462216093E+03  0.91310752597E+02 0.  0.
         23    2    4    4    0    0  0.81561504200E+03 -0.39116420663E+03  0.15327982128E+03  0.92211550974E+03  0.92547157715E+02 0.  0.
         11    1    3    3    0    0 -0.28173279754E+03  0.28936719629E+03  0.86051616092E+03  0.95057603941E+03  0.00000000000E+00 0. -1.
        -11    1    3    3    0    0 -0.31866117913E+03  0.28104950915E+03  0.71496679037E+03  0.83169182093E+03  0.00000000000E+00 0.  1.
          2    1    5    5  502    0 -0.21971454745E+03 -0.17525909845E+03 -0.84197459485E+01  0.28117810383E+03  0.00000000000E+00 0. -1.
          1    1    6    6  503    0  0.81778816720E+03 -0.39175625942E+03  0.15397104362E+03  0.91975949871E+03  0.00000000000E+00 0. -1.
         -2    1    5    5    0  502  0.44934821131E+01 -0.39934003495E+01  0.12025142143E+02  0.13444057104E+02  0.00000000000E+00 0.  1.
         -1    1    6    6    0  503 -0.21731251950E+01  0.59205278652E+00 -0.69122234746E+00  0.23560110247E+01  0.00000000000E+00 0.  1.
<mgrwt>
<rscale>  0 0.24480471E+04</rscale>
<asrwt>0</asrwt>
<pdfrwt beam="1">  1        2 0.36395182E+00 0.24480471E+04</pdfrwt>
<pdfrwt beam="2">  1       -2 0.97433645E-01 0.24480471E+04</pdfrwt>
<totfact> 0.32716739E+00</totfact>
</mgrwt>
</event>
<event>
12    1  0.4820219E-008  0.2119949E+04  0.7818608E-02  0.8552506E-01
         -1   -1    0    0    0  501 -0.00000000000E+00  0.00000000000E+00  0.11378093519E+04  0.11378093519E+04  0.00000000000E+00 0.  1.
          1   -1    0    0  501    0  0.00000000000E+00 -0.00000000000E+00 -0.98746377847E+03  0.98746377847E+03  0.00000000000E+00 0. -1.
         23    2    1    2    0    0  0.75114291009E+03 -0.31716732196E+03 -0.22759404934E+03  0.85161311957E+03  0.92925091557E+02 0.  0.
        254    2    1    2    0    0 -0.75114291009E+03  0.31716732196E+03  0.37793962280E+03  0.12736600108E+04  0.90253015640E+03 0.  0.
         23    2    4    4    0    0 -0.92302469200E+03  0.39290308429E+03  0.31051522647E+03  0.10541921652E+04  0.92487834435E+02 0.  0.
         23    2    4    4    0    0  0.17188178191E+03 -0.75735762333E+02  0.67424396328E+02  0.21946784568E+03  0.91328163333E+02 0.  0.
         11    1    3    3    0    0  0.58827639104E+03 -0.28552113644E+03 -0.16609736436E+03  0.67467011647E+03  0.00000000000E+00 0. -1.
        -11    1    3    3    0    0  0.16286651904E+03 -0.31646185526E+02 -0.61496684982E+02  0.17694300310E+03  0.00000000000E+00 0.  1.
          2    1    5    5  502    0 -0.26667595810E+03  0.10282839772E+03  0.13147064328E+03  0.31460177376E+03  0.00000000000E+00 0. -1.
          3    1    6    6  503    0  0.43437059675E+02 -0.29430412912E+02 -0.21309633180E+02  0.56630626199E+02  0.00000000000E+00 0. -1.
         -2    1    5    5    0  502 -0.65634873389E+03  0.29007468657E+03  0.17904458320E+03  0.73959039140E+03  0.00000000000E+00 0.  1.
         -3    1    6    6    0  503  0.12844472223E+03 -0.46305349421E+02  0.88734029508E+02  0.16283721948E+03  0.00000000000E+00 0.  1.
<mgrwt>
<rscale>  0 0.21199486E+04</rscale>
<asrwt>0</asrwt>
<pdfrwt beam="1">  1        1 0.15191750E+00 0.21199486E+04</pdfrwt>
<pdfrwt beam="2">  1       -1 0.17504759E+00 0.21199486E+04</pdfrwt>
<totfact> 0.32116168E+00</totfact>
</mgrwt>
</event>
<event>
12    1  0.4820219E-008  0.2403186E+04  0.7818608E-02  0.8438312E-01
         -2   -1    0    0    0  501 -0.00000000000E+00  0.00000000000E+00  0.88399729840E+03  0.88399729840E+03  0.00000000000E+00 0.  1.
          2   -1    0    0  501    0  0.00000000000E+00 -0.00000000000E+00 -0.16332917028E+04  0.16332917028E+04  0.00000000000E+00 0. -1.
         23    2    1    2    0    0  0.68766450484E+03 -0.52857738539E+03 -0.86757029851E+03  0.12319301363E+04  0.11268147313E+03 0.  0.
        254    2    1    2    0    0 -0.68766450484E+03  0.52857738539E+03  0.11827589413E+03  0.12853588649E+04  0.94121288812E+03 0.  0.
         23    2    4    4    0    0 -0.44742700549E+03 -0.58205131218E+02 -0.27276865521E+03  0.53563648421E+03  0.94471908055E+02 0.  0.
         23    2    4    4    0    0 -0.24023749935E+03  0.58678251661E+03  0.39104454933E+03  0.74972238064E+03  0.84498701651E+02 0.  0.
         11    1    3    3    0    0  0.36111164721E+03 -0.22658788320E+03 -0.47991646380E+03  0.64192172638E+03  0.00000000000E+00 0. -1.
        -11    1    3    3    0    0  0.32655285763E+03 -0.30198950219E+03 -0.38765383471E+03  0.59000840996E+03  0.00000000000E+00 0.  1.
          2    1    5    5  502    0 -0.42162606555E+03 -0.67472953502E+02 -0.27539189999E+03  0.50809628731E+03  0.00000000000E+00 0.  1.
          2    1    6    6  503    0 -0.16316140229E+03  0.29286263667E+03  0.18947374057E+03  0.38508501077E+03  0.00000000000E+00 0. -1.
         -2    1    5    5    0  502 -0.25800939945E+02  0.92678222840E+01  0.26232447827E+01  0.27540196897E+02  0.00000000000E+00 0. -1.
         -2    1    6    6    0  503 -0.77076097061E+02  0.29391987994E+03  0.20157080877E+03  0.36463736988E+03  0.00000000000E+00 0.  1.
<mgrwt>
<rscale>  0 0.24031858E+04</rscale>
<asrwt>0</asrwt>
<pdfrwt beam="1">  1        2 0.25127564E+00 0.24031858E+04</pdfrwt>
<pdfrwt beam="2">  1       -2 0.13599959E+00 0.24031858E+04</pdfrwt>
<totfact> 0.37189236E+00</totfact>
</mgrwt>
</event>
<event>
12    1  0.4820219E-008  0.1493097E+04  0.7818608E-02  0.8889057E-01
          2   -1    0    0  501    0  0.00000000000E+00  0.00000000000E+00  0.11116720390E+04  0.11116720390E+04  0.00000000000E+00 0. -1.
         -2   -1    0    0    0  501 -0.00000000000E+00 -0.00000000000E+00 -0.50134780126E+03  0.50134780126E+03  0.00000000000E+00 0.  1.
         23    2    1    2    0    0  0.11119913424E+03  0.22851154919E+02 -0.29587145528E+03  0.33006915893E+03  0.92294685047E+02 0.  0.
        254    2    1    2    0    0 -0.11119913424E+03 -0.22851154919E+02  0.90619569303E+03  0.12829506813E+04  0.90104627737E+03 0.  0.
         23    2    4    4    0    0 -0.58141861763E+02 -0.30846539641E+03 -0.73925613620E-03  0.32685311316E+03  0.91113010640E+02 0.  0.
         23    2    4    4    0    0 -0.53057272476E+02  0.28561424150E+03  0.90619643228E+03  0.95609756818E+03  0.92412211818E+02 0.  0.
         13    1    3    3    0    0 -0.13852549684E+02 -0.96066903942E+01 -0.28317709410E+02  0.32955641388E+02  0.00000000000E+00 0. -1.
        -13    1    3    3    0    0  0.12505168392E+03  0.32457845313E+02 -0.26755374587E+03  0.29711351754E+03  0.00000000000E+00 0.  1.
          1    1    5    5  502    0 -0.26891294408E+02 -0.50307910125E+02 -0.31078149227E+02  0.64960594944E+02  0.00000000000E+00 0. -1.
          3    1    6    6  503    0 -0.54806403795E+00  0.12467431867E+03  0.26393920715E+03  0.29190390745E+03  0.00000000000E+00 0. -1.
         -1    1    5    5    0  502 -0.31250567356E+02 -0.25815748629E+03  0.31077409971E+02  0.26189251822E+03  0.00000000000E+00 0.  1.
         -3    1    6    6    0  503 -0.52509208438E+02  0.16093992283E+03  0.64225722513E+03  0.66419366074E+03  0.00000000000E+00 0.  1.
<mgrwt>
<rscale>  0 0.14930966E+04</rscale>
<asrwt>0</asrwt>
<pdfrwt beam="1">  1        2 0.17102647E+00 0.14930966E+04</pdfrwt>
<pdfrwt beam="2">  1       -2 0.77130431E-01 0.14930966E+04</pdfrwt>
<totfact> 0.31082670E+01</totfact>
</mgrwt>
</event>
<event>
12    1  0.4820219E-008  0.1864918E+04  0.7818608E-02  0.8672519E-01
          1   -1    0    0  501    0  0.00000000000E+00  0.00000000000E+00  0.42960099288E+03  0.42960099288E+03  0.00000000000E+00 0. -1.
         -1   -1    0    0    0  501 -0.00000000000E+00 -0.00000000000E+00 -0.20239236421E+04  0.20239236421E+04  0.00000000000E+00 0.  1.
         23    2    1    2    0    0 -0.59700527114E+01  0.68171780649E+03 -0.33252198396E+03  0.76325061763E+03  0.84887138445E+02 0.  0.
        254    2    1    2    0    0  0.59700527114E+01 -0.68171780649E+03 -0.12618006652E+04  0.16902740173E+04  0.89448897458E+03 0.  0.
         23    2    4    4    0    0 -0.14029050424E+03  0.69836159348E+02 -0.73408408298E+03  0.75627596599E+03  0.92278822622E+02 0.  0.
         23    2    4    4    0    0  0.14626055696E+03 -0.75155396584E+03 -0.52771658226E+03  0.93399805134E+03  0.87418845980E+02 0.  0.
         13    1    3    3    0    0  0.17416437547E+02  0.28979321145E+03 -0.18266836880E+03  0.34300316422E+03  0.00000000000E+00 0.  1.
        -13    1    3    3    0    0 -0.23386490258E+02  0.39192459504E+03 -0.14985361516E+03  0.42024745341E+03  0.00000000000E+00 0. -1.
          1    1    6    6  502    0  0.96652313176E+02 -0.51706068908E+03 -0.41022502195E+03  0.66706670916E+03  0.00000000000E+00 0. -1.
          1    1    5    5  503    0 -0.10136562013E+03  0.29851440138E+02 -0.28909984631E+03  0.30780646283E+03  0.00000000000E+00 0. -1.
         -1    1    5    5    0  503 -0.38924884112E+02  0.39984719210E+02 -0.44498423668E+03  0.44846950316E+03  0.00000000000E+00 0.  1.
         -1    1    6    6    0  502  0.49608243780E+02 -0.23449327676E+03 -0.11749156030E+03  0.26693134218E+03  0.00000000000E+00 0.  1.
<mgrwt>
<rscale>  0 0.18649178E+04</rscale>
<asrwt>0</asrwt>
<pdfrwt beam="1">  1        1 0.66092461E-01 0.18649178E+04</pdfrwt>
<pdfrwt beam="2">  1       -1 0.31137287E+00 0.18649178E+04</pdfrwt>
<totfact> 0.14269914E+00</totfact>
</mgrwt>
</event>
<event>
12    1  0.4820219E-008  0.2415072E+04  0.7818608E-02  0.8433882E-01
          2   -1    0    0  501    0  0.00000000000E+00  0.00000000000E+00  0.20192401413E+04  0.20192401413E+04  0.00000000000E+00 0. -1.
         -2   -1    0    0    0  501 -0.00000000000E+00 -0.00000000000E+00 -0.72212488503E+03  0.72212488503E+03  0.00000000000E+00 0.  1.
         23    2    1    2    0    0 -0.95333957893E+02  0.83127337916E+03  0.12683801903E+04  0.15221873712E+04  0.90344293589E+02 0.  0.
        254    2    1    2    0    0  0.95333957893E+02 -0.83127337916E+03  0.28735065934E+02  0.12191776551E+04  0.88626432644E+03 0.  0.
         23    2    4    4    0    0 -0.61082377543E+02 -0.97853513416E+03 -0.16487471011E+01  0.98475811745E+03  0.92107360617E+02 0.  0.
         23    2    4    4    0    0  0.15641633544E+03  0.14726175500E+03  0.30383813035E+02  0.23441953768E+03  0.88753867946E+02 0.  0.
         13    1    3    3    0    0 -0.36660619425E+02  0.33327861812E+03  0.42966123995E+03  0.54500221965E+03  0.00000000000E+00 0. -1.
        -13    1    3    3    0    0 -0.58673338468E+02  0.49799476104E+03  0.83871895038E+03  0.97718515154E+03  0.00000000000E+00 0.  1.
          1    1    5    5  502    0 -0.81964704400E+02 -0.75669033289E+03 -0.18042375226E+02  0.76133041445E+03  0.00000000000E+00 0.  1.
          3    1    6    6  503    0  0.21145194150E+02  0.69106431962E+02 -0.10258682411E+02  0.72993552722E+02  0.00000000000E+00 0. -1.
         -1    1    5    5    0  502  0.20882326856E+02 -0.22184480127E+03  0.16393628125E+02  0.22342770300E+03  0.00000000000E+00 0. -1.
         -3    1    6    6    0  503  0.13527114129E+03  0.78155323035E+02  0.40642495446E+02  0.16142598496E+03  0.00000000000E+00 0.  1.
<mgrwt>
<rscale>  0 0.24150723E+04</rscale>
<asrwt>0</asrwt>
<pdfrwt beam="1">  1        2 0.31065233E+00 0.24150723E+04</pdfrwt>
<pdfrwt beam="2">  1       -2 0.11109614E+00 0.24150723E+04</pdfrwt>
<totfact> 0.37548310E+00</totfact>
</mgrwt>
</event>
<event>
12    1  0.4820219E-008  0.1228800E+04  0.7818608E-02  0.9088015E-01
         -2   -1    0    0    0  501 -0.00000000000E+00  0.00000000000E+00  0.42653232981E+03  0.42653232981E+03  0.00000000000E+00 0.  1.
          2   -1    0    0  501    0  0.00000000000E+00 -0.00000000000E+00 -0.88501412442E+03  0.88501412442E+03  0.00000000000E+00 0. -1.
         23    2    1    2    0    0  0.14895992109E+03 -0.47869644616E+02  0.12822238469E+03  0.22228523159E+03  0.92136763993E+02 0.  0.
        254    2    1    2    0    0 -0.14895992109E+03  0.47869644616E+02 -0.58670417930E+03  0.10892612226E+04  0.90431612624E+03 0.  0.
         23    2    4    4    0    0 -0.33598338385E+02  0.35919295341E+03  0.40298451251E+02  0.37420326918E+03  0.90860857185E+02 0.  0.
         23    2    4    4    0    0 -0.11536158271E+03 -0.31132330879E+03 -0.62700263055E+03  0.71505795347E+03  0.89135182387E+02 0.  0.
         11    1    3    3    0    0  0.15848528620E+03 -0.32102633830E+02  0.10568465986E+03  0.19317715281E+03  0.00000000000E+00 0.  1.
        -11    1    3    3    0    0 -0.95253651021E+01 -0.15767010786E+02  0.22537724834E+02  0.29108078778E+02  0.00000000000E+00 0. -1.
          1    1    6    6  502    0 -0.11684528103E+02 -0.36547317790E+02 -0.26636603504E+02  0.46709134876E+02  0.00000000000E+00 0. -1.
          1    1    5    5  503    0 -0.24380721030E+02  0.70510751567E+02 -0.23868742334E+02  0.78332001794E+02  0.00000000000E+00 0. -1.
         -1    1    5    5    0  503 -0.92176173554E+01  0.28868220184E+03  0.64167193585E+02  0.29587126738E+03  0.00000000000E+00 0.  1.
         -1    1    6    6    0  502 -0.10367705460E+03 -0.27477599100E+03 -0.60036602705E+03  0.66834881859E+03  0.00000000000E+00 0.  1.
<mgrwt>
<rscale>  0 0.12287996E+04</rscale>
<asrwt>0</asrwt>
<pdfrwt beam="1">  1        2 0.13615602E+00 0.12287996E+04</pdfrwt>
<pdfrwt beam="2">  1       -2 0.65620360E-01 0.12287996E+04</pdfrwt>
<totfact> 0.63256886E+01</totfact>
</mgrwt>
</event>
<event>
12    1  0.4820219E-008  0.1896326E+04  0.7818608E-02  0.8656687E-01
         -2   -1    0    0    0  501 -0.00000000000E+00  0.00000000000E+00  0.60751621690E+03  0.60751621690E+03  0.00000000000E+00 0.  1.
          2   -1    0    0  501    0  0.00000000000E+00 -0.00000000000E+00 -0.14798168886E+04  0.14798168886E+04  0.00000000000E+00 0. -1.
         23    2    1    2    0    0 -0.68703148729E+03 -0.12719268350E+03 -0.10496549408E+03  0.71235660589E+03  0.90796121857E+02 0.  0.
        254    2    1    2    0    0  0.68703148729E+03  0.12719268350E+03 -0.76733517764E+03  0.13749764996E+04  0.90197941021E+03 0.  0.
         23    2    4    4    0    0  0.44181694839E+03  0.78201624927E+02 -0.94755168341E+03  0.10524210719E+04  0.91750802424E+02 0.  0.
         23    2    4    4    0    0  0.24521453890E+03  0.48991058568E+02  0.18021650576E+03  0.32255542778E+03  0.95045889594E+02 0.  0.
         11    1    3    3    0    0 -0.99799905597E+01  0.81490562737E+01  0.37146875698E+01  0.13409184668E+02  0.00000000000E+00 0. -1.
        -11    1    3    3    0    0 -0.67705149673E+03 -0.13534173977E+03 -0.10868018165E+03  0.69894742122E+03  0.00000000000E+00 0.  1.
          2    1    5    5  502    0  0.23218727688E+03  0.24132756358E+00 -0.43193532894E+03  0.49038670269E+03  0.00000000000E+00 0. -1.
          3    1    6    6  503    0  0.16461872102E+03  0.72911593668E+02  0.14595264262E+03  0.23177057123E+03  0.00000000000E+00 0. -1.
         -2    1    5    5    0  502  0.20962967151E+03  0.77960297363E+02 -0.51561635446E+03  0.56203436917E+03  0.00000000000E+00 0.  1.
         -3    1    6    6    0  503  0.80595817888E+02 -0.23920535100E+02  0.34263863138E+02  0.90784856543E+02  0.00000000000E+00 0.  1.
<mgrwt>
<rscale>  0 0.18963257E+04</rscale>
<asrwt>0</asrwt>
<pdfrwt beam="1">  1        2 0.22766413E+00 0.18963257E+04</pdfrwt>
<pdfrwt beam="2">  1       -2 0.93464035E-01 0.18963257E+04</pdfrwt>
<totfact> 0.11821178E+01</totfact>
</mgrwt>
</event>
<event>
12    1  0.4820219E-008  0.1498882E+04  0.7818608E-02  0.8885197E-01
         -2   -1    0    0    0  501 -0.00000000000E+00  0.00000000000E+00  0.43533970309E+03  0.43533970309E+03  0.00000000000E+00 0.  1.
          2   -1    0    0  501    0  0.00000000000E+00 -0.00000000000E+00 -0.12901691516E+04  0.12901691516E+04  0.00000000000E+00 0. -1.
         23    2    1    2    0    0 -0.16108057066E+03  0.39685686005E+03 -0.50381828978E+03  0.66739120728E+03  0.90198873737E+02 0.  0.
        254    2    1    2    0    0  0.16108057066E+03 -0.39685686005E+03 -0.35101115877E+03  0.10581176474E+04  0.90164394560E+03 0.  0.
         23    2    4    4    0    0 -0.10294555964E+03 -0.54334652199E+03  0.35227332466E+02  0.56134450798E+03  0.89685341472E+02 0.  0.
         23    2    4    4    0    0  0.26402613030E+03  0.14648966194E+03 -0.38623849123E+03  0.49677313947E+03  0.80214471560E+02 0.  0.
         11    1    3    3    0    0 -0.15889219777E+03  0.39647708177E+03 -0.47623700136E+03  0.63972063304E+03  0.00000000000E+00 0. -1.
        -11    1    3    3    0    0 -0.21883728902E+01  0.37977828270E+00 -0.27581288426E+02  0.27670574239E+02  0.00000000000E+00 0.  1.
          4    1    5    5  502    0 -0.41442231463E+02 -0.37249222896E+03  0.54521146813E+02  0.37873536227E+03  0.00000000000E+00 0. -1.
          1    1    6    6  503    0  0.17050908702E+03  0.13014346628E+03 -0.23470699388E+03  0.31795918535E+03  0.00000000000E+00 0. -1.
         -4    1    5    5    0  502 -0.61503328176E+02 -0.17085429303E+03 -0.19293814348E+02  0.18260914571E+03  0.00000000000E+00 0.  1.
         -1    1    6    6    0  503  0.93517043287E+02  0.16346195658E+02 -0.15153149735E+03  0.17881395412E+03  0.00000000000E+00 0.  1.
<mgrwt>
<rscale>  0 0.14988821E+04</rscale>
<asrwt>0</asrwt>
<pdfrwt beam="1">  1        2 0.19848756E+00 0.14988821E+04</pdfrwt>
<pdfrwt beam="2">  1       -2 0.66975340E-01 0.14988821E+04</pdfrwt>
<totfact> 0.33126034E+01</totfact>
</mgrwt>
</event>
<event>
12    1  0.4820219E-008  0.1783581E+04  0.7818608E-02  0.8715080E-01
         -1   -1    0    0    0  501 -0.00000000000E+00  0.00000000000E+00  0.14014582585E+04  0.14014582585E+04  0.00000000000E+00 0.  1.
          1   -1    0    0  501    0  0.00000000000E+00 -0.00000000000E+00 -0.56747329678E+03  0.56747329678E+03  0.00000000000E+00 0. -1.
         23    2    1    2    0    0  0.46027099820E+03 -0.29704366731E+03 -0.99165721868E+02  0.56371179898E+03  0.88616137592E+02 0.  0.
        254    2    1    2    0    0 -0.46027099820E+03  0.29704366731E+03  0.93315068359E+03  0.14052197563E+04  0.89654226513E+03 0.  0.
         23    2    4    4    0    0  0.23220589034E+03  0.49482282050E+02  0.46134915525E+03  0.52650810279E+03  0.89440860417E+02 0.  0.
         23    2    4    4    0    0 -0.69247688854E+03  0.24756138526E+03  0.47180152834E+03  0.87871165351E+03  0.93416311417E+02 0.  0.
         11    1    3    3    0    0  0.13339458827E+03 -0.12640485691E+03 -0.57883030802E+02  0.19267264800E+03  0.00000000000E+00 0. -1.
        -11    1    3    3    0    0  0.32687640992E+03 -0.17063881041E+03 -0.41282691065E+02  0.37103915098E+03  0.00000000000E+00 0.  1.
          3    1    5    5  502    0  0.16731534872E+03  0.63885774067E+02  0.38906791078E+03  0.42831023481E+03  0.00000000000E+00 0. -1.
          3    1    6    6  503    0 -0.25160625927E+03  0.89529341397E+02  0.11907638587E+03  0.29240451150E+03  0.00000000000E+00 0. -1.
         -3    1    5    5    0  502  0.64890541622E+02 -0.14403492017E+02  0.72281244468E+02  0.98197867981E+02  0.00000000000E+00 0.  1.
         -3    1    6    6    0  503 -0.44087062927E+03  0.15803204387E+03  0.35272514247E+03  0.58630714201E+03  0.00000000000E+00 0.  1.
<mgrwt>
<rscale>  0 0.17835808E+04</rscale>
<asrwt>0</asrwt>
<pdfrwt beam="1">  1        1 0.87303585E-01 0.17835808E+04</pdfrwt>
<pdfrwt beam="2">  1       -1 0.21560896E+00 0.17835808E+04</pdfrwt>
<totfact> 0.41293269E+00</totfact>
</mgrwt>
</event>
<event>
12    1  0.4820219E-008  0.1589049E+04  0.7818608E-02  0.8827304E-01
          2   -1    0    0  501    0  0.00000000000E+00  0.00000000000E+00  0.12518522507E+04  0.12518522507E+04  0.00000000000E+00 0.  1.
         -2   -1    0    0    0  501 -0.00000000000E+00 -0.00000000000E+00 -0.50426841013E+03  0.50426841013E+03  0.00000000000E+00 0. -1.
         23    2    1    2    0    0 -0.26321567442E+03 -0.92669596783E+02  0.77008687443E+03  0.82413283582E+03  0.91054881740E+02 0.  0.
        254    2    1    2    0    0  0.26321567442E+03  0.92669596783E+02 -0.22503033893E+02  0.93198782497E+03  0.88894587795E+03 0.  0.
         23    2    4    4    0    0  0.39476175898E+03  0.47250427985E+02 -0.36758371746E+03  0.54900003768E+03  0.90630032149E+02 0.  0.
         23    2    4    4    0    0 -0.13154608456E+03  0.45419168798E+02  0.34508068357E+03  0.38298778729E+03  0.90728682259E+02 0.  0.
         13    1    3    3    0    0 -0.11262393775E+03 -0.55781709086E+02  0.46799377003E+03  0.48457602006E+03  0.00000000000E+00 0.  1.
        -13    1    3    3    0    0 -0.15059173667E+03 -0.36887887697E+02  0.30209310439E+03  0.33955681577E+03  0.00000000000E+00 0. -1.
          4    1    5    5  502    0  0.34611368509E+03  0.18813607960E+02 -0.34258805370E+03  0.48735532150E+03  0.00000000000E+00 0. -1.
          3    1    6    6  503    0 -0.10724892104E+03  0.66921291998E+02  0.31206709936E+03  0.33669966571E+03  0.00000000000E+00 0. -1.
         -4    1    5    5    0  502  0.48648073884E+02  0.28436820025E+02 -0.24995663765E+02  0.61644716179E+02  0.00000000000E+00 0.  1.
         -3    1    6    6    0  503 -0.24297163520E+02 -0.21502123200E+02  0.33013584215E+02  0.46288121586E+02  0.00000000000E+00 0.  1.
<mgrwt>
<rscale>  0 0.15890495E+04</rscale>
<asrwt>0</asrwt>
<pdfrwt beam="1">  1        2 0.19259265E+00 0.15890495E+04</pdfrwt>
<pdfrwt beam="2">  1       -2 0.77579755E-01 0.15890495E+04</pdfrwt>
<totfact> 0.25078535E+01</totfact>
</mgrwt>
</event>
<event>
12    1  0.4820219E-008  0.1602316E+04  0.7818608E-02  0.8819126E-01
         -1   -1    0    0    0  501 -0.00000000000E+00  0.00000000000E+00  0.59388793617E+03  0.59388793617E+03  0.00000000000E+00 0.  1.
          1   -1    0    0  501    0  0.00000000000E+00 -0.00000000000E+00 -0.10807668709E+04  0.10807668709E+04  0.00000000000E+00 0. -1.
         23    2    1    2    0    0  0.71492355964E+02  0.29676374111E+03  0.30389572209E+03  0.44016946482E+03  0.90645865079E+02 0.  0.
        254    2    1    2    0    0 -0.71492355964E+02 -0.29676374111E+03 -0.79077465684E+03  0.12344853423E+04  0.89746845480E+03 0.  0.
         23    2    4    4    0    0  0.23769671374E+03 -0.45207493333E+03 -0.68943749437E+03  0.86311347783E+03  0.93644775118E+02 0.  0.
         23    2    4    4    0    0 -0.30918906970E+03  0.15531119221E+03 -0.10133716247E+03  0.37137186443E+03  0.89041529336E+02 0.  0.
         11    1    3    3    0    0  0.75295350363E+02  0.12254539211E+03  0.12732919500E+03  0.19209239135E+03  0.00000000000E+00 0. -1.
        -11    1    3    3    0    0 -0.38029943985E+01  0.17421834900E+03  0.17656652709E+03  0.24807707347E+03  0.00000000000E+00 0.  1.
          2    1    5    5  502    0  0.11295115004E+03 -0.15079279998E+03 -0.31047818466E+03  0.36317094318E+03  0.00000000000E+00 0.  1.
          4    1    6    6  503    0 -0.20650703501E+03  0.10543922084E+03 -0.23172652347E+02  0.23302265259E+03  0.00000000000E+00 0. -1.
         -2    1    5    5    0  502  0.12474556369E+03 -0.30128213335E+03 -0.37895930971E+03  0.49994253465E+03  0.00000000000E+00 0. -1.
         -4    1    6    6    0  503 -0.10268203469E+03  0.49871971374E+02 -0.78164510123E+02  0.13834921185E+03  0.00000000000E+00 0.  1.
<mgrwt>
<rscale>  0 0.16023163E+04</rscale>
<asrwt>0</asrwt>
<pdfrwt beam="1">  1        1 0.16627182E+00 0.16023163E+04</pdfrwt>
<pdfrwt beam="2">  1       -1 0.91367376E-01 0.16023163E+04</pdfrwt>
<totfact> 0.14696741E+01</totfact>
</mgrwt>
</event>
<event>
12    1  0.4820219E-008  0.1658098E+04  0.7818608E-02  0.8785630E-01
         -2   -1    0    0    0  501 -0.00000000000E+00  0.00000000000E+00  0.41688014064E+03  0.41688014064E+03  0.00000000000E+00 0.  1.
          2   -1    0    0  501    0  0.00000000000E+00 -0.00000000000E+00 -0.16487282101E+04  0.16487282101E+04  0.00000000000E+00 0. -1.
         23    2    1    2    0    0  0.41967596052E+02 -0.44073007139E+03  0.33412392736E+02  0.45510948743E+03  0.10001991109E+03 0.  0.
        254    2    1    2    0    0 -0.41967596052E+02  0.44073007139E+03 -0.12652604622E+04  0.16104988633E+04  0.89264678152E+03 0.  0.
         23    2    4    4    0    0 -0.25565683969E+03 -0.10221318264E+03 -0.10451642702E+03  0.30818323871E+03  0.90803473048E+02 0.  0.
         23    2    4    4    0    0  0.21368924364E+03  0.54294325403E+03 -0.11607440351E+04  0.13023156246E+04  0.90822909703E+02 0.  0.
         11    1    3    3    0    0  0.90926079890E+01 -0.36567309041E+03  0.56153998139E+02  0.37007128513E+03  0.00000000000E+00 0.  1.
        -11    1    3    3    0    0  0.32874988063E+02 -0.75056980974E+02 -0.22741605403E+02  0.85038202294E+02  0.00000000000E+00 0. -1.
          4    1    5    5  502    0 -0.93007304623E+02 -0.85478159239E+02 -0.41736655990E+02  0.13303692297E+03  0.00000000000E+00 0. -1.
          1    1    6    6  503    0 -0.70161370051E+01  0.30315219875E+02 -0.82789411016E+02  0.88443910536E+02  0.00000000000E+00 0. -1.
         -4    1    5    5    0  502 -0.16264953507E+03 -0.16735023400E+02 -0.62779771028E+02  0.17514631574E+03  0.00000000000E+00 0.  1.
         -1    1    6    6    0  503  0.22070538065E+03  0.51262803415E+03 -0.10779546241E+04  0.12138717140E+04  0.00000000000E+00 0.  1.
<mgrwt>
<rscale>  0 0.16580978E+04</rscale>
<asrwt>0</asrwt>
<pdfrwt beam="1">  1        2 0.25365049E+00 0.16580978E+04</pdfrwt>
<pdfrwt beam="2">  1       -2 0.64135406E-01 0.16580978E+04</pdfrwt>
<totfact> 0.22464247E+01</totfact>
</mgrwt>
</event>
<event>
12    1  0.4820219E-008  0.1735233E+04  0.7818608E-02  0.8741521E-01
         -2   -1    0    0    0  501 -0.00000000000E+00  0.00000000000E+00  0.57646181987E+03  0.57646181987E+03  0.00000000000E+00 0.  1.
          2   -1    0    0  501    0  0.00000000000E+00 -0.00000000000E+00 -0.13058256549E+04  0.13058256549E+04  0.00000000000E+00 0. -1.
         23    2    1    2    0    0 -0.26561041753E+03  0.53541796175E+03 -0.50211239190E+03  0.78590666637E+03  0.91165489483E+02 0.  0.
        254    2    1    2    0    0  0.26561041753E+03 -0.53541796175E+03 -0.22725144308E+03  0.10963808084E+04  0.89061011160E+03 0.  0.
         23    2    4    4    0    0  0.17150684931E+03 -0.14892643056E+03 -0.53259515491E+03  0.58644513388E+03  0.93094655813E+02 0.  0.
         23    2    4    4    0    0  0.94103568226E+02 -0.38649153118E+03  0.30534371182E+03  0.50993567448E+03  0.92565784852E+02 0.  0.
         11    1    3    3    0    0 -0.10720345957E+03  0.31601027731E+03 -0.28910395355E+03  0.44151576763E+03  0.00000000000E+00 0. -1.
        -11    1    3    3    0    0 -0.15840695796E+03  0.21940768443E+03 -0.21300843835E+03  0.34439089873E+03  0.00000000000E+00 0.  1.
          1    1    5    5  502    0  0.10605607943E+02 -0.19750809360E+02 -0.15082518701E+03  0.15248216429E+03  0.00000000000E+00 0. -1.
          3    1    6    6  503    0  0.45619916708E+02 -0.52455411351E+02  0.37145782426E+02  0.78819769934E+02  0.00000000000E+00 0. -1.
         -1    1    5    5    0  502  0.16090124137E+03 -0.12917562120E+03 -0.38176996790E+03  0.43396296959E+03  0.00000000000E+00 0.  1.
         -3    1    6    6    0  503  0.48483651518E+02 -0.33403611983E+03  0.26819792940E+03  0.43111590454E+03  0.00000000000E+00 0.  1.
<mgrwt>
<rscale>  0 0.17352333E+04</rscale>
<asrwt>0</asrwt>
<pdfrwt beam="1">  1        2 0.20089626E+00 0.17352333E+04</pdfrwt>
<pdfrwt beam="2">  1       -2 0.88686434E-01 0.17352333E+04</pdfrwt>
<totfact> 0.17018110E+01</totfact>
</mgrwt>
</event>
<event>
12    1  0.4820219E-008  0.1527709E+04  0.7818608E-02  0.8866233E-01
          2   -1    0    0  501    0  0.00000000000E+00  0.00000000000E+00  0.18809262262E+04  0.18809262262E+04  0.00000000000E+00 0. -1.
         -2   -1    0    0    0  501 -0.00000000000E+00 -0.00000000000E+00 -0.31020545316E+03  0.31020545316E+03  0.00000000000E+00 0.  1.
         23    2    1    2    0    0 -0.13916496067E+03  0.44612401920E+03  0.70742125813E+03  0.85285753780E+03  0.92345094856E+02 0.  0.
        254    2    1    2    0    0  0.13916496067E+03 -0.44612401920E+03  0.86329951487E+03  0.13382741415E+04  0.90955928818E+03 0.  0.
         23    2    4    4    0    0 -0.16700007486E+03 -0.59526734880E+03  0.72936906583E+03  0.96048939490E+03  0.91260078699E+02 0.  0.
         23    2    4    4    0    0  0.30616503553E+03  0.14914332960E+03  0.13393044904E+03  0.37778474663E+03  0.93825305009E+02 0.  0.
         13    1    3    3    0    0 -0.28663623710E+02  0.19503814576E+03  0.23676280522E+03  0.30808782443E+03  0.00000000000E+00 0.  1.
        -13    1    3    3    0    0 -0.11050133696E+03  0.25108587343E+03  0.47065845291E+03  0.54476971337E+03  0.00000000000E+00 0. -1.
          2    1    5    5  502    0 -0.15847435533E+03 -0.41414410857E+03  0.52849095602E+03  0.68987836214E+03  0.00000000000E+00 0. -1.
          4    1    6    6  503    0  0.24723170168E+03  0.74639374201E+02  0.97727399935E+02  0.27612532516E+03  0.00000000000E+00 0. -1.
         -2    1    5    5    0  502 -0.85257195301E+01 -0.18112324023E+03  0.20087810981E+03  0.27061103275E+03  0.00000000000E+00 0.  1.
         -4    1    6    6    0  503  0.58933333850E+02  0.74503955401E+02  0.36203049108E+02  0.10165942147E+03  0.00000000000E+00 0.  1.
<mgrwt>
<rscale>  0 0.15277088E+04</rscale>
<asrwt>0</asrwt>
<pdfrwt beam="1">  1        2 0.28937326E+00 0.15277088E+04</pdfrwt>
<pdfrwt beam="2">  1       -2 0.47723917E-01 0.15277088E+04</pdfrwt>
<totfact> 0.31214623E+01</totfact>
</mgrwt>
</event>
<event>
12    1  0.4820219E-008  0.1764574E+04  0.7818608E-02  0.8725369E-01
         -1   -1    0    0    0  501 -0.00000000000E+00  0.00000000000E+00  0.54121394915E+03  0.54121394915E+03  0.00000000000E+00 0.  1.
          1   -1    0    0  501    0  0.00000000000E+00 -0.00000000000E+00 -0.14383036067E+04  0.14383036067E+04  0.00000000000E+00 0. -1.
         23    2    1    2    0    0  0.23182737240E+03 -0.56616384839E+03 -0.13661633245E+03  0.63343229471E+03  0.91033048247E+02 0.  0.
        254    2    1    2    0    0 -0.23182737240E+03  0.56616384839E+03 -0.76047332514E+03  0.13460852612E+04  0.92700615872E+03 0.  0.
         23    2    4    4    0    0 -0.42547981266E+03  0.43882794976E+03 -0.87760220155E+03  0.10734586908E+04  0.92330364905E+02 0.  0.
         23    2    4    4    0    0  0.19365244026E+03  0.12733589863E+03  0.11712887640E+03  0.27262657036E+03  0.83008279581E+02 0.  0.
         13    1    3    3    0    0  0.79764757813E+02 -0.29285923765E+03 -0.94204310885E+02  0.31781032370E+03  0.00000000000E+00 0. -1.
        -13    1    3    3    0    0  0.15206261459E+03 -0.27330461074E+03 -0.42412021566E+02  0.31562197100E+03  0.00000000000E+00 0.  1.
          2    1    6    6  502    0  0.83271376136E+02  0.98869759288E+02  0.41241385893E+02  0.13568420430E+03  0.00000000000E+00 0. -1.
          2    1    5    5  503    0 -0.28916857064E+03  0.23781916136E+03 -0.56023940005E+03  0.67382831725E+03  0.00000000000E+00 0. -1.
         -2    1    5    5    0  503 -0.13631124202E+03  0.20100878840E+03 -0.31736280150E+03  0.39963037358E+03  0.00000000000E+00 0.  1.
         -2    1    6    6    0  502  0.11038106413E+03  0.28466139338E+02  0.75887490508E+02  0.13694236606E+03  0.00000000000E+00 0.  1.
<mgrwt>
<rscale>  0 0.17645736E+04</rscale>
<asrwt>0</asrwt>
<pdfrwt beam="1">  1        1 0.22127747E+00 0.17645736E+04</pdfrwt>
<pdfrwt beam="2">  1       -1 0.83263686E-01 0.17645736E+04</pdfrwt>
<totfact> 0.97856971E+00</totfact>
</mgrwt>
</event>
<event>
12    1  0.4820219E-008  0.3665614E+04  0.7818608E-02  0.8075625E-01
          1   -1    0    0  501    0  0.00000000000E+00  0.00000000000E+00  0.16958354593E+04  0.16958354593E+04  0.00000000000E+00 0. -1.
         -1   -1    0    0    0  501 -0.00000000000E+00 -0.00000000000E+00 -0.19808417972E+04  0.19808417972E+04  0.00000000000E+00 0.  1.
         23    2    1    2    0    0  0.78700146733E+03 -0.12181612417E+04  0.79991677120E+03  0.16587966214E+04  0.91930789811E+02 0.  0.
        254    2    1    2    0    0 -0.78700146733E+03  0.12181612417E+04 -0.10849231092E+04  0.20178806351E+04  0.88966060061E+03 0.  0.
         23    2    4    4    0    0 -0.56460905093E+03  0.59868500108E+03 -0.10613918746E+03  0.83452678559E+03  0.89231820826E+02 0.  0.
         23    2    4    4    0    0 -0.22239241640E+03  0.61947624061E+03 -0.97878392172E+03  0.11833538495E+04  0.95389559808E+02 0.  0.
         13    1    3    3    0    0  0.18355859010E+03 -0.33878268653E+03  0.18101976868E+03  0.42571777194E+03  0.00000000000E+00 0. -1.
        -13    1    3    3    0    0  0.60344287723E+03 -0.87937855516E+03  0.61889700252E+03  0.12330788495E+04  0.00000000000E+00 0.  1.
          3    1    5    5  502    0 -0.32303652779E+02  0.29311019940E+02  0.14142343059E+02  0.45854855140E+02  0.00000000000E+00 0. -1.
          3    1    6    6  503    0 -0.15761342641E+02  0.16024074754E+03 -0.25650766882E+03  0.30285590841E+03  0.00000000000E+00 0. -1.
         -3    1    5    5    0  502 -0.53230539816E+03  0.56937398114E+03 -0.12028153051E+03  0.78867193045E+03  0.00000000000E+00 0.  1.
         -3    1    6    6    0  503 -0.20663107375E+03  0.45923549307E+03 -0.72227625290E+03  0.88049794108E+03  0.00000000000E+00 0.  1.
<mgrwt>
<rscale>  0 0.36656141E+04</rscale>
<asrwt>0</asrwt>
<pdfrwt beam="1">  1        1 0.26089776E+00 0.36656141E+04</pdfrwt>
<pdfrwt beam="2">  1       -1 0.30474489E+00 0.36656141E+04</pdfrwt>
<totfact> 0.11873672E-01</totfact>
</mgrwt>
</event>
<event>
12    1  0.4820219E-008  0.1856206E+04  0.7818608E-02  0.8676968E-01
          1   -1    0    0  501    0  0.00000000000E+00  0.00000000000E+00  0.24157875656E+04  0.24157875656E+04  0.00000000000E+00 0. -1.
         -1   -1    0    0    0  501 -0.00000000000E+00 -0.00000000000E+00 -0.35656076432E+03  0.35656076432E+03  0.00000000000E+00 0.  1.
         23    2    1    2    0    0  0.26411645398E+03  0.23278091462E+03  0.17253587558E+04  0.17632648482E+04  0.91080365981E+02 0.  0.
        254    2    1    2    0    0 -0.26411645398E+03 -0.23278091462E+03  0.33386804547E+03  0.10090834817E+04  0.88478084623E+03 0.  0.
         23    2    4    4    0    0  0.22504216265E+03  0.99828283512E+02  0.31310738035E+03  0.40898159955E+03  0.92844256612E+02 0.  0.
         23    2    4    4    0    0 -0.48915861662E+03 -0.33260919813E+03  0.20760665115E+02  0.60010188219E+03  0.98925390511E+02 0.  0.
         13    1    3    3    0    0  0.21011892043E+03  0.15229421925E+03  0.10843517954E+04  0.11149718858E+04  0.00000000000E+00 0.  1.
        -13    1    3    3    0    0  0.53997533543E+02  0.80486695367E+02  0.64100696047E+03  0.64829296242E+03  0.00000000000E+00 0. -1.
          2    1    5    5  502    0  0.16744262570E+03  0.68806262196E+02  0.28531801868E+03  0.33790191831E+03  0.00000000000E+00 0.  1.
          4    1    6    6  503    0 -0.16053735870E+03 -0.96948858473E+02  0.51695675146E+02  0.19453474633E+03  0.00000000000E+00 0. -1.
         -2    1    5    5    0  502  0.57599536947E+02  0.31022021316E+02  0.27789361676E+02  0.71079681242E+02  0.00000000000E+00 0. -1.
         -4    1    6    6    0  503 -0.32862125792E+03 -0.23566033966E+03 -0.30935010030E+02  0.40556713586E+03  0.00000000000E+00 0.  1.
<mgrwt>
<rscale>  0 0.18562059E+04</rscale>
<asrwt>0</asrwt>
<pdfrwt beam="1">  1        1 0.37165962E+00 0.18562059E+04</pdfrwt>
<pdfrwt beam="2">  1       -1 0.54855504E-01 0.18562059E+04</pdfrwt>
<totfact> 0.48894985E+00</totfact>
</mgrwt>
</event>
<event>
12    1  0.4820219E-008  0.3666489E+04  0.7818608E-02  0.8075429E-01
         -1   -1    0    0    0  501 -0.00000000000E+00  0.00000000000E+00  0.13988329699E+04  0.13988329699E+04  0.00000000000E+00 0.  1.
          1   -1    0    0  501    0  0.00000000000E+00 -0.00000000000E+00 -0.24025638780E+04  0.24025638780E+04  0.00000000000E+00 0. -1.
         23    2    1    2    0    0  0.13253162256E+04 -0.39912430047E+03  0.58811999430E+03  0.15082736856E+04  0.11506988323E+03 0.  0.
        254    2    1    2    0    0 -0.13253162256E+04  0.39912430047E+03 -0.15918509025E+04  0.22931231623E+04  0.89925593500E+03 0.  0.
         23    2    4    4    0    0 -0.11087910330E+04  0.40173859489E+03 -0.16693619271E+04  0.20459771663E+04  0.91879636912E+02 0.  0.
         23    2    4    4    0    0 -0.21652519260E+03 -0.26142944194E+01  0.77511024644E+02  0.24714599602E+03  0.90460990721E+02 0.  0.
         13    1    3    3    0    0  0.66770927792E+03 -0.14166804808E+03  0.27979857840E+03  0.73769421859E+03  0.00000000000E+00 0. -1.
        -13    1    3    3    0    0  0.65760694768E+03 -0.25745625239E+03  0.30832141590E+03  0.77057946704E+03  0.00000000000E+00 0.  1.
          2    1    5    5  502    0 -0.10870058346E+04  0.38565283730E+03 -0.16077722447E+04  0.19786968909E+04  0.00000000000E+00 0. -1.
          1    1    6    6  503    0 -0.16629112662E+03  0.36163309341E+02  0.66645726444E+02  0.18276262361E+03  0.00000000000E+00 0. -1.
         -2    1    5    5    0  502 -0.21785198364E+02  0.16085757582E+02 -0.61589682441E+02  0.67280275325E+02  0.00000000000E+00 0.  1.
         -1    1    6    6    0  503 -0.50234065982E+02 -0.38777603761E+02  0.10865298200E+02  0.64383372414E+02  0.00000000000E+00 0.  1.
<mgrwt>
<rscale>  0 0.36664891E+04</rscale>
<asrwt>0</asrwt>
<pdfrwt beam="1">  1        1 0.36962521E+00 0.36664891E+04</pdfrwt>
<pdfrwt beam="2">  1       -1 0.21520507E+00 0.36664891E+04</pdfrwt>
<totfact> 0.15089642E-01</totfact>
</mgrwt>
</event>
<event>
12    1  0.4820219E-008  0.1820393E+04  0.7818608E-02  0.8695529E-01
         -2   -1    0    0    0  501 -0.00000000000E+00  0.00000000000E+00  0.53446590819E+03  0.53446590819E+03  0.00000000000E+00 0. -1.
          2   -1    0    0  501    0  0.00000000000E+00 -0.00000000000E+00 -0.15500668373E+04  0.15500668373E+04  0.00000000000E+00 0.  1.
         23    2    1    2    0    0 -0.15809133984E+03 -0.98034168798E+01 -0.11482974596E+04  0.11627836310E+04  0.91595513292E+02 0.  0.
        254    2    1    2    0    0  0.15809133984E+03  0.98034168798E+01  0.13269653051E+03  0.92174911448E+03  0.89828953135E+03 0.  0.
         23    2    4    4    0    0  0.38411588522E+03  0.19955213812E+03 -0.18387245557E+03  0.47936383105E+03  0.92814511242E+02 0.  0.
         23    2    4    4    0    0 -0.22602454538E+03 -0.18974872124E+03  0.31656898608E+03  0.44238528343E+03  0.91635930320E+02 0.  0.
         11    1    3    3    0    0 -0.14480950758E+02  0.28754017587E+02 -0.28015447905E+03  0.28199826878E+03  0.00000000000E+00 0. -1.
        -11    1    3    3    0    0 -0.14361038908E+03 -0.38557434466E+02 -0.86814298056E+03  0.88078536222E+03  0.00000000000E+00 0.  1.
          4    1    5    5  502    0  0.30689713364E+03  0.15503822305E+03 -0.10279104092E+03  0.35887142452E+03  0.00000000000E+00 0. -1.
          1    1    6    6  503    0 -0.23092050119E+03 -0.19268421241E+03  0.29973078890E+03  0.42460573406E+03  0.00000000000E+00 0. -1.
         -4    1    5    5    0  502  0.77218751579E+02  0.44513915067E+02 -0.81081414650E+02  0.12049240653E+03  0.00000000000E+00 0.  1.
         -1    1    6    6    0  503  0.48959558043E+01  0.29354911778E+01  0.16838197179E+02  0.17779549374E+02  0.00000000000E+00 0.  1.
<mgrwt>
<rscale>  0 0.18203932E+04</rscale>
<asrwt>0</asrwt>
<pdfrwt beam="1">  1        2 0.23847182E+00 0.18203932E+04</pdfrwt>
<pdfrwt beam="2">  1       -2 0.82225525E-01 0.18203932E+04</pdfrwt>
<totfact> 0.14566374E+01</totfact>
</mgrwt>
</event>
<event>
12    1  0.4820219E-008  0.3274677E+04  0.7818608E-02  0.8169369E-01
         -1   -1    0    0    0  501 -0.00000000000E+00  0.00000000000E+00  0.22474947803E+04  0.22474947803E+04  0.00000000000E+00 0.  1.
          1   -1    0    0  501    0  0.00000000000E+00 -0.00000000000E+00 -0.11928294180E+04  0.11928294180E+04  0.00000000000E+00 0. -1.
         23    2    1    2    0    0 -0.76408000908E+03 -0.47283043886E+02 -0.88191505667E+03  0.11713267767E+04  0.90433976487E+02 0.  0.
        254    2    1    2    0    0  0.76408000908E+03  0.47283043886E+02  0.19365804190E+04  0.22689974216E+04  0.90108358848E+03 0.  0.
         23    2    4    4    0    0  0.18062281281E+03  0.10471534503E+03  0.15374300156E+04  0.15542099583E+04  0.91036461926E+02 0.  0.
         23    2    4    4    0    0  0.58345719628E+03 -0.57432301147E+02  0.39915040334E+03  0.71478746331E+03  0.88765444402E+02 0.  0.
         13    1    3    3    0    0 -0.51282404036E+03  0.10260773665E+02 -0.57505407001E+03  0.77057184174E+03  0.00000000000E+00 0.  1.
        -13    1    3    3    0    0 -0.25125596872E+03 -0.57543817551E+02 -0.30686098666E+03  0.40075493496E+03  0.00000000000E+00 0. -1.
          1    1    5    5  502    0  0.16787829954E+03  0.93248761047E+02  0.11138586301E+04  0.11302917777E+04  0.00000000000E+00 0. -1.
          3    1    6    6  503    0  0.29253434366E+03 -0.10295184896E+02  0.15022719932E+03  0.32901450495E+03  0.00000000000E+00 0. -1.
         -1    1    5    5    0  502  0.12744513264E+02  0.11466583986E+02  0.42357138551E+03  0.42391818053E+03  0.00000000000E+00 0.  1.
         -3    1    6    6    0  503  0.29092285262E+03 -0.47137116251E+02  0.24892320402E+03  0.38577295837E+03  0.00000000000E+00 0.  1.
<mgrwt>
<rscale>  0 0.32746773E+04</rscale>
<asrwt>0</asrwt>
<pdfrwt beam="1">  1        1 0.18351222E+00 0.32746773E+04</pdfrwt>
<pdfrwt beam="2">  1       -1 0.34576843E+00 0.32746773E+04</pdfrwt>
<totfact> 0.14897215E-01</totfact>
</mgrwt>
</event>
<event>
12    1  0.4820219E-008  0.1445241E+04  0.7818608E-02  0.8921706E-01
         -2   -1    0    0    0  501 -0.00000000000E+00  0.00000000000E+00  0.26859916042E+03  0.26859916042E+03  0.00000000000E+00 0.  1.
          2   -1    0    0  501    0  0.00000000000E+00 -0.00000000000E+00 -0.19440891762E+04  0.19440891762E+04  0.00000000000E+00 0. -1.
         23    2    1    2    0    0 -0.18006800620E+03 -0.37042317882E+03 -0.78106789476E+03  0.88754016496E+03  0.89569358255E+02 0.  0.
        254    2    1    2    0    0  0.18006800620E+03  0.37042317882E+03 -0.89442212107E+03  0.13251481717E+04  0.88678572837E+03 0.  0.
         23    2    4    4    0    0 -0.13758247980E+03  0.56991442251E+01  0.11546880558E+03  0.20153182955E+03  0.91217401111E+02 0.  0.
         23    2    4    4    0    0  0.31765048600E+03  0.36472403459E+03 -0.10098909267E+04  0.11236163422E+04  0.93319601075E+02 0.  0.
         11    1    3    3    0    0 -0.11296942198E+03 -0.30729072202E+03 -0.57194618783E+03  0.65902361105E+03  0.00000000000E+00 0. -1.
        -11    1    3    3    0    0 -0.67098584214E+02 -0.63132456793E+02 -0.20912170693E+03  0.22851655392E+03  0.00000000000E+00 0.  1.
          2    1    5    5  502    0 -0.12443813929E+03  0.28326720017E+02  0.11976063957E+03  0.17501389764E+03  0.00000000000E+00 0. -1.
          3    1    6    6  503    0  0.30981307003E+03  0.32162405805E+03 -0.94651538355E+03  0.10465741944E+04  0.00000000000E+00 0. -1.
         -2    1    5    5    0  502 -0.13144340505E+02 -0.22627575792E+02 -0.42918339873E+01  0.26517931905E+02  0.00000000000E+00 0.  1.
         -3    1    6    6    0  503  0.78374159656E+01  0.43099976538E+02 -0.63375543104E+02  0.77042147753E+02  0.00000000000E+00 0.  1.
<mgrwt>
<rscale>  0 0.14452415E+04</rscale>
<asrwt>0</asrwt>
<pdfrwt beam="1">  1        2 0.29909063E+00 0.14452415E+04</pdfrwt>
<pdfrwt beam="2">  1       -2 0.41322949E-01 0.14452415E+04</pdfrwt>
<totfact> 0.38639484E+01</totfact>
</mgrwt>
</event>
<event>
12    1  0.4820219E-008  0.1868245E+04  0.7818608E-02  0.8670826E-01
          2   -1    0    0  501    0  0.00000000000E+00  0.00000000000E+00  0.11017285020E+04  0.11017285020E+04  0.00000000000E+00 0. -1.
         -2   -1    0    0    0  501 -0.00000000000E+00 -0.00000000000E+00 -0.79201411528E+03  0.79201411528E+03  0.00000000000E+00 0.  1.
         23    2    1    2    0    0 -0.23793077080E+03  0.24149266200E+03 -0.51639486117E+03  0.62455260830E+03  0.92046457854E+02 0.  0.
        254    2    1    2    0    0  0.23793077080E+03 -0.24149266200E+03  0.82610924787E+03  0.12691900090E+04  0.90191852844E+03 0.  0.
         23    2    4    4    0    0 -0.47913363902E+02 -0.33541794663E+03 -0.34783572217E+02  0.35251429989E+03  0.90860031766E+02 0.  0.
         23    2    4    4    0    0  0.28584413470E+03  0.93925284632E+02  0.86089282009E+03  0.91667570907E+03  0.92892838675E+02 0.  0.
         11    1    3    3    0    0 -0.22794396411E+03  0.19890694150E+03 -0.48125762318E+03  0.56844641086E+03  0.00000000000E+00 0.  1.
        -11    1    3    3    0    0 -0.99868066936E+01  0.42585720495E+02 -0.35137237989E+02  0.56106197443E+02  0.00000000000E+00 0. -1.
          2    1    5    5  502    0 -0.26998567725E+02 -0.29826231587E+03 -0.56343216846E+02  0.30473577048E+03  0.00000000000E+00 0. -1.
          1    1    6    6  503    0  0.11367322536E+03  0.34394763934E+02  0.47979581606E+03  0.49427586130E+03  0.00000000000E+00 0. -1.
         -2    1    5    5    0  502 -0.20914796176E+02 -0.37155630761E+02  0.21559644629E+02  0.47778529413E+02  0.00000000000E+00 0.  1.
         -1    1    6    6    0  503  0.17217090935E+03  0.59530520698E+02  0.38109700402E+03  0.42239984777E+03  0.00000000000E+00 0.  1.
<mgrwt>
<rscale>  0 0.18682447E+04</rscale>
<asrwt>0</asrwt>
<pdfrwt beam="1">  1        2 0.16949669E+00 0.18682447E+04</pdfrwt>
<pdfrwt beam="2">  1       -2 0.12184833E+00 0.18682447E+04</pdfrwt>
<totfact> 0.10431618E+01</totfact>
</mgrwt>
</event>
<event>
12    1  0.4820219E-008  0.1340052E+04  0.7818608E-02  0.8998393E-01
         -1   -1    0    0    0  501 -0.00000000000E+00  0.00000000000E+00  0.49984870311E+03  0.49984870311E+03  0.00000000000E+00 0.  1.
          1   -1    0    0  501    0  0.00000000000E+00 -0.00000000000E+00 -0.89814160611E+03  0.89814160611E+03  0.00000000000E+00 0. -1.
         23    2    1    2    0    0 -0.23642097406E+03 -0.22025808149E+03 -0.23602303396E+03  0.41018619545E+03  0.90207222202E+02 0.  0.
        254    2    1    2    0    0  0.23642097406E+03  0.22025808149E+03 -0.16226986904E+03  0.98780411378E+03  0.91924803908E+03 0.  0.
         23    2    4    4    0    0 -0.34336667522E+03  0.12695332492E+03 -0.27730599106E+02  0.37841734668E+03  0.91721762859E+02 0.  0.
         23    2    4    4    0    0  0.57978764928E+03  0.93304756576E+02 -0.13453926993E+03  0.60938676709E+03  0.91607428172E+02 0.  0.
         11    1    3    3    0    0 -0.14079527901E+03 -0.13154521888E+03 -0.84912412276E+02  0.21056489014E+03  0.00000000000E+00 0. -1.
        -11    1    3    3    0    0 -0.95625695050E+02 -0.88712862617E+02 -0.15111062168E+03  0.19962130531E+03  0.00000000000E+00 0.  1.
          4    1    5    5  502    0 -0.21708533401E+01  0.96248173114E+01 -0.14285345819E+02  0.17361475101E+02  0.00000000000E+00 0. -1.
          4    1    6    6  503    0  0.30263983711E+03  0.94701147600E+02 -0.66573199494E+02  0.32402340850E+03  0.00000000000E+00 0. -1.
         -4    1    5    5    0  502 -0.34119582188E+03  0.11732850761E+03 -0.13445253286E+02  0.36105587158E+03  0.00000000000E+00 0.  1.
         -4    1    6    6    0  503  0.27714781217E+03 -0.13963910239E+01 -0.67966070440E+02  0.28536335859E+03  0.00000000000E+00 0.  1.
<mgrwt>
<rscale>  0 0.13400521E+04</rscale>
<asrwt>0</asrwt>
<pdfrwt beam="1">  1        1 0.13817563E+00 0.13400521E+04</pdfrwt>
<pdfrwt beam="2">  1       -1 0.76899801E-01 0.13400521E+04</pdfrwt>
<totfact> 0.30352226E+01</totfact>
</mgrwt>
</event>
<event>
12    1  0.4820219E-008  0.1724250E+04  0.7818608E-02  0.8747653E-01
         -1   -1    0    0    0  501 -0.00000000000E+00  0.00000000000E+00  0.45110636181E+03  0.45110636181E+03  0.00000000000E+00 0.  1.
          1   -1    0    0  501    0  0.00000000000E+00 -0.00000000000E+00 -0.16476378333E+04  0.16476378333E+04  0.00000000000E+00 0. -1.
         23    2    1    2    0    0 -0.29308068541E+01 -0.21648155876E+03  0.26064103866E+03  0.35124259175E+03  0.92545947027E+02 0.  0.
        254    2    1    2    0    0  0.29308068541E+01  0.21648155876E+03 -0.14571725102E+04  0.17475016034E+04  0.93996663480E+03 0.  0.
         23    2    4    4    0    0  0.45831218804E+03  0.12809488137E+03 -0.84090540773E+03  0.97040578610E+03  0.90039572448E+02 0.  0.
         23    2    4    4    0    0 -0.45538138118E+03  0.88386677394E+02 -0.61626710243E+03  0.77709581729E+03  0.94384112176E+02 0.  0.
         13    1    3    3    0    0 -0.38366071921E+02 -0.18062011083E+03  0.21276254891E+03  0.28171525009E+03  0.00000000000E+00 0.  1.
        -13    1    3    3    0    0  0.35435265067E+02 -0.35861447932E+02  0.47878489746E+02  0.69527341661E+02  0.00000000000E+00 0. -1.
          2    1    5    5  502    0  0.43545978807E+03  0.12810532897E+03 -0.82775022343E+03  0.94403741172E+03  0.00000000000E+00 0. -1.
          1    1    6    6  503    0 -0.44254555337E+03  0.89059619803E+02 -0.61666739766E+03  0.76423612976E+03  0.00000000000E+00 0. -1.
         -2    1    5    5    0  502  0.22852399971E+02 -0.10447604224E-01 -0.13155184305E+02  0.26368374385E+02  0.00000000000E+00 0.  1.
         -1    1    6    6    0  503 -0.12835827809E+02 -0.67294240847E+00  0.40029522678E+00  0.12859687527E+02  0.00000000000E+00 0.  1.
<mgrwt>
<rscale>  0 0.17242505E+04</rscale>
<asrwt>0</asrwt>
<pdfrwt beam="1">  1        1 0.25348274E+00 0.17242505E+04</pdfrwt>
<pdfrwt beam="2">  1       -1 0.69400980E-01 0.17242505E+04</pdfrwt>
<totfact> 0.10321301E+01</totfact>
</mgrwt>
</event>
<event>
12    1  0.4820219E-008  0.2756790E+04  0.7818608E-02  0.8316810E-01
          2   -1    0    0  501    0  0.00000000000E+00  0.00000000000E+00  0.13478283546E+04  0.13478283546E+04  0.00000000000E+00 0. -1.
         -2   -1    0    0    0  501 -0.00000000000E+00 -0.00000000000E+00 -0.14096543529E+04  0.14096543529E+04  0.00000000000E+00 0.  1.
         23    2    1    2    0    0  0.72788103427E+03  0.63408815447E+03 -0.78796582116E+03  0.12490521022E+04  0.85804610229E+02 0.  0.
        254    2    1    2    0    0 -0.72788103427E+03 -0.63408815447E+03  0.72613982285E+03  0.15084306052E+04  0.90344078975E+03 0.  0.
         23    2    4    4    0    0 -0.22635172402E+03 -0.16970512837E+03  0.76122502241E+03  0.81741048372E+03  0.93066807138E+02 0.  0.
         23    2    4    4    0    0 -0.50152931025E+03 -0.46438302609E+03 -0.35085199554E+02  0.69102012145E+03  0.95365575846E+02 0.  0.
         13    1    3    3    0    0  0.21130590119E+03  0.13706377517E+03 -0.22119742768E+03  0.33520883693E+03  0.00000000000E+00 0. -1.
        -13    1    3    3    0    0  0.51657513308E+03  0.49702437929E+03 -0.56676839348E+03  0.91384326532E+03  0.00000000000E+00 0.  1.
          2    1    5    5  502    0 -0.63423747298E+02 -0.62471878199E+02  0.13667547100E+03  0.16311189920E+03  0.00000000000E+00 0. -1.
          4    1    6    6  503    0 -0.47654438970E+03 -0.45824066728E+03 -0.20483918472E+02  0.66143681136E+03  0.00000000000E+00 0.  1.
         -2    1    5    5    0  502 -0.16292797672E+03 -0.10723325017E+03  0.62454955141E+03  0.65429858452E+03  0.00000000000E+00 0.  1.
         -4    1    6    6    0  503 -0.24984920550E+02 -0.61423588129E+01 -0.14601281082E+02  0.29583310091E+02  0.00000000000E+00 0. -1.
<mgrwt>
<rscale>  0 0.27567895E+04</rscale>
<asrwt>0</asrwt>
<pdfrwt beam="1">  1        2 0.20735821E+00 0.27567895E+04</pdfrwt>
<pdfrwt beam="2">  1       -2 0.21686990E+00 0.27567895E+04</pdfrwt>
<totfact> 0.14011208E+00</totfact>
</mgrwt>
</event>
<event>
12    1  0.4820219E-008  0.1233377E+04  0.7818608E-02  0.9084133E-01
          1   -1    0    0  501    0  0.00000000000E+00  0.00000000000E+00  0.12688757153E+04  0.12688757153E+04  0.00000000000E+00 0. -1.
         -1   -1    0    0    0  501 -0.00000000000E+00 -0.00000000000E+00 -0.29971783658E+03  0.29971783658E+03  0.00000000000E+00 0.  1.
         23    2    1    2    0    0 -0.24835645993E+03 -0.89993766103E+02  0.13809613796E+03  0.31195293404E+03  0.92001525040E+02 0.  0.
        254    2    1    2    0    0  0.24835645993E+03  0.89993766103E+02  0.83106174080E+03  0.12566406179E+04  0.90482164892E+03 0.  0.
         23    2    4    4    0    0  0.14297016376E+03  0.47371174283E+03  0.61484081285E+03  0.79449020805E+03  0.91335549088E+02 0.  0.
         23    2    4    4    0    0  0.10538629616E+03 -0.38371797672E+03  0.21622092796E+03  0.46215040983E+03  0.92118155335E+02 0.  0.
         13    1    3    3    0    0 -0.15339473356E+03 -0.55093245917E+02  0.33428069308E+02  0.16638102610E+03  0.00000000000E+00 0.  1.
        -13    1    3    3    0    0 -0.94961726368E+02 -0.34900520186E+02  0.10466806865E+03  0.14557190793E+03  0.00000000000E+00 0. -1.
          2    1    5    5  502    0  0.47432081119E+02  0.16502619163E+03  0.28510919997E+03  0.33282232820E+03  0.00000000000E+00 0. -1.
          3    1    6    6  503    0  0.65750333458E+02 -0.34837469228E+03  0.19760716107E+03  0.40587759568E+03  0.00000000000E+00 0. -1.
         -2    1    5    5    0  502  0.95538082643E+02  0.30868555119E+03  0.32973161288E+03  0.46166787985E+03  0.00000000000E+00 0.  1.
         -3    1    6    6    0  503  0.39635962705E+02 -0.35343284445E+02  0.18613766894E+02  0.56272814155E+02  0.00000000000E+00 0.  1.
<mgrwt>
<rscale>  0 0.12333770E+04</rscale>
<asrwt>0</asrwt>
<pdfrwt beam="1">  1        1 0.19521165E+00 0.12333770E+04</pdfrwt>
<pdfrwt beam="2">  1       -1 0.46110437E-01 0.12333770E+04</pdfrwt>
<totfact> 0.43978393E+01</totfact>
</mgrwt>
</event>
<event>
12    1  0.4820219E-008  0.1544594E+04  0.7818608E-02  0.8855328E-01
         -2   -1    0    0    0  501 -0.00000000000E+00  0.00000000000E+00  0.20715245025E+04  0.20715245025E+04  0.00000000000E+00 0.  1.
          2   -1    0    0  501    0  0.00000000000E+00 -0.00000000000E+00 -0.28792448144E+03  0.28792448144E+03  0.00000000000E+00 0. -1.
         23    2    1    2    0    0 -0.48515966754E+02 -0.38323598060E+03  0.11354973621E+03  0.41214220992E+03  0.88000242889E+02 0.  0.
        254    2    1    2    0    0  0.48515966754E+02  0.38323598060E+03  0.16700502849E+04  0.19473067740E+04  0.92396542272E+03 0.  0.
         23    2    4    4    0    0 -0.27228101139E+03  0.39026303990E+03  0.38144099224E+03  0.61642844453E+03  0.89691734262E+02 0.  0.
         23    2    4    4    0    0  0.32079697814E+03 -0.70270593043E+01  0.12886092926E+04  0.13308783295E+04  0.88108672398E+02 0.  0.
         11    1    3    3    0    0 -0.67261921439E+02 -0.28717594127E+03  0.10804838229E+03  0.31411564787E+03  0.00000000000E+00 0. -1.
        -11    1    3    3    0    0  0.18745954685E+02 -0.96060039329E+02  0.55013539235E+01  0.98026562053E+02  0.00000000000E+00 0.  1.
          1    1    5    5  502    0 -0.15115791399E+03  0.27729539128E+03  0.28095365130E+03  0.42270131673E+03  0.00000000000E+00 0. -1.
          3    1    6    6  503    0  0.13239384620E+03 -0.45141462152E+02  0.50200172423E+03  0.52112533353E+03  0.00000000000E+00 0. -1.
         -1    1    5    5    0  502 -0.12112309739E+03  0.11296764863E+03  0.10048734093E+03  0.19372712780E+03  0.00000000000E+00 0.  1.
         -3    1    6    6    0  503  0.18840313194E+03  0.38114402847E+02  0.78660756839E+03  0.80975299597E+03  0.00000000000E+00 0.  1.
<mgrwt>
<rscale>  0 0.15445940E+04</rscale>
<asrwt>0</asrwt>
<pdfrwt beam="1">  1        2 0.44296075E-01 0.15445940E+04</pdfrwt>
<pdfrwt beam="2">  1       -2 0.31869607E+00 0.15445940E+04</pdfrwt>
<totfact> 0.27121379E+00</totfact>
</mgrwt>
</event>
<event>
12    1  0.4820219E-008  0.1878340E+04  0.7818608E-02  0.8665714E-01
         -2   -1    0    0    0  501 -0.00000000000E+00  0.00000000000E+00  0.60258236549E+03  0.60258236549E+03  0.00000000000E+00 0.  1.
          2   -1    0    0  501    0  0.00000000000E+00 -0.00000000000E+00 -0.14637672139E+04  0.14637672139E+04  0.00000000000E+00 0. -1.
         23    2    1    2    0    0  0.53671823033E+02 -0.71628344986E+03 -0.43498338157E+03  0.84469986900E+03  0.91458631778E+02 0.  0.
        254    2    1    2    0    0 -0.53671823033E+02  0.71628344986E+03 -0.42620146685E+03  0.12216497104E+04  0.89153669550E+03 0.  0.
         23    2    4    4    0    0 -0.17898580275E+03  0.94039860401E+01  0.18585794499E+03  0.27365782997E+03  0.90670169554E+02 0.  0.
         23    2    4    4    0    0  0.12531397972E+03  0.70687946382E+03 -0.61205941184E+03  0.94799188043E+03  0.93218623980E+02 0.  0.
         11    1    3    3    0    0  0.38108209034E+02 -0.32098984320E+03 -0.24641343996E+03  0.40645577672E+03  0.00000000000E+00 0. -1.
        -11    1    3    3    0    0  0.15563613999E+02 -0.39529360666E+03 -0.18856994160E+03  0.43824409229E+03  0.00000000000E+00 0.  1.
          3    1    5    5  502    0  0.22775351920E+01  0.15784676663E+02  0.32243785872E+02  0.35972279762E+02  0.00000000000E+00 0. -1.
          3    1    6    6  503    0  0.73670317139E+02  0.22257901771E+03 -0.23595733851E+03  0.33263283113E+03  0.00000000000E+00 0. -1.
         -3    1    5    5    0  502 -0.18126333795E+03 -0.63806906224E+01  0.15361415911E+03  0.23768555021E+03  0.00000000000E+00 0.  1.
         -3    1    6    6    0  503  0.51643662582E+02  0.48430044611E+03 -0.37610207333E+03  0.61535904930E+03  0.00000000000E+00 0.  1.
<mgrwt>
<rscale>  0 0.18783400E+04</rscale>
<asrwt>0</asrwt>
<pdfrwt beam="1">  1        2 0.22519496E+00 0.18783400E+04</pdfrwt>
<pdfrwt beam="2">  1       -2 0.92704980E-01 0.18783400E+04</pdfrwt>
<totfact> 0.12320632E+01</totfact>
</mgrwt>
</event>
<event>
12    1  0.4820219E-008  0.1428547E+04  0.7818608E-02  0.8933410E-01
         -2   -1    0    0    0  501 -0.00000000000E+00  0.00000000000E+00  0.88404807076E+03  0.88404807076E+03  0.00000000000E+00 0.  1.
          2   -1    0    0  501    0  0.00000000000E+00 -0.00000000000E+00 -0.57710280681E+03  0.57710280681E+03  0.00000000000E+00 0. -1.
         23    2    1    2    0    0 -0.12877381466E+03 -0.37072813250E+03 -0.68149532406E+02  0.40833666123E+03  0.89846683657E+02 0.  0.
        254    2    1    2    0    0  0.12877381466E+03  0.37072813250E+03  0.37509479636E+03  0.10528142163E+04  0.90205300526E+03 0.  0.
         23    2    4    4    0    0  0.19721938228E+03  0.57767977531E+03  0.49182016036E+03  0.78915989892E+03  0.90977295899E+02 0.  0.
         23    2    4    4    0    0 -0.68445567623E+02 -0.20695164280E+03 -0.11672536401E+03  0.26365431742E+03  0.91515082402E+02 0.  0.
         11    1    3    3    0    0 -0.92063017307E+02 -0.27618863653E+03 -0.89742483473E+02  0.30464647617E+03  0.00000000000E+00 0. -1.
        -11    1    3    3    0    0 -0.36710797354E+02 -0.94539495974E+02  0.21592951067E+02  0.10369018506E+03  0.00000000000E+00 0.  1.
          2    1    5    5  502    0  0.42634642201E+02  0.25275601849E+03  0.18248043199E+03  0.31464650906E+03  0.00000000000E+00 0. -1.
          4    1    6    6  503    0 -0.46541005303E+02 -0.73690050735E+02 -0.91318561215E+02  0.12623536895E+03  0.00000000000E+00 0. -1.
         -2    1    5    5    0  502  0.15458474008E+03  0.32492375681E+03  0.30933972837E+03  0.47451338986E+03  0.00000000000E+00 0.  1.
         -4    1    6    6    0  503 -0.21904562320E+02 -0.13326159207E+03 -0.25406802793E+02  0.13741894847E+03  0.00000000000E+00 0.  1.
<mgrwt>
<rscale>  0 0.14285470E+04</rscale>
<asrwt>0</asrwt>
<pdfrwt beam="1">  1        2 0.88785047E-01 0.14285470E+04</pdfrwt>
<pdfrwt beam="2">  1       -2 0.13600740E+00 0.14285470E+04</pdfrwt>
<totfact> 0.19531681E+01</totfact>
</mgrwt>
</event>
<event>
12    1  0.4820219E-008  0.3363597E+04  0.7818608E-02  0.8146899E-01
          2   -1    0    0  501    0  0.00000000000E+00  0.00000000000E+00  0.20796957641E+04  0.20796957641E+04  0.00000000000E+00 0. -1.
         -2   -1    0    0    0  501 -0.00000000000E+00 -0.00000000000E+00 -0.13600288406E+04  0.13600288406E+04  0.00000000000E+00 0.  1.
         23    2    1    2    0    0  0.24791313069E+03  0.11487130707E+04 -0.68695711734E+03  0.13644382186E+04  0.93695955797E+02 0.  0.
        254    2    1    2    0    0 -0.24791313069E+03 -0.11487130707E+04  0.14066240409E+04  0.20752863861E+04  0.97325215282E+03 0.  0.
         23    2    4    4    0    0 -0.26170665207E+03 -0.43858072114E+03  0.25669906459E+02  0.51967678606E+03  0.92528899129E+02 0.  0.
         23    2    4    4    0    0  0.13793521379E+02 -0.71013234956E+03  0.13809541344E+04  0.15556096001E+04  0.91698917147E+02 0.  0.
         13    1    3    3    0    0  0.90623030356E+01  0.12652401311E+03 -0.48513543858E+02  0.13580874481E+03  0.00000000000E+00 0. -1.
        -13    1    3    3    0    0  0.23885082766E+03  0.10221890576E+04 -0.63844357348E+03  0.12286294738E+04  0.00000000000E+00 0.  1.
          4    1    5    5  502    0 -0.26800974967E+03 -0.41267613329E+03  0.20335269928E+02  0.49248790859E+03  0.00000000000E+00 0.  1.
          1    1    6    6  503    0  0.37369249991E+02 -0.23995263777E+03  0.53362430107E+03  0.58628374010E+03  0.00000000000E+00 0. -1.
         -4    1    5    5    0  502  0.63030975950E+01 -0.25904587855E+02  0.53346365313E+01  0.27188877471E+02  0.00000000000E+00 0. -1.
         -1    1    6    6    0  503 -0.23575728612E+02 -0.47017971179E+03  0.84732983333E+03  0.96932585997E+03  0.00000000000E+00 0.  1.
<mgrwt>
<rscale>  0 0.33635970E+04</rscale>
<asrwt>0</asrwt>
<pdfrwt beam="1">  1        2 0.31995320E+00 0.33635970E+04</pdfrwt>
<pdfrwt beam="2">  1       -2 0.20923520E+00 0.33635970E+04</pdfrwt>
<totfact> 0.58044089E-01</totfact>
</mgrwt>
</event>
<event>
12    1  0.4820219E-008  0.1623169E+04  0.7818608E-02  0.8806440E-01
          1   -1    0    0  501    0  0.00000000000E+00  0.00000000000E+00  0.74224113998E+03  0.74224113998E+03  0.00000000000E+00 0. -1.
         -1   -1    0    0    0  501 -0.00000000000E+00 -0.00000000000E+00 -0.88740594653E+03  0.88740594653E+03  0.00000000000E+00 0.  1.
         23    2    1    2    0    0  0.44957121802E+03 -0.76515121317E+01  0.33707202101E+03  0.56841355814E+03  0.85461102416E+02 0.  0.
        254    2    1    2    0    0 -0.44957121802E+03  0.76515121317E+01 -0.48223682755E+03  0.10612335284E+04  0.83155962995E+03 0.  0.
         23    2    4    4    0    0 -0.40920241270E+03 -0.26453975702E+03  0.30568247528E+01  0.49570817291E+03  0.91045872522E+02 0.  0.
         23    2    4    4    0    0 -0.40368805315E+02  0.27219126915E+03 -0.48529365231E+03  0.56552535545E+03  0.92689110720E+02 0.  0.
         11    1    3    3    0    0  0.17921185131E+03 -0.86661381586E+01  0.84087118250E+02  0.19814800796E+03  0.00000000000E+00 0.  1.
        -11    1    3    3    0    0  0.27035936671E+03  0.10146260270E+01  0.25298490276E+03  0.37026555019E+03  0.00000000000E+00 0. -1.
          2    1    5    5  502    0 -0.51580425838E+02 -0.42985501618E+02 -0.30369610389E+02  0.73692651697E+02  0.00000000000E+00 0. -1.
          4    1    6    6  503    0  0.72039744132E+01  0.18378582749E+02 -0.52396084379E+01  0.20423590472E+02  0.00000000000E+00 0. -1.
         -2    1    5    5    0  502 -0.35762198687E+03 -0.22155425540E+03  0.33426435141E+02  0.42201552121E+03  0.00000000000E+00 0.  1.
         -4    1    6    6    0  503 -0.47572779728E+02  0.25381268641E+03 -0.48005404387E+03  0.54510176498E+03  0.00000000000E+00 0.  1.
<mgrwt>
<rscale>  0 0.16231688E+04</rscale>
<asrwt>0</asrwt>
<pdfrwt beam="1">  1        1 0.11419094E+00 0.16231688E+04</pdfrwt>
<pdfrwt beam="2">  1       -1 0.13652399E+00 0.16231688E+04</pdfrwt>
<totfact> 0.10670996E+01</totfact>
</mgrwt>
</event>
<event>
12    1  0.4820219E-008  0.1143164E+04  0.7818608E-02  0.9164113E-01
          1   -1    0    0  501    0  0.00000000000E+00  0.00000000000E+00  0.57541403877E+03  0.57541403877E+03  0.00000000000E+00 0. -1.
         -1   -1    0    0    0  501 -0.00000000000E+00 -0.00000000000E+00 -0.56777568476E+03  0.56777568476E+03  0.00000000000E+00 0.  1.
         23    2    1    2    0    0 -0.37581796643E+02 -0.20684899843E+03 -0.66926520496E+02  0.24063233224E+03  0.96051343455E+02 0.  0.
        254    2    1    2    0    0  0.37581796643E+02  0.20684899843E+03  0.74564874508E+02  0.90255739129E+03  0.87455761644E+03 0.  0.
         23    2    4    4    0    0  0.11085638335E+03  0.51587494745E+03  0.16150035679E+03  0.56090192647E+03  0.10056096029E+03 0.  0.
         23    2    4    4    0    0 -0.73274586707E+02 -0.30902594902E+03 -0.86935482282E+02  0.34165546483E+03  0.91128899598E+02 0.  0.
         11    1    3    3    0    0 -0.22318383963E+02 -0.11738054757E+03 -0.86846122469E+02  0.14771104291E+03  0.00000000000E+00 0.  1.
        -11    1    3    3    0    0 -0.15263412680E+02 -0.89468450865E+02  0.19919601973E+02  0.92921289323E+02  0.00000000000E+00 0. -1.
          2    1    5    5  502    0  0.13047294662E+02  0.16408789626E+03  0.79495441829E+01  0.16479764819E+03  0.00000000000E+00 0. -1.
          1    1    6    6  503    0 -0.16408281133E+02 -0.18908788152E+03 -0.14278570989E+02  0.19033480033E+03  0.00000000000E+00 0. -1.
         -2    1    5    5    0  502  0.97809088687E+02  0.35178705119E+03  0.15355081261E+03  0.39610427828E+03  0.00000000000E+00 0.  1.
         -1    1    6    6    0  503 -0.56866305573E+02 -0.11993806750E+03 -0.72656911294E+02  0.15132066450E+03  0.00000000000E+00 0.  1.
<mgrwt>
<rscale>  0 0.11431642E+04</rscale>
<asrwt>0</asrwt>
<pdfrwt beam="1">  1        1 0.88525236E-01 0.11431642E+04</pdfrwt>
<pdfrwt beam="2">  1       -1 0.87350106E-01 0.11431642E+04</pdfrwt>
<totfact> 0.46653559E+01</totfact>
</mgrwt>
</event>
<event>
12    1  0.4820219E-008  0.2090393E+04  0.7818608E-02  0.8565487E-01
         -2   -1    0    0    0  501 -0.00000000000E+00  0.00000000000E+00  0.69225423368E+03  0.69225423368E+03  0.00000000000E+00 0.  1.
          2   -1    0    0  501    0  0.00000000000E+00 -0.00000000000E+00 -0.15780838429E+04  0.15780838429E+04  0.00000000000E+00 0. -1.
         23    2    1    2    0    0  0.74019662062E+03  0.41248903675E+03 -0.34303578895E+03  0.91842739185E+03  0.88301070179E+02 0.  0.
        254    2    1    2    0    0 -0.74019662062E+03 -0.41248903675E+03 -0.54279382024E+03  0.13519106847E+04  0.90277301992E+03 0.  0.
         23    2    4    4    0    0 -0.78975856299E+03 -0.15260714761E+03 -0.66412901092E+03  0.10474089346E+04  0.94818794405E+02 0.  0.
         23    2    4    4    0    0  0.49561942371E+02 -0.25988188914E+03  0.12133519067E+03  0.30450175012E+03  0.89465663230E+02 0.  0.
         13    1    3    3    0    0  0.12365686915E+03  0.95631869378E+02 -0.36762215127E+02  0.16058622665E+03  0.00000000000E+00 0. -1.
        -13    1    3    3    0    0  0.61653975148E+03  0.31685716737E+03 -0.30627357382E+03  0.75784116521E+03  0.00000000000E+00 0.  1.
          2    1    5    5  502    0 -0.49747058837E+03 -0.12058716426E+03 -0.47114649968E+03  0.69569912652E+03  0.00000000000E+00 0. -1.
          3    1    6    6  503    0  0.72428089201E+02 -0.19598766701E+03  0.10850677921E+03  0.23543728434E+03  0.00000000000E+00 0. -1.
         -2    1    5    5    0  502 -0.29228797462E+03 -0.32019983344E+02 -0.19298251124E+03  0.35170980806E+03  0.00000000000E+00 0.  1.
         -3    1    6    6    0  503 -0.22866146829E+02 -0.63894222131E+02  0.12828411464E+02  0.69064465779E+02  0.00000000000E+00 0.  1.
<mgrwt>
<rscale>  0 0.20903925E+04</rscale>
<asrwt>0</asrwt>
<pdfrwt beam="1">  1        2 0.24278213E+00 0.20903925E+04</pdfrwt>
<pdfrwt beam="2">  1       -2 0.10650065E+00 0.20903925E+04</pdfrwt>
<totfact> 0.75170354E+00</totfact>
</mgrwt>
</event>
<event>
12    1  0.4820219E-008  0.1295970E+04  0.7818608E-02  0.9032767E-01
          1   -1    0    0  501    0  0.00000000000E+00  0.00000000000E+00  0.10528083664E+04  0.10528083664E+04  0.00000000000E+00 0. -1.
         -1   -1    0    0    0  501 -0.00000000000E+00 -0.00000000000E+00 -0.39882335307E+03  0.39882335307E+03  0.00000000000E+00 0.  1.
         23    2    1    2    0    0  0.11763665485E+03  0.30943385636E+03  0.12809262135E+03  0.36630060858E+03  0.90447344776E+02 0.  0.
        254    2    1    2    0    0 -0.11763665485E+03 -0.30943385636E+03  0.52589239194E+03  0.10853311109E+04  0.88982757783E+03 0.  0.
         23    2    4    4    0    0 -0.29841876336E+03 -0.30378386276E+03  0.69673006905E+03  0.82064935252E+03  0.81817950841E+02 0.  0.
         23    2    4    4    0    0  0.18078210851E+03 -0.56499935919E+01 -0.17083767711E+03  0.26468175833E+03  0.90315159805E+02 0.  0.
         11    1    3    3    0    0 -0.12564584856E+02  0.47324156315E+02  0.65524383709E+01  0.49400192430E+02  0.00000000000E+00 0. -1.
        -11    1    3    3    0    0  0.13020123970E+03  0.26210970004E+03  0.12154018298E+03  0.31690041615E+03  0.00000000000E+00 0.  1.
          2    1    5    5  502    0 -0.68643557078E+02 -0.99316378828E+02  0.14227254717E+03  0.18659356557E+03  0.00000000000E+00 0. -1.
          1    1    6    6  503    0  0.68170794036E+01  0.24522605194E+02 -0.18224207502E+02  0.31304192629E+02  0.00000000000E+00 0. -1.
         -2    1    5    5    0  502 -0.22977520628E+03 -0.20446748394E+03  0.55445752187E+03  0.63405578695E+03  0.00000000000E+00 0.  1.
         -1    1    6    6    0  503  0.17396502911E+03 -0.30172598786E+02 -0.15261346960E+03  0.23337756570E+03  0.00000000000E+00 0.  1.
<mgrwt>
<rscale>  0 0.12959700E+04</rscale>
<asrwt>0</asrwt>
<pdfrwt beam="1">  1        1 0.16197052E+00 0.12959700E+04</pdfrwt>
<pdfrwt beam="2">  1       -1 0.61357439E-01 0.12959700E+04</pdfrwt>
<totfact> 0.36462043E+01</totfact>
</mgrwt>
</event>
<event>
12    1  0.4820219E-008  0.1389075E+04  0.7818608E-02  0.8961765E-01
          2   -1    0    0  501    0  0.00000000000E+00  0.00000000000E+00  0.11526295207E+04  0.11526295207E+04  0.00000000000E+00 0. -1.
         -2   -1    0    0    0  501 -0.00000000000E+00 -0.00000000000E+00 -0.41850617956E+03  0.41850617956E+03  0.00000000000E+00 0.  1.
         23    2    1    2    0    0 -0.54714412455E+02  0.28817114573E+03 -0.99126597283E+02  0.32347243080E+03  0.93659249607E+02 0.  0.
        254    2    1    2    0    0  0.54714412455E+02 -0.28817114573E+03  0.83324993840E+03  0.12476632694E+04  0.88109131076E+03 0.  0.
         23    2    4    4    0    0 -0.36694742582E+03  0.13250747146E+02  0.21372807923E+03  0.43467637946E+03  0.91857865189E+02 0.  0.
         23    2    4    4    0    0  0.42166183827E+03 -0.30142189288E+03  0.61952185917E+03  0.81298688998E+03  0.92122125061E+02 0.  0.
         11    1    3    3    0    0  0.10950537829E+02  0.28523036366E+02  0.12899280574E+02  0.33164277794E+02  0.00000000000E+00 0. -1.
        -11    1    3    3    0    0 -0.65664950284E+02  0.25964810936E+03 -0.11202587786E+03  0.29030815301E+03  0.00000000000E+00 0.  1.
          4    1    5    5  502    0 -0.25626561859E+02  0.26202426549E+02  0.15846973313E+02  0.39930118870E+02  0.00000000000E+00 0. -1.
          1    1    6    6  503    0  0.34334270573E+03 -0.27728635671E+03  0.55243738791E+03  0.70707779258E+03  0.00000000000E+00 0. -1.
         -4    1    5    5    0  502 -0.34132086396E+03 -0.12951679403E+02  0.19788110592E+03  0.39474626059E+03  0.00000000000E+00 0.  1.
         -1    1    6    6    0  503  0.78319132538E+02 -0.24135536170E+02  0.67084471259E+02  0.10590909740E+03  0.00000000000E+00 0.  1.
<mgrwt>
<rscale>  0 0.13890753E+04</rscale>
<asrwt>0</asrwt>
<pdfrwt beam="1">  1        2 0.17732762E+00 0.13890753E+04</pdfrwt>
<pdfrwt beam="2">  1       -2 0.64385567E-01 0.13890753E+04</pdfrwt>
<totfact> 0.43906213E+01</totfact>
</mgrwt>
</event>
<event>
12    1  0.4820219E-008  0.1581550E+04  0.7818608E-02  0.8831963E-01
          2   -1    0    0  501    0  0.00000000000E+00  0.00000000000E+00  0.50032003133E+03  0.50032003133E+03  0.00000000000E+00 0.  1.
         -2   -1    0    0    0  501 -0.00000000000E+00 -0.00000000000E+00 -0.12498506278E+04  0.12498506278E+04  0.00000000000E+00 0. -1.
         23    2    1    2    0    0  0.12717021662E+03  0.28335713438E+03 -0.72839008610E+03  0.79703018971E+03  0.90782576460E+02 0.  0.
        254    2    1    2    0    0 -0.12717021662E+03 -0.28335713438E+03 -0.21140510393E+02  0.95314046944E+03  0.90086974847E+03 0.  0.
         23    2    4    4    0    0 -0.22415272129E+02 -0.26394800301E+03 -0.43433094742E+03  0.51661498992E+03  0.89870368878E+02 0.  0.
         23    2    4    4    0    0 -0.10475494449E+03 -0.19409131363E+02  0.41319043703E+03  0.43652547952E+03  0.92075209716E+02 0.  0.
         13    1    3    3    0    0  0.48327124995E+02  0.31395902201E+02 -0.99724449274E+02  0.11517890201E+03  0.00000000000E+00 0.  1.
        -13    1    3    3    0    0  0.78843091620E+02  0.25196123217E+03 -0.62866563683E+03  0.68185128770E+03  0.00000000000E+00 0. -1.
          3    1    6    6  502    0 -0.27743384851E+02 -0.10255236393E+02  0.28621496088E+03  0.28773923804E+03  0.00000000000E+00 0. -1.
          3    1    5    5  503    0 -0.53330534973E+02 -0.12671316610E+03 -0.18732554758E+03  0.23236013686E+03  0.00000000000E+00 0. -1.
         -3    1    5    5    0  503  0.30915262844E+02 -0.13723483691E+03 -0.24700539984E+03  0.28425485306E+03  0.00000000000E+00 0.  1.
         -3    1    6    6    0  502 -0.77011559635E+02 -0.91538949705E+01  0.12697547615E+03  0.14878624148E+03  0.00000000000E+00 0.  1.
<mgrwt>
<rscale>  0 0.15815503E+04</rscale>
<asrwt>0</asrwt>
<pdfrwt beam="1">  1        2 0.76972313E-01 0.15815503E+04</pdfrwt>
<pdfrwt beam="2">  1       -2 0.19228471E+00 0.15815503E+04</pdfrwt>
<totfact> 0.88325326E+00</totfact>
</mgrwt>
</event>
<event>
12    1  0.4820219E-008  0.2506747E+04  0.7818608E-02  0.8400586E-01
         -2   -1    0    0    0  501 -0.00000000000E+00  0.00000000000E+00  0.60809887866E+03  0.60809887866E+03  0.00000000000E+00 0.  1.
          2   -1    0    0  501    0  0.00000000000E+00 -0.00000000000E+00 -0.25833718811E+04  0.25833718811E+04  0.00000000000E+00 0. -1.
         23    2    1    2    0    0  0.30672191090E+03  0.48956260665E+03  0.31474667614E+03  0.66419045360E+03  0.91288619528E+02 0.  0.
        254    2    1    2    0    0 -0.30672191090E+03 -0.48956260665E+03 -0.22900196785E+04  0.25272803061E+04  0.89955863688E+03 0.  0.
         23    2    4    4    0    0  0.99317613857E+02  0.99667314723E+01  0.11401661948E+02  0.13578815595E+03  0.91351525674E+02 0.  0.
         23    2    4    4    0    0 -0.40603952476E+03 -0.49952933812E+03 -0.23014213405E+04  0.23914921502E+04  0.91087115411E+02 0.  0.
         13    1    3    3    0    0  0.13281266699E+03  0.20990985800E+03  0.18718697007E+03  0.31103105112E+03  0.00000000000E+00 0.  1.
        -13    1    3    3    0    0  0.17390924391E+03  0.27965274865E+03  0.12755970607E+03  0.35315940247E+03  0.00000000000E+00 0. -1.
          2    1    5    5  502    0  0.11989867503E+02 -0.29414171544E+02  0.23106293822E+02  0.39279144906E+02  0.00000000000E+00 0. -1.
          4    1    6    6  503    0 -0.17747279738E+03 -0.17744265205E+03 -0.10304912291E+04  0.10606105137E+04  0.00000000000E+00 0. -1.
         -2    1    5    5    0  502  0.87327746354E+02  0.39380903016E+02 -0.11704631875E+02  0.96509011045E+02  0.00000000000E+00 0.  1.
         -4    1    6    6    0  503 -0.22856672737E+03 -0.32208668607E+03 -0.12709301114E+04  0.13308816365E+04  0.00000000000E+00 0.  1.
<mgrwt>
<rscale>  0 0.25067473E+04</rscale>
<asrwt>0</asrwt>
<pdfrwt beam="1">  1        2 0.39744183E+00 0.25067473E+04</pdfrwt>
<pdfrwt beam="2">  1       -2 0.93553673E-01 0.25067473E+04</pdfrwt>
<totfact> 0.26795783E+00</totfact>
</mgrwt>
</event>
<event>
12    1  0.4820219E-008  0.2166930E+04  0.7818608E-02  0.8532320E-01
          2   -1    0    0  501    0  0.00000000000E+00  0.00000000000E+00  0.44273746321E+04  0.44273746321E+04  0.00000000000E+00 0. -1.
         -2   -1    0    0    0  501 -0.00000000000E+00 -0.00000000000E+00 -0.26514509715E+03  0.26514509715E+03  0.00000000000E+00 0.  1.
         23    2    1    2    0    0 -0.50502772378E+03  0.73432476901E+03  0.16655875550E+04  0.18913799116E+04  0.94075493462E+02 0.  0.
        254    2    1    2    0    0  0.50502772378E+03 -0.73432476901E+03  0.24966419800E+04  0.28011398177E+04  0.90491835754E+03 0.  0.
         23    2    4    4    0    0  0.74900898547E+03 -0.46022713967E+03  0.18901793531E+04  0.20865500380E+04  0.89942169516E+02 0.  0.
         23    2    4    4    0    0 -0.24398126168E+03 -0.27409762934E+03  0.60646262690E+03  0.71458977968E+03  0.90472476134E+02 0.  0.
         13    1    3    3    0    0 -0.55669979481E+01  0.37756645455E+02  0.89577423548E+02  0.97368734981E+02  0.00000000000E+00 0.  1.
        -13    1    3    3    0    0 -0.49946072584E+03  0.69656812355E+03  0.15760101314E+04  0.17940111766E+04  0.00000000000E+00 0. -1.
          4    1    5    5  502    0  0.67653379353E+02 -0.64952861911E+02  0.25031541598E+03  0.26730817699E+03  0.00000000000E+00 0. -1.
          1    1    6    6  503    0 -0.17667746721E+02 -0.59975572838E+02  0.67130074034E+02  0.91736936134E+02  0.00000000000E+00 0. -1.
         -4    1    5    5    0  502  0.68135560611E+03 -0.39527427776E+03  0.16398639371E+04  0.18192418610E+04  0.00000000000E+00 0.  1.
         -1    1    6    6    0  503 -0.22631351496E+03 -0.21412205650E+03  0.53933255286E+03  0.62285284354E+03  0.00000000000E+00 0.  1.
<mgrwt>
<rscale>  0 0.21669302E+04</rscale>
<asrwt>0</asrwt>
<pdfrwt beam="1">  1        2 0.68113450E+00 0.21669302E+04</pdfrwt>
<pdfrwt beam="2">  1       -2 0.40791557E-01 0.21669302E+04</pdfrwt>
<totfact> 0.76310920E-01</totfact>
</mgrwt>
</event>
<event>
12    1  0.4820219E-008  0.1558152E+04  0.7818608E-02  0.8846677E-01
         -1   -1    0    0    0  501 -0.00000000000E+00  0.00000000000E+00  0.27019348346E+03  0.27019348346E+03  0.00000000000E+00 0.  1.
          1   -1    0    0  501    0  0.00000000000E+00 -0.00000000000E+00 -0.22463882123E+04  0.22463882123E+04  0.00000000000E+00 0. -1.
         23    2    1    2    0    0  0.33216983104E+03  0.40125393825E+03 -0.70890584584E+03  0.88437384678E+03  0.90708781249E+02 0.  0.
        254    2    1    2    0    0 -0.33216983104E+03 -0.40125393825E+03 -0.12672888830E+04  0.16322078490E+04  0.88698355659E+03 0.  0.
         23    2    4    4    0    0 -0.45251332861E+03  0.12346814556E+03 -0.67362466935E+03  0.82584747559E+03  0.90780847274E+02 0.  0.
         23    2    4    4    0    0  0.12034349757E+03 -0.52472208380E+03 -0.59366421367E+03  0.80636037340E+03  0.89241417354E+02 0.  0.
         13    1    3    3    0    0  0.21915341350E+03  0.26901440552E+03 -0.39719674138E+03  0.52741086487E+03  0.00000000000E+00 0. -1.
        -13    1    3    3    0    0  0.11301641755E+03  0.13223953273E+03 -0.31170910446E+03  0.35696298191E+03  0.00000000000E+00 0.  1.
          4    1    5    5  502    0 -0.30834495096E+03  0.39660389717E+02 -0.42972005034E+03  0.53038559272E+03  0.00000000000E+00 0.  1.
          1    1    6    6  503    0  0.21866787923E+02 -0.18164171620E+03 -0.25879238674E+03  0.31693117378E+03  0.00000000000E+00 0. -1.
         -4    1    5    5    0  502 -0.14416837765E+03  0.83807755839E+02 -0.24390461902E+03  0.29546188287E+03  0.00000000000E+00 0. -1.
         -1    1    6    6    0  503  0.98476709643E+02 -0.34308036760E+03 -0.33487182692E+03  0.48942919962E+03  0.00000000000E+00 0.  1.
<mgrwt>
<rscale>  0 0.15581521E+04</rscale>
<asrwt>0</asrwt>
<pdfrwt beam="1">  1        1 0.34559818E+00 0.15581521E+04</pdfrwt>
<pdfrwt beam="2">  1       -1 0.41568229E-01 0.15581521E+04</pdfrwt>
<totfact> 0.11079259E+01</totfact>
</mgrwt>
</event>
<event>
12    1  0.4820219E-008  0.1066747E+04  0.7818608E-02  0.9238223E-01
          2   -1    0    0  501    0  0.00000000000E+00  0.00000000000E+00  0.16214640455E+04  0.16214640455E+04  0.00000000000E+00 0. -1.
         -2   -1    0    0    0  501 -0.00000000000E+00 -0.00000000000E+00 -0.17545077273E+03  0.17545077273E+03  0.00000000000E+00 0.  1.
         23    2    1    2    0    0 -0.26542041124E+01  0.77700328850E+01  0.17834568850E+03  0.19931601932E+03  0.88613050624E+02 0.  0.
        254    2    1    2    0    0  0.26542041124E+01 -0.77700328850E+01  0.12676675843E+04  0.15975987989E+04  0.97225171630E+03 0.  0.
         23    2    4    4    0    0  0.36743938579E+03 -0.26874094748E+03  0.89153369494E+03  0.10052197764E+04  0.91657354068E+02 0.  0.
         23    2    4    4    0    0 -0.36478518168E+03  0.26097091459E+03  0.37613388937E+03  0.59237902255E+03  0.90896405795E+02 0.  0.
         11    1    3    3    0    0  0.27947699853E+02  0.14385961559E+02  0.18584608604E+02  0.36515989566E+02  0.00000000000E+00 0. -1.
        -11    1    3    3    0    0 -0.30601903965E+02 -0.66159286745E+01  0.15976107990E+03  0.16280002976E+03  0.00000000000E+00 0.  1.
          4    1    5    5  502    0  0.59484919475E+02 -0.16785510487E+02  0.77344008442E+02  0.99006588918E+02  0.00000000000E+00 0. -1.
          3    1    6    6  503    0 -0.27792696849E+03  0.16818557624E+03  0.31032169146E+03  0.44925420428E+03  0.00000000000E+00 0. -1.
         -4    1    5    5    0  502  0.30795446632E+03 -0.25195543699E+03  0.81418968649E+03  0.90621318747E+03  0.00000000000E+00 0.  1.
         -3    1    6    6    0  503 -0.86858213189E+02  0.92785338348E+02  0.65812197904E+02  0.14312481827E+03  0.00000000000E+00 0.  1.
<mgrwt>
<rscale>  0 0.10667467E+04</rscale>
<asrwt>0</asrwt>
<pdfrwt beam="1">  1        2 0.24945600E+00 0.10667467E+04</pdfrwt>
<pdfrwt beam="2">  1       -2 0.26992428E-01 0.10667467E+04</pdfrwt>
<totfact> 0.13453222E+02</totfact>
</mgrwt>
</event>
<event>
12    1  0.4820219E-008  0.1660566E+04  0.7818608E-02  0.8784180E-01
         -2   -1    0    0    0  501 -0.00000000000E+00  0.00000000000E+00  0.33019922739E+03  0.33019922739E+03  0.00000000000E+00 0.  1.
          2   -1    0    0  501    0  0.00000000000E+00 -0.00000000000E+00 -0.20877399134E+04  0.20877399134E+04  0.00000000000E+00 0. -1.
         23    2    1    2    0    0  0.37297988222E+03  0.11992411557E+03 -0.12673922686E+04  0.13296855903E+04  0.91020988957E+02 0.  0.
        254    2    1    2    0    0 -0.37297988222E+03 -0.11992411557E+03 -0.49014841737E+03  0.10882535505E+04  0.88913133622E+03 0.  0.
         23    2    4    4    0    0 -0.29364114085E+03  0.35162142628E+03 -0.13552108732E+03  0.48648699285E+03  0.91874273254E+02 0.  0.
         23    2    4    4    0    0 -0.79338741368E+02 -0.47154554185E+03 -0.35462733005E+03  0.60176655763E+03  0.87821482208E+02 0.  0.
         13    1    3    3    0    0  0.31889845659E+02  0.34379690500E+02 -0.99426782844E+02  0.10993002557E+03  0.00000000000E+00 0.  1.
        -13    1    3    3    0    0  0.34109003656E+03  0.85544425074E+02 -0.11679654858E+04  0.12197555647E+04  0.00000000000E+00 0. -1.
          2    1    5    5  502    0 -0.68950112701E+02  0.62361012147E+02 -0.65122817965E+02  0.11350768827E+03  0.00000000000E+00 0. -1.
          1    1    6    6  503    0 -0.57222117036E+01 -0.43587049651E+00 -0.15815597494E+02  0.16824589563E+02  0.00000000000E+00 0. -1.
         -2    1    5    5    0  502 -0.22469102815E+03  0.28926041413E+03 -0.70398269354E+02  0.37297930458E+03  0.00000000000E+00 0.  1.
         -1    1    6    6    0  503 -0.73616529664E+02 -0.47110967136E+03 -0.33881173256E+03  0.58494196806E+03  0.00000000000E+00 0.  1.
<mgrwt>
<rscale>  0 0.16605663E+04</rscale>
<asrwt>0</asrwt>
<pdfrwt beam="1">  1        2 0.32119076E+00 0.16605663E+04</pdfrwt>
<pdfrwt beam="2">  1       -2 0.50799881E-01 0.16605663E+04</pdfrwt>
<totfact> 0.20878775E+01</totfact>
</mgrwt>
</event>
<event>
12    1  0.4820219E-008  0.1492515E+04  0.7818608E-02  0.8889446E-01
         -2   -1    0    0    0  501 -0.00000000000E+00  0.00000000000E+00  0.83769697289E+03  0.83769697289E+03  0.00000000000E+00 0.  1.
          2   -1    0    0  501    0  0.00000000000E+00 -0.00000000000E+00 -0.66479911830E+03  0.66479911830E+03  0.00000000000E+00 0. -1.
         23    2    1    2    0    0 -0.53443803355E+02  0.11304182285E+03 -0.39845895736E+03  0.42912385039E+03  0.98706861175E+02 0.  0.
        254    2    1    2    0    0  0.53443803355E+02 -0.11304182285E+03  0.57135681195E+03  0.10733722408E+04  0.90002481462E+03 0.  0.
         23    2    4    4    0    0  0.91053200696E+02 -0.48471406883E+03  0.21334418433E+03  0.54607258115E+03  0.97165369441E+02 0.  0.
         23    2    4    4    0    0 -0.37609397341E+02  0.37167224598E+03  0.35801262762E+03  0.52729965966E+03  0.10157344307E+03 0.  0.
         11    1    3    3    0    0 -0.51876904564E+02  0.79277237491E+02 -0.37782499044E+03  0.38952255007E+03  0.00000000000E+00 0. -1.
        -11    1    3    3    0    0 -0.15668987912E+01  0.33764585360E+02 -0.20633966921E+02  0.39601300322E+02  0.00000000000E+00 0.  1.
          4    1    5    5  502    0  0.84995523197E+02 -0.41105788352E+03  0.14139302410E+03  0.44292754468E+03  0.00000000000E+00 0. -1.
          3    1    6    6  503    0  0.14880647763E+02  0.28618658540E+03  0.27330071903E+03  0.39600186662E+03  0.00000000000E+00 0. -1.
         -4    1    5    5    0  502  0.60576774993E+01 -0.73656185304E+02  0.71951160228E+02  0.10314503647E+03  0.00000000000E+00 0.  1.
         -3    1    6    6    0  503 -0.52490045104E+02  0.85485660573E+02  0.84711908589E+02  0.13129779303E+03  0.00000000000E+00 0.  1.
<mgrwt>
<rscale>  0 0.14925149E+04</rscale>
<asrwt>0</asrwt>
<pdfrwt beam="1">  1        2 0.10227679E+00 0.14925149E+04</pdfrwt>
<pdfrwt beam="2">  1       -2 0.12887646E+00 0.14925149E+04</pdfrwt>
<totfact> 0.18758470E+01</totfact>
</mgrwt>
</event>
<event>
12    1  0.4820219E-008  0.1450915E+04  0.7818608E-02  0.8917766E-01
          1   -1    0    0  501    0  0.00000000000E+00  0.00000000000E+00  0.82427352400E+03  0.82427352400E+03  0.00000000000E+00 0. -1.
         -1   -1    0    0    0  501 -0.00000000000E+00 -0.00000000000E+00 -0.63848812786E+03  0.63848812786E+03  0.00000000000E+00 0.  1.
         23    2    1    2    0    0 -0.43639410076E+03  0.25103323031E+02 -0.70456139065E+02  0.45210646795E+03  0.91466949385E+02 0.  0.
        254    2    1    2    0    0  0.43639410076E+03 -0.25103323031E+02  0.25624153520E+03  0.10106551839E+04  0.87446794589E+03 0.  0.
         23    2    4    4    0    0  0.14530576941E+03 -0.38785974433E+03  0.32094098841E+03  0.53206720433E+03  0.92430752375E+02 0.  0.
         23    2    4    4    0    0  0.29108833135E+03  0.36275642130E+03 -0.64699453212E+02  0.47858797957E+03  0.92389377614E+02 0.  0.
         11    1    3    3    0    0 -0.11246527763E+03 -0.17733131002E+02  0.13748964183E+02  0.11468189319E+03  0.00000000000E+00 0. -1.
        -11    1    3    3    0    0 -0.32392882312E+03  0.42836454032E+02 -0.84205103248E+02  0.33742457477E+03  0.00000000000E+00 0.  1.
          2    1    5    5  502    0  0.44252796493E+01 -0.62128397346E+02  0.16370258888E+02  0.64401135338E+02  0.00000000000E+00 0. -1.
          1    1    6    6  503    0  0.95340370686E+02  0.10811279209E+03  0.22218863186E+02  0.14584868864E+03  0.00000000000E+00 0. -1.
         -2    1    5    5    0  502  0.14088048976E+03 -0.32573134699E+03  0.30457072953E+03  0.46766606899E+03  0.00000000000E+00 0.  1.
         -1    1    6    6    0  503  0.19574796067E+03  0.25464362922E+03 -0.86918316399E+02  0.33273929094E+03  0.00000000000E+00 0.  1.
<mgrwt>
<rscale>  0 0.14509154E+04</rscale>
<asrwt>0</asrwt>
<pdfrwt beam="1">  1        1 0.12681131E+00 0.14509154E+04</pdfrwt>
<pdfrwt beam="2">  1       -1 0.98228942E-01 0.14509154E+04</pdfrwt>
<totfact> 0.20317366E+01</totfact>
</mgrwt>
</event>
<event>
12    1  0.4820219E-008  0.3252172E+04  0.7818608E-02  0.8175173E-01
         -1   -1    0    0    0  501 -0.00000000000E+00  0.00000000000E+00  0.61122462191E+03  0.61122462191E+03  0.00000000000E+00 0.  1.
          1   -1    0    0  501    0  0.00000000000E+00 -0.00000000000E+00 -0.43259960150E+04  0.43259960150E+04  0.00000000000E+00 0. -1.
         23    2    1    2    0    0  0.60843444915E+03  0.11150830884E+04 -0.29339376602E+04  0.31984447294E+04  0.91954990175E+02 0.  0.
        254    2    1    2    0    0 -0.60843444915E+03 -0.11150830884E+04 -0.78083373292E+03  0.17387759075E+04  0.89444819024E+03 0.  0.
         23    2    4    4    0    0 -0.12738509068E+03 -0.10150829781E+04 -0.67189375971E+03  0.12275843157E+04  0.94348365554E+02 0.  0.
         23    2    4    4    0    0 -0.48104935847E+03 -0.10000011030E+03 -0.10893997321E+03  0.51119159176E+03  0.89668380055E+02 0.  0.
         11    1    3    3    0    0  0.50525123454E+03  0.94854723471E+03 -0.25558615973E+04  0.27726249604E+04  0.00000000000E+00 0. -1.
        -11    1    3    3    0    0  0.10318321461E+03  0.16653585373E+03 -0.37807606288E+03  0.42581976901E+03  0.00000000000E+00 0.  1.
          2    1    5    5  502    0 -0.83923137369E+02 -0.44169400975E+03 -0.33963250539E+03  0.56345978557E+03  0.00000000000E+00 0. -1.
          1    1    6    6  503    0 -0.24712600157E+03 -0.20144340786E+02 -0.20990067998E+02  0.24883255026E+03  0.00000000000E+00 0. -1.
         -2    1    5    5    0  502 -0.43461953315E+02 -0.57338896840E+03 -0.33226125432E+03  0.66412453018E+03  0.00000000000E+00 0.  1.
         -1    1    6    6    0  503 -0.23392335690E+03 -0.79855769513E+02 -0.87949905213E+02  0.26235904150E+03  0.00000000000E+00 0.  1.
<mgrwt>
<rscale>  0 0.32521718E+04</rscale>
<asrwt>0</asrwt>
<pdfrwt beam="1">  1        1 0.66553786E+00 0.32521718E+04</pdfrwt>
<pdfrwt beam="2">  1       -1 0.94034555E-01 0.32521718E+04</pdfrwt>
<totfact> 0.43731966E-02</totfact>
</mgrwt>
</event>
<event>
12    1  0.4820219E-008  0.1471445E+04  0.7818608E-02  0.8903667E-01
         -2   -1    0    0    0  501 -0.00000000000E+00  0.00000000000E+00  0.19723465081E+04  0.19723465081E+04  0.00000000000E+00 0. -1.
          2   -1    0    0  501    0  0.00000000000E+00 -0.00000000000E+00 -0.27443851674E+03  0.27443851674E+03  0.00000000000E+00 0.  1.
         23    2    1    2    0    0  0.20910072949E+03 -0.98800133248E+02 -0.63723259936E+02  0.25680203424E+03  0.91662694320E+02 0.  0.
        254    2    1    2    0    0 -0.20910072949E+03  0.98800133248E+02  0.17616312513E+04  0.19899829906E+04  0.89621596498E+03 0.  0.
         23    2    4    4    0    0  0.14528717638E+03 -0.17508139942E+03  0.96829157768E+02  0.26362789252E+03  0.91443533817E+02 0.  0.
         23    2    4    4    0    0 -0.35438790587E+03  0.27388153267E+03  0.16648020935E+04  0.17263550981E+04  0.90188869812E+02 0.  0.
         13    1    3    3    0    0  0.18245293079E+02  0.17406503692E+02 -0.42412780487E+01  0.25570794470E+02  0.00000000000E+00 0. -1.
        -13    1    3    3    0    0  0.19085543641E+03 -0.11620663694E+03 -0.59481981887E+02  0.23123123977E+03  0.00000000000E+00 0.  1.
          1    1    5    5  502    0  0.87202063909E+02 -0.57420016219E+02  0.79584408163E+02  0.13128189607E+03  0.00000000000E+00 0. -1.
          3    1    6    6  503    0 -0.29589297051E+03  0.18027197730E+03  0.12674458241E+04  0.13139518837E+04  0.00000000000E+00 0. -1.
         -1    1    5    5    0  502  0.58085112472E+02 -0.11766138321E+03  0.17244749605E+02  0.13234599646E+03  0.00000000000E+00 0.  1.
         -3    1    6    6    0  503 -0.58494935362E+02  0.93609555375E+02  0.39735626945E+03  0.41240321433E+03  0.00000000000E+00 0.  1.
<mgrwt>
<rscale>  0 0.14714453E+04</rscale>
<asrwt>0</asrwt>
<pdfrwt beam="1">  1        2 0.42221311E-01 0.14714453E+04</pdfrwt>
<pdfrwt beam="2">  1       -2 0.30343792E+00 0.14714453E+04</pdfrwt>
<totfact> 0.35703697E+00</totfact>
</mgrwt>
</event>
<event>
12    1  0.4820219E-008  0.1751030E+04  0.7818608E-02  0.8732783E-01
          1   -1    0    0  501    0  0.00000000000E+00  0.00000000000E+00  0.89378120819E+03  0.89378120819E+03  0.00000000000E+00 0. -1.
         -1   -1    0    0    0  501 -0.00000000000E+00 -0.00000000000E+00 -0.85762257985E+03  0.85762257985E+03  0.00000000000E+00 0.  1.
         23    2    1    2    0    0 -0.71698237426E+02  0.61053762725E+03  0.17537920495E+03  0.64652018459E+03  0.96610827641E+02 0.  0.
        254    2    1    2    0    0  0.71698237426E+02 -0.61053762725E+03 -0.13922057661E+03  0.11048836034E+04  0.90746271365E+03 0.  0.
         23    2    4    4    0    0  0.27573951956E+03  0.12308868313E+03  0.36935309911E+02  0.31826471764E+03  0.93515275843E+02 0.  0.
         23    2    4    4    0    0 -0.20404128213E+03 -0.73362631038E+03 -0.17615588652E+03  0.78661888580E+03  0.88870507218E+02 0.  0.
         13    1    3    3    0    0 -0.42843728198E+02  0.27161988545E+03  0.12722833816E+03  0.30298514361E+03  0.00000000000E+00 0. -1.
        -13    1    3    3    0    0 -0.28854509227E+02  0.33891774180E+03  0.48150866795E+02  0.34353504099E+03  0.00000000000E+00 0.  1.
          1    1    5    5  502    0  0.60724139129E+02  0.20066781192E+02  0.47413508411E+02  0.79612420891E+02  0.00000000000E+00 0. -1.
          3    1    6    6  503    0 -0.41702715599E+02 -0.19998917066E+03 -0.85743874037E+02  0.22155540346E+03  0.00000000000E+00 0. -1.
         -1    1    5    5    0  502  0.21501538043E+03  0.10302190194E+03 -0.10478198500E+02  0.23865229675E+03  0.00000000000E+00 0.  1.
         -3    1    6    6    0  503 -0.16233856654E+03 -0.53363713972E+03 -0.90412012481E+02  0.56506348234E+03  0.00000000000E+00 0.  1.
<mgrwt>
<rscale>  0 0.17510305E+04</rscale>
<asrwt>0</asrwt>
<pdfrwt beam="1">  1        1 0.13750480E+00 0.17510305E+04</pdfrwt>
<pdfrwt beam="2">  1       -1 0.13194194E+00 0.17510305E+04</pdfrwt>
<totfact> 0.85225888E+00</totfact>
</mgrwt>
</event>
<event>
12    1  0.4820219E-008  0.1439982E+04  0.7818608E-02  0.8925375E-01
          2   -1    0    0  501    0  0.00000000000E+00  0.00000000000E+00  0.73851761039E+03  0.73851761039E+03  0.00000000000E+00 0. -1.
         -2   -1    0    0    0  501 -0.00000000000E+00 -0.00000000000E+00 -0.70192908115E+03  0.70192908115E+03  0.00000000000E+00 0.  1.
         23    2    1    2    0    0 -0.39185741203E+02  0.26072543981E+03 -0.33027731993E+03  0.43207585135E+03  0.89961969645E+02 0.  0.
        254    2    1    2    0    0  0.39185741203E+02 -0.26072543981E+03  0.36686584918E+03  0.10083708402E+04  0.90150314628E+03 0.  0.
         23    2    4    4    0    0 -0.10823991459E+03  0.30700001814E+03  0.19599172552E+03  0.39094517511E+03  0.91980885075E+02 0.  0.
         23    2    4    4    0    0  0.14742565579E+03 -0.56772545795E+03  0.17087412366E+03  0.61742566508E+03  0.89274667022E+02 0.  0.
         13    1    3    3    0    0  0.35945277512E+01  0.68609575222E+02 -0.15078684971E+03  0.16570114208E+03  0.00000000000E+00 0. -1.
        -13    1    3    3    0    0 -0.42780268954E+02  0.19211586458E+03 -0.17949047022E+03  0.26637470927E+03  0.00000000000E+00 0.  1.
          4    1    5    5  502    0 -0.23577242990E+02  0.17128597042E+03  0.66889469246E+02  0.18538870285E+03  0.00000000000E+00 0.  1.
          1    1    6    6  503    0  0.15792761379E+03 -0.48863549608E+03  0.14853046980E+03  0.53457186579E+03  0.00000000000E+00 0. -1.
         -4    1    5    5    0  502 -0.84662671602E+02  0.13571404772E+03  0.12910225627E+03  0.20555647226E+03  0.00000000000E+00 0. -1.
         -1    1    6    6    0  503 -0.10501957995E+02 -0.79089961863E+02  0.22343653857E+02  0.82853799290E+02  0.00000000000E+00 0.  1.
<mgrwt>
<rscale>  0 0.14399819E+04</rscale>
<asrwt>0</asrwt>
<pdfrwt beam="1">  1        2 0.11361809E+00 0.14399819E+04</pdfrwt>
<pdfrwt beam="2">  1       -2 0.10798909E+00 0.14399819E+04</pdfrwt>
<totfact> 0.25510500E+01</totfact>
</mgrwt>
</event>
<event>
12    1  0.4820219E-008  0.1171658E+04  0.7818608E-02  0.9138033E-01
         -1   -1    0    0    0  501 -0.00000000000E+00  0.00000000000E+00  0.25784735039E+03  0.25784735039E+03  0.00000000000E+00 0.  1.
          1   -1    0    0  501    0  0.00000000000E+00 -0.00000000000E+00 -0.13310022364E+04  0.13310022364E+04  0.00000000000E+00 0. -1.
         23    2    1    2    0    0  0.10088407981E+03  0.13137128347E+03  0.28346559950E+02  0.19116006800E+03  0.91118782138E+02 0.  0.
        254    2    1    2    0    0 -0.10088407981E+03 -0.13137128347E+03 -0.11015014460E+04  0.13976895188E+04  0.84427160547E+03 0.  0.
         23    2    4    4    0    0 -0.11657085061E+03  0.22286558538E+03 -0.35082586677E+02  0.27000298793E+03  0.91722370474E+02 0.  0.
         23    2    4    4    0    0  0.15686770798E+02 -0.35423686885E+03 -0.10664188593E+04  0.11276865309E+04  0.93262502695E+02 0.  0.
         13    1    3    3    0    0  0.10919624153E+03  0.13948820996E+03  0.24041593097E+02  0.17877018230E+03  0.00000000000E+00 0.  1.
        -13    1    3    3    0    0 -0.83121617199E+01 -0.81169264882E+01  0.43049668529E+01  0.12389885701E+02  0.00000000000E+00 0. -1.
          2    1    5    5  502    0 -0.71284140451E+02  0.20114536675E+03 -0.46694871501E+02  0.21845205027E+03  0.00000000000E+00 0. -1.
          3    1    6    6  503    0 -0.22321593958E+02 -0.15097002571E+03 -0.34567982407E+03  0.37786868485E+03  0.00000000000E+00 0. -1.
         -2    1    5    5    0  502 -0.45286710162E+02  0.21720218631E+02  0.11612284824E+02  0.51550937659E+02  0.00000000000E+00 0.  1.
         -3    1    6    6    0  503  0.38008364757E+02 -0.20326684314E+03 -0.72073903523E+03  0.74981784602E+03  0.00000000000E+00 0.  1.
<mgrwt>
<rscale>  0 0.11716576E+04</rscale>
<asrwt>0</asrwt>
<pdfrwt beam="1">  1        1 0.20476958E+00 0.11716576E+04</pdfrwt>
<pdfrwt beam="2">  1       -1 0.39668822E-01 0.11716576E+04</pdfrwt>
<totfact> 0.52697100E+01</totfact>
</mgrwt>
</event>
<event>
12    1  0.4820219E-008  0.1877053E+04  0.7818608E-02  0.8666364E-01
         -2   -1    0    0    0  501 -0.00000000000E+00  0.00000000000E+00  0.27005398841E+03  0.27005398841E+03  0.00000000000E+00 0.  1.
          2   -1    0    0  501    0  0.00000000000E+00 -0.00000000000E+00 -0.32616868478E+04  0.32616868478E+04  0.00000000000E+00 0. -1.
         23    2    1    2    0    0 -0.27195067595E+03  0.66905002753E+03 -0.12471878796E+04  0.14440786483E+04  0.91106673731E+02 0.  0.
        254    2    1    2    0    0  0.27195067595E+03 -0.66905002753E+03 -0.17444449799E+04  0.20876621880E+04  0.89087598116E+03 0.  0.
         23    2    4    4    0    0  0.40745666485E+02  0.19420689453E+03 -0.18097335278E+03  0.28411109303E+03  0.92688896550E+02 0.  0.
         23    2    4    4    0    0  0.23120500946E+03 -0.86325692207E+03 -0.15634716271E+04  0.18035510949E+04  0.98411144982E+02 0.  0.
         11    1    3    3    0    0 -0.13460245157E+02  0.11103094277E+03 -0.16446618151E+03  0.19889236615E+03  0.00000000000E+00 0. -1.
        -11    1    3    3    0    0 -0.25849043079E+03  0.55801908476E+03 -0.10827216980E+04  0.12451862821E+04  0.00000000000E+00 0.  1.
          1    1    5    5  502    0 -0.60694859212E+01  0.15943743007E+03 -0.11921319185E+03  0.19917057483E+03  0.00000000000E+00 0. -1.
          1    1    6    6  503    0  0.18126790904E+03 -0.73598275270E+03 -0.13835908536E+04  0.15776096847E+04  0.00000000000E+00 0. -1.
         -1    1    5    5    0  502  0.46815152406E+02  0.34769464464E+02 -0.61760160932E+02  0.84940518201E+02  0.00000000000E+00 0.  1.
         -1    1    6    6    0  503  0.49937100422E+02 -0.12727416937E+03 -0.17988077347E+03  0.22594141022E+03  0.00000000000E+00 0.  1.
<mgrwt>
<rscale>  0 0.18770525E+04</rscale>
<asrwt>0</asrwt>
<pdfrwt beam="1">  1        2 0.50179799E+00 0.18770525E+04</pdfrwt>
<pdfrwt beam="2">  1       -2 0.41546766E-01 0.18770525E+04</pdfrwt>
<totfact> 0.61138823E+00</totfact>
</mgrwt>
</event>
<event>
12    1  0.4820219E-008  0.2069274E+04  0.7818608E-02  0.8574900E-01
         -2   -1    0    0    0  501 -0.00000000000E+00  0.00000000000E+00  0.64430964230E+03  0.64430964230E+03  0.00000000000E+00 0.  1.
          2   -1    0    0  501    0  0.00000000000E+00 -0.00000000000E+00 -0.16614278564E+04  0.16614278564E+04  0.00000000000E+00 0. -1.
         23    2    1    2    0    0  0.48827484670E+03  0.14353906591E+03 -0.11481196594E+04  0.12591388324E+04  0.90752727282E+02 0.  0.
        254    2    1    2    0    0 -0.48827484670E+03 -0.14353906591E+03  0.13100144535E+03  0.10465986663E+04  0.90509203964E+03 0.  0.
         23    2    4    4    0    0 -0.10805991889E+03 -0.14577381958E+02  0.48387594319E+03  0.50437998802E+03  0.91508457454E+02 0.  0.
         23    2    4    4    0    0 -0.38021492781E+03 -0.12896168395E+03 -0.35287449783E+03  0.54221867826E+03  0.91028438286E+02 0.  0.
         11    1    3    3    0    0  0.45753666226E+03  0.11189952493E+03 -0.10762903789E+04  0.11748456412E+04  0.00000000000E+00 0. -1.
        -11    1    3    3    0    0  0.30738184443E+02  0.31639540982E+02 -0.71829280550E+02  0.84293191188E+02  0.00000000000E+00 0.  1.
          1    1    5    5  502    0 -0.96761897985E+02  0.19958005218E+02  0.41394508868E+03  0.42557223044E+03  0.00000000000E+00 0. -1.
          3    1    6    6  503    0 -0.35466447414E+03 -0.14120245831E+03 -0.33959196177E+03  0.51092829629E+03  0.00000000000E+00 0. -1.
         -1    1    5    5    0  502 -0.11298020902E+02 -0.34535387177E+02  0.69930854507E+02  0.78807757586E+02  0.00000000000E+00 0.  1.
         -3    1    6    6    0  503 -0.25550453674E+02  0.12240774359E+02 -0.13282536064E+02  0.31290381976E+02  0.00000000000E+00 0.  1.
<mgrwt>
<rscale>  0 0.20692743E+04</rscale>
<asrwt>0</asrwt>
<pdfrwt beam="1">  1        2 0.25560428E+00 0.20692743E+04</pdfrwt>
<pdfrwt beam="2">  1       -2 0.99124562E-01 0.20692743E+04</pdfrwt>
<totfact> 0.80292742E+00</totfact>
</mgrwt>
</event>
<event>
12    1  0.4820219E-008  0.1649124E+04  0.7818608E-02  0.8790925E-01
          1   -1    0    0  501    0  0.00000000000E+00  0.00000000000E+00  0.16782720088E+04  0.16782720088E+04  0.00000000000E+00 0. -1.
         -1   -1    0    0    0  501 -0.00000000000E+00 -0.00000000000E+00 -0.40512059502E+03  0.40512059502E+03  0.00000000000E+00 0.  1.
         23    2    1    2    0    0 -0.80324164237E+02  0.36639853495E+03  0.92218986063E+03  0.99942356972E+03  0.87826390568E+02 0.  0.
        254    2    1    2    0    0  0.80324164237E+02 -0.36639853495E+03  0.35096155317E+03  0.10839690341E+04  0.95452343993E+03 0.  0.
         23    2    4    4    0    0  0.34361534374E+03 -0.18899506424E+03 -0.19391993673E+03  0.44680597430E+03  0.90774435023E+02 0.  0.
         23    2    4    4    0    0 -0.26329117950E+03 -0.17740347072E+03  0.54488148990E+03  0.63716305982E+03  0.91031259154E+02 0.  0.
         13    1    3    3    0    0 -0.30591911136E+02  0.46163343458E+02  0.20618903583E+03  0.21349669272E+03  0.00000000000E+00 0.  1.
        -13    1    3    3    0    0 -0.49732253101E+02  0.32023519150E+03  0.71600082480E+03  0.78592687700E+03  0.00000000000E+00 0. -1.
          4    1    5    5  502    0  0.32774767815E+03 -0.19886494841E+03 -0.18006756818E+03  0.42354472886E+03  0.00000000000E+00 0.  1.
          1    1    6    6  503    0 -0.66172279471E+02 -0.63018287051E+01  0.79966415500E+02  0.10398611072E+03  0.00000000000E+00 0. -1.
         -4    1    5    5    0  502  0.15867665594E+02  0.98698841755E+01 -0.13852368555E+02  0.23261245445E+02  0.00000000000E+00 0. -1.
         -1    1    6    6    0  503 -0.19711890003E+03 -0.17110164201E+03  0.46491507440E+03  0.53317694910E+03  0.00000000000E+00 0.  1.
<mgrwt>
<rscale>  0 0.16491241E+04</rscale>
<asrwt>0</asrwt>
<pdfrwt beam="1">  1        1 0.25819569E+00 0.16491241E+04</pdfrwt>
<pdfrwt beam="2">  1       -1 0.62326247E-01 0.16491241E+04</pdfrwt>
<totfact> 0.12305893E+01</totfact>
</mgrwt>
</event>
<event>
12    1  0.4820219E-008  0.1138754E+04  0.7818608E-02  0.9168222E-01
          1   -1    0    0  501    0  0.00000000000E+00  0.00000000000E+00  0.30042155256E+03  0.30042155256E+03  0.00000000000E+00 0. -1.
         -1   -1    0    0    0  501 -0.00000000000E+00 -0.00000000000E+00 -0.10791174731E+04  0.10791174731E+04  0.00000000000E+00 0.  1.
         23    2    1    2    0    0  0.99752004504E+02 -0.30477399207E+02  0.54151681225E+02  0.14868146553E+03  0.91073812638E+02 0.  0.
        254    2    1    2    0    0 -0.99752004504E+02  0.30477399207E+02 -0.83284760173E+03  0.12308575601E+04  0.90027544190E+03 0.  0.
         23    2    4    4    0    0  0.23095650266E+03  0.21411909781E+03 -0.17659170531E+02  0.32759635025E+03  0.88428661809E+02 0.  0.
         23    2    4    4    0    0 -0.33070850716E+03 -0.18364169860E+03 -0.81518843120E+03  0.90326120985E+03  0.90863879963E+02 0.  0.
         11    1    3    3    0    0  0.77560334411E+02 -0.24586587208E+02  0.80001772950E+02  0.11410692100E+03  0.00000000000E+00 0. -1.
        -11    1    3    3    0    0  0.22191670093E+02 -0.58908119986E+01 -0.25850091726E+02  0.34574544534E+02  0.00000000000E+00 0.  1.
          2    1    5    5  502    0  0.11714511827E+03  0.14038418058E+03 -0.47139781975E+02  0.18881963864E+03  0.00000000000E+00 0. -1.
          1    1    6    6  503    0 -0.17625606485E+03 -0.53404551386E+02 -0.33466170837E+03  0.38199045218E+03  0.00000000000E+00 0. -1.
         -2    1    5    5    0  502  0.11381138439E+03  0.73734917224E+02  0.29480611444E+02  0.13877671161E+03  0.00000000000E+00 0.  1.
         -1    1    6    6    0  503 -0.15445244231E+03 -0.13023714722E+03 -0.48052672283E+03  0.52127075767E+03  0.00000000000E+00 0.  1.
<mgrwt>
<rscale>  0 0.11387540E+04</rscale>
<asrwt>0</asrwt>
<pdfrwt beam="1">  1        1 0.46218701E-01 0.11387540E+04</pdfrwt>
<pdfrwt beam="2">  1       -1 0.16601807E+00 0.11387540E+04</pdfrwt>
<totfact> 0.22907748E+01</totfact>
</mgrwt>
</event>
<event>
12    1  0.4820219E-008  0.1899797E+04  0.7818608E-02  0.8654957E-01
          1   -1    0    0  501    0  0.00000000000E+00  0.00000000000E+00  0.16265852002E+04  0.16265852002E+04  0.00000000000E+00 0. -1.
         -1   -1    0    0    0  501 -0.00000000000E+00 -0.00000000000E+00 -0.55472488973E+03  0.55472488973E+03  0.00000000000E+00 0.  1.
         23    2    1    2    0    0  0.44770984237E+03  0.51294272427E+03  0.75484679916E+03  0.10208045332E+04  0.93240889312E+02 0.  0.
        254    2    1    2    0    0 -0.44770984237E+03 -0.51294272427E+03  0.31701351131E+03  0.11605055567E+04  0.88471534378E+03 0.  0.
         23    2    4    4    0    0 -0.39489628780E+03 -0.45486641025E+03  0.59938610722E+03  0.85444643422E+03  0.89266310096E+02 0.  0.
         23    2    4    4    0    0 -0.52813554563E+02 -0.58076314018E+02 -0.28237259591E+03  0.30605912252E+03  0.88180347906E+02 0.  0.
         11    1    3    3    0    0  0.23936340874E+03  0.27428941126E+03  0.47221893111E+03  0.59625518151E+03  0.00000000000E+00 0. -1.
        -11    1    3    3    0    0  0.20834643362E+03  0.23865331301E+03  0.28262786805E+03  0.42454935168E+03  0.00000000000E+00 0.  1.
          1    1    5    5  502    0 -0.81100087756E+01 -0.16032410352E+02  0.45258677774E+02  0.48694541151E+02  0.00000000000E+00 0. -1.
          1    1    6    6  503    0 -0.23966032599E+02 -0.39072819294E+02 -0.38814506394E+02  0.60063481690E+02  0.00000000000E+00 0. -1.
         -1    1    5    5    0  502 -0.38678627903E+03 -0.43883399990E+03  0.55412742945E+03  0.80575189307E+03  0.00000000000E+00 0.  1.
         -1    1    6    6    0  503 -0.28847521964E+02 -0.19003494725E+02 -0.24355808952E+03  0.24599564083E+03  0.00000000000E+00 0.  1.
<mgrwt>
<rscale>  0 0.18997971E+04</rscale>
<asrwt>0</asrwt>
<pdfrwt beam="1">  1        1 0.25024388E+00 0.18997971E+04</pdfrwt>
<pdfrwt beam="2">  1       -1 0.85342291E-01 0.18997971E+04</pdfrwt>
<totfact> 0.67935834E+00</totfact>
</mgrwt>
</event>
<event>
12    1  0.4820219E-008  0.1945306E+04  0.7818608E-02  0.8632628E-01
         -2   -1    0    0    0  501 -0.00000000000E+00  0.00000000000E+00  0.32181023509E+03  0.32181023509E+03  0.00000000000E+00 0.  1.
          2   -1    0    0  501    0  0.00000000000E+00 -0.00000000000E+00 -0.29397870906E+04  0.29397870906E+04  0.00000000000E+00 0. -1.
         23    2    1    2    0    0  0.10569633071E+02 -0.76133160146E+03 -0.11122200229E+04  0.13511839566E+04  0.94483758471E+02 0.  0.
        254    2    1    2    0    0 -0.10569633071E+02  0.76133160146E+03 -0.15057568326E+04  0.19104133691E+04  0.89590070739E+03 0.  0.
         23    2    4    4    0    0  0.81196132552E+02  0.15901472681E+03 -0.12107966420E+04  0.12273502221E+04  0.92095407208E+02 0.  0.
         23    2    4    4    0    0 -0.91765765623E+02  0.60231687464E+03 -0.29496019060E+03  0.68306314706E+03  0.91472266914E+02 0.  0.
         11    1    3    3    0    0 -0.21656234888E+01 -0.69784449264E+03 -0.97027613715E+03  0.11951683597E+04  0.00000000000E+00 0. -1.
        -11    1    3    3    0    0  0.12735256560E+02 -0.63487108818E+02 -0.14194388577E+03  0.15601559683E+03  0.00000000000E+00 0.  1.
          1    1    5    5  502    0  0.98674594601E+02  0.15156771260E+03 -0.10536513985E+04  0.10690606702E+04  0.00000000000E+00 0. -1.
          3    1    6    6  503    0 -0.57647913843E+02  0.41628302312E+03 -0.24877777058E+03  0.48836995858E+03  0.00000000000E+00 0.  1.
         -1    1    5    5    0  502 -0.17478462049E+02  0.74470142092E+01 -0.15714524355E+03  0.15828955185E+03  0.00000000000E+00 0.  1.
         -3    1    6    6    0  503 -0.34117851780E+02  0.18603385152E+03 -0.46182420021E+02  0.19469318848E+03  0.00000000000E+00 0. -1.
<mgrwt>
<rscale>  0 0.19453057E+04</rscale>
<asrwt>0</asrwt>
<pdfrwt beam="1">  1        2 0.45227492E+00 0.19453057E+04</pdfrwt>
<pdfrwt beam="2">  1       -2 0.49509269E-01 0.19453057E+04</pdfrwt>
<totfact> 0.68570748E+00</totfact>
</mgrwt>
</event>
<event>
12    1  0.4820219E-008  0.1481537E+04  0.7818608E-02  0.8896824E-01
          4   -1    0    0  501    0  0.00000000000E+00  0.00000000000E+00  0.20553549973E+04  0.20553549973E+04  0.00000000000E+00 0. -1.
         -4   -1    0    0    0  501 -0.00000000000E+00 -0.00000000000E+00 -0.26697976083E+03  0.26697976083E+03  0.00000000000E+00 0.  1.
         23    2    1    2    0    0 -0.45598103439E+02 -0.31240652223E+03  0.10971647377E+04  0.11452232950E+04  0.89938376049E+02 0.  0.
        254    2    1    2    0    0  0.45598103439E+02  0.31240652223E+03  0.69121049879E+03  0.11771114632E+04  0.89896741931E+03 0.  0.
         23    2    4    4    0    0  0.26237912824E+02 -0.30813772414E+03  0.27743938799E+03  0.42520209521E+03  0.90481614997E+02 0.  0.
         23    2    4    4    0    0  0.19360190615E+02  0.62054424637E+03  0.41377111080E+03  0.75190936799E+03  0.93333739061E+02 0.  0.
         11    1    3    3    0    0 -0.43250936094E+02 -0.31619921045E+03  0.10943803036E+04  0.11399652771E+04  0.00000000000E+00 0. -1.
        -11    1    3    3    0    0 -0.23471673450E+01  0.37926882142E+01  0.27844341583E+01  0.52580178791E+01  0.00000000000E+00 0.  1.
          2    1    5    5  502    0  0.30345029288E+02 -0.84829869504E+02  0.12778996438E+03  0.15635601223E+03  0.00000000000E+00 0. -1.
          1    1    6    6  503    0 -0.12329043925E+02  0.21396417127E+02  0.32150996262E+01  0.24902788109E+02  0.00000000000E+00 0. -1.
         -2    1    5    5    0  502 -0.41071164644E+01 -0.22330785463E+03  0.14964942361E+03  0.26884608298E+03  0.00000000000E+00 0.  1.
         -1    1    6    6    0  503  0.31689234540E+02  0.59914782925E+03  0.41055601117E+03  0.72700657988E+03  0.00000000000E+00 0.  1.
<mgrwt>
<rscale>  0 0.14815373E+04</rscale>
<asrwt>0</asrwt>
<pdfrwt beam="1">  1        4 0.31620845E+00 0.14815373E+04</pdfrwt>
<pdfrwt beam="2">  1       -4 0.41073811E-01 0.14815373E+04</pdfrwt>
<totfact> 0.27557901E-01</totfact>
</mgrwt>
</event>
<event>
12    1  0.4820219E-008  0.2614124E+04  0.7818608E-02  0.8363419E-01
         -2   -1    0    0    0  501 -0.00000000000E+00  0.00000000000E+00  0.40206021138E+03  0.40206021138E+03  0.00000000000E+00 0.  1.
          2   -1    0    0  501    0  0.00000000000E+00 -0.00000000000E+00 -0.42491417943E+04  0.42491417943E+04  0.00000000000E+00 0. -1.
         23    2    1    2    0    0  0.48663187653E+03  0.11322728916E+03 -0.35543338962E+04  0.35904276105E+04  0.90829388877E+02 0.  0.
        254    2    1    2    0    0 -0.48663187653E+03 -0.11322728916E+03 -0.29274768674E+03  0.10607743952E+04  0.88876887167E+03 0.  0.
         23    2    4    4    0    0 -0.24601358046E+02  0.33887167891E+03 -0.19146997394E+03  0.40020206748E+03  0.89786982983E+02 0.  0.
         23    2    4    4    0    0 -0.46203051849E+03 -0.45209896807E+03 -0.10127771280E+03  0.66057232777E+03  0.90735594771E+02 0.  0.
         11    1    3    3    0    0  0.46178641027E+03  0.83845290308E+02 -0.32891182960E+04  0.33224352343E+04  0.00000000000E+00 0. -1.
        -11    1    3    3    0    0  0.24845466265E+02  0.29381998855E+02 -0.26521560028E+03  0.26799237616E+03  0.00000000000E+00 0.  1.
          2    1    5    5  502    0  0.13196986604E+02  0.27807032845E+03 -0.13714886020E+03  0.31033381684E+03  0.00000000000E+00 0. -1.
          4    1    6    6  503    0 -0.16810107375E+03 -0.11650482705E+03 -0.56672552619E+02  0.21223365413E+03  0.00000000000E+00 0. -1.
         -2    1    5    5    0  502 -0.37798344651E+02  0.60801350459E+02 -0.54321113739E+02  0.89868250644E+02  0.00000000000E+00 0.  1.
         -4    1    6    6    0  503 -0.29392944473E+03 -0.33559414102E+03 -0.44605160177E+02  0.44833867364E+03  0.00000000000E+00 0.  1.
<mgrwt>
<rscale>  0 0.26141238E+04</rscale>
<asrwt>0</asrwt>
<pdfrwt beam="1">  1        2 0.65371412E+00 0.26141238E+04</pdfrwt>
<pdfrwt beam="2">  1       -2 0.61855417E-01 0.26141238E+04</pdfrwt>
<totfact> 0.45311356E-01</totfact>
</mgrwt>
</event>
<event>
12    1  0.4820219E-008  0.2042853E+04  0.7818608E-02  0.8586844E-01
         -1   -1    0    0    0  501 -0.00000000000E+00  0.00000000000E+00  0.73322958227E+03  0.73322958227E+03  0.00000000000E+00 0.  1.
          1   -1    0    0  501    0  0.00000000000E+00 -0.00000000000E+00 -0.14228995362E+04  0.14228995362E+04  0.00000000000E+00 0. -1.
         23    2    1    2    0    0  0.12286842470E+03 -0.65169976893E+03  0.22884272592E+03  0.70713546578E+03  0.88669809638E+02 0.  0.
        254    2    1    2    0    0 -0.12286842470E+03  0.65169976893E+03 -0.91851267987E+03  0.14489936527E+04  0.90338686282E+03 0.  0.
         23    2    4    4    0    0 -0.41305867622E+02  0.58272699698E+03 -0.77144274012E+02  0.59585797347E+03  0.88422609267E+02 0.  0.
         23    2    4    4    0    0 -0.81562557076E+02  0.68972771952E+02 -0.84136840586E+03  0.85313567925E+03  0.92357992813E+02 0.  0.
         13    1    3    3    0    0 -0.61790773239E+01 -0.10266906459E+03  0.14903090515E+02  0.10392891767E+03  0.00000000000E+00 0. -1.
        -13    1    3    3    0    0  0.12904750202E+03 -0.54903070434E+03  0.21393963540E+03  0.60320654811E+03  0.00000000000E+00 0.  1.
          1    1    5    5  502    0 -0.43579512866E+02  0.18688842487E+03  0.32582812840E+01  0.19192986659E+03  0.00000000000E+00 0.  1.
          3    1    6    6  503    0 -0.65612597266E+02  0.37682681604E+02 -0.76880994811E+03  0.77252426093E+03  0.00000000000E+00 0. -1.
         -1    1    5    5    0  502  0.22736452448E+01  0.39583857211E+03 -0.80402555296E+02  0.40392810688E+03  0.00000000000E+00 0. -1.
         -3    1    6    6    0  503 -0.15949959809E+02  0.31290090349E+02 -0.72558457754E+02  0.80611418320E+02  0.00000000000E+00 0.  1.
<mgrwt>
<rscale>  0 0.20428529E+04</rscale>
<asrwt>0</asrwt>
<pdfrwt beam="1">  1        1 0.21890762E+00 0.20428529E+04</pdfrwt>
<pdfrwt beam="2">  1       -1 0.11280455E+00 0.20428529E+04</pdfrwt>
<totfact> 0.49188305E+00</totfact>
</mgrwt>
</event>
<event>
12    1  0.4820219E-008  0.1113829E+04  0.7818608E-02  0.9191817E-01
          2   -1    0    0  501    0  0.00000000000E+00  0.00000000000E+00  0.79685358822E+03  0.79685358822E+03  0.00000000000E+00 0. -1.
         -2   -1    0    0    0  501 -0.00000000000E+00 -0.00000000000E+00 -0.38922300967E+03  0.38922300967E+03  0.00000000000E+00 0.  1.
         23    2    1    2    0    0  0.14104176719E+03  0.20869135657E+02  0.17299974410E+03  0.24156038679E+03  0.89967816984E+02 0.  0.
        254    2    1    2    0    0 -0.14104176719E+03 -0.20869135657E+02  0.23463083445E+03  0.94451621111E+03  0.90373167680E+03 0.  0.
         23    2    4    4    0    0  0.27132655196E+03 -0.22313589774E+03 -0.87153667369E+02  0.37614457763E+03  0.10237800002E+03 0.  0.
         23    2    4    4    0    0 -0.41236831915E+03  0.20226676208E+03  0.32178450182E+03  0.56837163348E+03  0.92420638644E+02 0.  0.
         13    1    3    3    0    0  0.12185380193E+03  0.13926750415E+02  0.80194294411E+02  0.14653814615E+03  0.00000000000E+00 0. -1.
        -13    1    3    3    0    0  0.19187965257E+02  0.69423852426E+01  0.92805449687E+02  0.95022240634E+02  0.00000000000E+00 0.  1.
          1    1    5    5  502    0  0.14580858708E+03 -0.15517639341E+03 -0.95067960649E+02  0.23319042493E+03  0.00000000000E+00 0. -1.
          3    1    6    6  503    0 -0.10598669595E+03  0.60525359632E+02  0.13716890528E+03  0.18360775434E+03  0.00000000000E+00 0.  1.
         -1    1    5    5    0  502  0.12551796488E+03 -0.67959504325E+02  0.79142932799E+01  0.14295415270E+03  0.00000000000E+00 0.  1.
         -3    1    6    6    0  503 -0.30638162320E+03  0.14174140245E+03  0.18461559654E+03  0.38476387914E+03  0.00000000000E+00 0. -1.
<mgrwt>
<rscale>  0 0.11138290E+04</rscale>
<asrwt>0</asrwt>
<pdfrwt beam="1">  1        2 0.12259286E+00 0.11138290E+04</pdfrwt>
<pdfrwt beam="2">  1       -2 0.59880463E-01 0.11138290E+04</pdfrwt>
<totfact> 0.89377005E+01</totfact>
</mgrwt>
</event>
<event>
12    1  0.4820219E-008  0.1568725E+04  0.7818608E-02  0.8839995E-01
         -2   -1    0    0    0  501 -0.00000000000E+00  0.00000000000E+00  0.72280536019E+03  0.72280536019E+03  0.00000000000E+00 0.  1.
          2   -1    0    0  501    0  0.00000000000E+00 -0.00000000000E+00 -0.85116243452E+03  0.85116243452E+03  0.00000000000E+00 0. -1.
         23    2    1    2    0    0 -0.17251561405E+03 -0.21702605428E+03  0.37808556730E+03  0.47787247034E+03  0.92474084901E+02 0.  0.
        254    2    1    2    0    0  0.17251561405E+03  0.21702605428E+03 -0.50644264164E+03  0.10960953244E+04  0.93170749997E+03 0.  0.
         23    2    4    4    0    0  0.41889690170E+03 -0.18807090481E+03 -0.13595583945E+03  0.48743683751E+03  0.90914249691E+02 0.  0.
         23    2    4    4    0    0 -0.24638128765E+03  0.40509695909E+03 -0.37048680219E+03  0.60865848685E+03  0.91637316958E+02 0.  0.
         13    1    3    3    0    0 -0.10652760248E+03 -0.65398854533E+02  0.13622474953E+03  0.18488461983E+03  0.00000000000E+00 0. -1.
        -13    1    3    3    0    0 -0.65988011569E+02 -0.15162719974E+03  0.24186081777E+03  0.29298785051E+03  0.00000000000E+00 0.  1.
          4    1    5    5  502    0  0.37605178831E+03 -0.15324259263E+03 -0.90790701806E+02  0.41610238070E+03  0.00000000000E+00 0. -1.
          4    1    6    6  503    0 -0.22388270825E+03  0.39721191065E+03 -0.33453895211E+03  0.56552372143E+03  0.00000000000E+00 0. -1.
         -4    1    5    5    0  502  0.42845113383E+02 -0.34828312184E+02 -0.45165137648E+02  0.71334456816E+02  0.00000000000E+00 0.  1.
         -4    1    6    6    0  503 -0.22498579397E+02  0.78850484425E+01 -0.35947850070E+02  0.43134765428E+02  0.00000000000E+00 0.  1.
<mgrwt>
<rscale>  0 0.15687253E+04</rscale>
<asrwt>0</asrwt>
<pdfrwt beam="1">  1        2 0.13094807E+00 0.15687253E+04</pdfrwt>
<pdfrwt beam="2">  1       -2 0.11120082E+00 0.15687253E+04</pdfrwt>
<totfact> 0.19488259E+01</totfact>
</mgrwt>
</event>
<event>
12    1  0.4820219E-008  0.1207224E+04  0.7818608E-02  0.9106557E-01
         -1   -1    0    0    0  501 -0.00000000000E+00  0.00000000000E+00  0.40584551692E+03  0.40584551692E+03  0.00000000000E+00 0.  1.
          1   -1    0    0  501    0  0.00000000000E+00 -0.00000000000E+00 -0.89774859793E+03  0.89774859793E+03  0.00000000000E+00 0. -1.
         23    2    1    2    0    0  0.10554367977E+03  0.12560313871E+03 -0.32800130754E+03  0.37825325708E+03  0.92601576429E+02 0.  0.
        254    2    1    2    0    0 -0.10554367977E+03 -0.12560313871E+03 -0.16390177346E+03  0.92534085776E+03  0.89581041237E+03 0.  0.
         23    2    4    4    0    0 -0.17635948517E+03 -0.13768047828E+03 -0.50773339481E+03  0.56190914411E+03  0.88826256950E+02 0.  0.
         23    2    4    4    0    0  0.70815805403E+02  0.12077339566E+02  0.34383162134E+03  0.36343171366E+03  0.93282829245E+02 0.  0.
         13    1    3    3    0    0  0.46292354822E+02  0.85849278918E+02 -0.26742155831E+03  0.28465307070E+03  0.00000000000E+00 0.  1.
        -13    1    3    3    0    0  0.59251324946E+02  0.39753859791E+02 -0.60579749223E+02  0.93600186389E+02  0.00000000000E+00 0. -1.
          2    1    5    5  502    0 -0.16043650918E+02 -0.58421273272E+02 -0.10440712414E+03  0.12071160457E+03  0.00000000000E+00 0. -1.
          4    1    6    6  503    0  0.37872176759E+02  0.46752167970E+01  0.32067784201E+02  0.49844781152E+02  0.00000000000E+00 0. -1.
         -2    1    5    5    0  502 -0.16031583425E+03 -0.79259205003E+02 -0.40332627066E+03  0.44119753954E+03  0.00000000000E+00 0.  1.
         -4    1    6    6    0  503  0.32943628644E+02  0.74021227694E+01  0.31176383714E+03  0.31358693250E+03  0.00000000000E+00 0.  1.
<mgrwt>
<rscale>  0 0.12072237E+04</rscale>
<asrwt>0</asrwt>
<pdfrwt beam="1">  1        1 0.13811517E+00 0.12072237E+04</pdfrwt>
<pdfrwt beam="2">  1       -1 0.62437773E-01 0.12072237E+04</pdfrwt>
<totfact> 0.47037180E+01</totfact>
</mgrwt>
</event>
<event>
12    1  0.4820219E-008  0.1842883E+04  0.7818608E-02  0.8683821E-01
         -2   -1    0    0    0  501 -0.00000000000E+00  0.00000000000E+00  0.55880158262E+03  0.55880158262E+03  0.00000000000E+00 0. -1.
          2   -1    0    0  501    0  0.00000000000E+00 -0.00000000000E+00 -0.15194210455E+04  0.15194210455E+04  0.00000000000E+00 0.  1.
         23    2    1    2    0    0 -0.18957424709E+03 -0.36790375240E+03  0.28235961859E+03  0.50951680423E+03  0.92676066995E+02 0.  0.
        254    2    1    2    0    0  0.18957424709E+03  0.36790375240E+03 -0.12429790815E+04  0.15687058239E+04  0.86287275933E+03 0.  0.
         23    2    4    4    0    0  0.24125676463E+03  0.16979455126E+03 -0.13003529393E+04  0.13362222272E+04  0.86816227618E+02 0.  0.
         23    2    4    4    0    0 -0.51682517539E+02  0.19810920114E+03  0.57373857848E+02  0.23248359676E+03  0.94013429918E+02 0.  0.
         11    1    3    3    0    0 -0.37401886777E+02 -0.16928456171E+03  0.12831910062E+03  0.21568948873E+03  0.00000000000E+00 0.  1.
        -11    1    3    3    0    0 -0.15217236032E+03 -0.19861919069E+03  0.15404051796E+03  0.29382731549E+03  0.00000000000E+00 0. -1.
          2    1    5    5  502    0  0.15019664247E+03  0.13886550341E+03 -0.74348791767E+03  0.77111409219E+03  0.00000000000E+00 0. -1.
          1    1    6    6  503    0 -0.28673671476E+02  0.16140352364E+03  0.81311802102E+02  0.18298875932E+03  0.00000000000E+00 0. -1.
         -2    1    5    5    0  502  0.91060122158E+02  0.30929047845E+02 -0.55686502167E+03  0.56510813497E+03  0.00000000000E+00 0.  1.
         -1    1    6    6    0  503 -0.23008846062E+02  0.36705677502E+02 -0.23937944254E+02  0.49494837438E+02  0.00000000000E+00 0.  1.
<mgrwt>
<rscale>  0 0.18428835E+04</rscale>
<asrwt>0</asrwt>
<pdfrwt beam="1">  1        2 0.23375708E+00 0.18428835E+04</pdfrwt>
<pdfrwt beam="2">  1       -2 0.85969474E-01 0.18428835E+04</pdfrwt>
<totfact> 0.13672912E+01</totfact>
</mgrwt>
</event>
<event>
12    1  0.4820219E-008  0.2693733E+04  0.7818608E-02  0.8337041E-01
          1   -1    0    0  501    0  0.00000000000E+00  0.00000000000E+00  0.19377868162E+04  0.19377868162E+04  0.00000000000E+00 0. -1.
         -1   -1    0    0    0  501 -0.00000000000E+00 -0.00000000000E+00 -0.93614483563E+03  0.93614483563E+03  0.00000000000E+00 0.  1.
         23    2    1    2    0    0 -0.23310512831E+03 -0.43683254623E+03 -0.71744896294E+03  0.87682248309E+03  0.94466809714E+02 0.  0.
        254    2    1    2    0    0  0.23310512831E+03  0.43683254623E+03  0.17190909435E+04  0.19971091688E+04  0.88769965952E+03 0.  0.
         23    2    4    4    0    0 -0.50844098911E+02  0.63939379474E+03  0.97933847160E+03  0.11739959503E+04  0.88051701424E+02 0.  0.
         23    2    4    4    0    0  0.28394922722E+03 -0.20256124851E+03  0.73975247193E+03  0.82311321849E+03  0.92862412749E+02 0.  0.
         13    1    3    3    0    0 -0.97222188654E+02 -0.21463143167E+03 -0.26368967148E+03  0.35362557638E+03  0.00000000000E+00 0. -1.
        -13    1    3    3    0    0 -0.13588293965E+03 -0.22220111456E+03 -0.45375929146E+03  0.52319690670E+03  0.00000000000E+00 0.  1.
          4    1    5    5  502    0 -0.21799598065E+02  0.52713400003E+03  0.84870025167E+03  0.99931856465E+03  0.00000000000E+00 0. -1.
          1    1    6    6  503    0  0.22690118024E+03 -0.18203396036E+03  0.52774659930E+03  0.60260848102E+03  0.00000000000E+00 0. -1.
         -4    1    5    5    0  502 -0.29044500846E+02  0.11225979471E+03  0.13063821992E+03  0.17467738561E+03  0.00000000000E+00 0.  1.
         -1    1    6    6    0  503  0.57048046975E+02 -0.20527288157E+02  0.21200587262E+03  0.22050473748E+03  0.00000000000E+00 0.  1.
<mgrwt>
<rscale>  0 0.26937328E+04</rscale>
<asrwt>0</asrwt>
<pdfrwt beam="1">  1        1 0.29812105E+00 0.26937328E+04</pdfrwt>
<pdfrwt beam="2">  1       -1 0.14402228E+00 0.26937328E+04</pdfrwt>
<totfact> 0.11160493E+00</totfact>
</mgrwt>
</event>
<event>
12    1  0.4820219E-008  0.2905436E+04  0.7818608E-02  0.8271262E-01
         -2   -1    0    0    0  501 -0.00000000000E+00  0.00000000000E+00  0.64720481218E+03  0.64720481218E+03  0.00000000000E+00 0. -1.
          2   -1    0    0  501    0  0.00000000000E+00 -0.00000000000E+00 -0.32607746714E+04  0.32607746714E+04  0.00000000000E+00 0.  1.
         23    2    1    2    0    0 -0.12890416447E+04 -0.24233874005E+03 -0.11638804447E+04  0.17558554612E+04  0.89745665560E+02 0.  0.
        254    2    1    2    0    0  0.12890416447E+04  0.24233874005E+03 -0.14496894144E+04  0.21521240223E+04  0.89982330630E+03 0.  0.
         23    2    4    4    0    0  0.16796959689E+03  0.37352953599E+03 -0.61900067568E+03  0.74770621361E+03  0.90358428683E+02 0.  0.
         23    2    4    4    0    0  0.11210720478E+04 -0.13119079594E+03 -0.83068873876E+03  0.14044178087E+04  0.91280006274E+02 0.  0.
         13    1    3    3    0    0 -0.16253744909E+03 -0.33510681743E+02 -0.10949274310E+03  0.19882165109E+03  0.00000000000E+00 0. -1.
        -13    1    3    3    0    0 -0.11265041956E+04 -0.20882805830E+03 -0.10543877016E+04  0.15570338101E+04  0.00000000000E+00 0.  1.
          4    1    5    5  502    0  0.14397358931E+03  0.21981562776E+03 -0.41412485233E+03  0.49045560242E+03  0.00000000000E+00 0. -1.
          1    1    6    6  503    0  0.27454029915E+03 -0.50143965611E+02 -0.16280728020E+03  0.32309906164E+03  0.00000000000E+00 0. -1.
         -4    1    5    5    0  502  0.23996007586E+02  0.15371390822E+03 -0.20487582335E+03  0.25725061118E+03  0.00000000000E+00 0.  1.
         -1    1    6    6    0  503  0.84653174861E+03 -0.81046830331E+02 -0.66788145856E+03  0.10813187471E+04  0.00000000000E+00 0.  1.
<mgrwt>
<rscale>  0 0.29054356E+04</rscale>
<asrwt>0</asrwt>
<pdfrwt beam="1">  1        2 0.50165763E+00 0.29054356E+04</pdfrwt>
<pdfrwt beam="2">  1       -2 0.99569973E-01 0.29054356E+04</pdfrwt>
<totfact> 0.85099234E-01</totfact>
</mgrwt>
</event>
<event>
12    1  0.4820219E-008  0.1583148E+04  0.7818608E-02  0.8830968E-01
          1   -1    0    0  501    0  0.00000000000E+00  0.00000000000E+00  0.95324888869E+03  0.95324888869E+03  0.00000000000E+00 0. -1.
         -1   -1    0    0    0  501 -0.00000000000E+00 -0.00000000000E+00 -0.65731983574E+03  0.65731983574E+03  0.00000000000E+00 0.  1.
         23    2    1    2    0    0  0.21479525707E+03  0.46875457303E+03  0.21864636774E+03  0.56758527124E+03  0.92081234827E+02 0.  0.
        254    2    1    2    0    0 -0.21479525707E+03 -0.46875457303E+03  0.77282685206E+02  0.10429834532E+04  0.90331280185E+03 0.  0.
         23    2    4    4    0    0 -0.46939606803E+03 -0.56434793742E+03  0.12720147522E+03  0.75055781514E+03  0.91299262967E+02 0.  0.
         23    2    4    4    0    0  0.25460081096E+03  0.95593364393E+02 -0.49918790017E+02  0.29242563804E+03  0.95190356270E+02 0.  0.
         13    1    3    3    0    0  0.15152047142E+03  0.39346428433E+03  0.20316483377E+03  0.46802622361E+03  0.00000000000E+00 0. -1.
        -13    1    3    3    0    0  0.63274785653E+02  0.75290288694E+02  0.15481533972E+02  0.99559047632E+02  0.00000000000E+00 0.  1.
          4    1    5    5  502    0 -0.45974660666E+03 -0.53096888574E+03  0.13435116074E+03  0.71508400510E+03  0.00000000000E+00 0. -1.
          1    1    6    6  503    0  0.22567485586E+03  0.11458631854E+03 -0.49064767647E+02  0.25781100905E+03  0.00000000000E+00 0. -1.
         -4    1    5    5    0  502 -0.96494613705E+01 -0.33379051684E+02 -0.71496855140E+01  0.35473810044E+02  0.00000000000E+00 0.  1.
         -1    1    6    6    0  503  0.28925955102E+02 -0.18992954145E+02 -0.85402236962E+00  0.34614628987E+02  0.00000000000E+00 0.  1.
<mgrwt>
<rscale>  0 0.15831480E+04</rscale>
<asrwt>0</asrwt>
<pdfrwt beam="1">  1        1 0.14665367E+00 0.15831480E+04</pdfrwt>
<pdfrwt beam="2">  1       -1 0.10112613E+00 0.15831480E+04</pdfrwt>
<totfact> 0.14709132E+01</totfact>
</mgrwt>
</event>
<event>
12    1  0.4820219E-008  0.1509385E+04  0.7818608E-02  0.8878236E-01
         -3   -1    0    0    0  501 -0.00000000000E+00  0.00000000000E+00  0.20047896310E+04  0.20047896310E+04  0.00000000000E+00 0.  1.
          3   -1    0    0  501    0  0.00000000000E+00 -0.00000000000E+00 -0.28410005535E+03  0.28410005535E+03  0.00000000000E+00 0. -1.
         23    2    1    2    0    0  0.25569914067E+03  0.10022672606E+03  0.12750944739E+04  0.13074996708E+04  0.90895679387E+02 0.  0.
        254    2    1    2    0    0 -0.25569914067E+03 -0.10022672606E+03  0.44559510173E+03  0.98139001556E+03  0.83014692724E+03 0.  0.
         23    2    4    4    0    0 -0.18592737554E+03  0.13041953821E+03  0.62186055859E+03  0.66794491761E+03  0.88665741452E+02 0.  0.
         23    2    4    4    0    0 -0.69771765128E+02 -0.23064626427E+03 -0.17626545686E+03  0.31344509796E+03  0.95459518749E+02 0.  0.
         11    1    3    3    0    0  0.25949894793E+02 -0.10204863438E+02  0.63073144291E+02  0.68962002642E+02  0.00000000000E+00 0. -1.
        -11    1    3    3    0    0  0.22974924587E+03  0.11043158950E+03  0.12120213296E+04  0.12385376681E+04  0.00000000000E+00 0.  1.
          2    1    5    5  502    0 -0.46262040632E+02  0.85256311659E+02  0.24347980985E+03  0.26209012359E+03  0.00000000000E+00 0.  1.
          1    1    6    6  503    0 -0.73175695674E+02 -0.10707090581E+03 -0.12332708051E+03  0.17896488509E+03  0.00000000000E+00 0. -1.
         -2    1    5    5    0  502 -0.13966533491E+03  0.45163226552E+02  0.37838074874E+03  0.40585479402E+03  0.00000000000E+00 0. -1.
         -1    1    6    6    0  503  0.34039305460E+01 -0.12357535846E+03 -0.52938376348E+02  0.13448021286E+03  0.00000000000E+00 0.  1.
<mgrwt>
<rscale>  0 0.15093851E+04</rscale>
<asrwt>0</asrwt>
<pdfrwt beam="1">  1        3 0.43707702E-01 0.15093851E+04</pdfrwt>
<pdfrwt beam="2">  1       -3 0.30842916E+00 0.15093851E+04</pdfrwt>
<totfact> 0.45142950E-01</totfact>
</mgrwt>
</event>
<event>
12    1  0.4820219E-008  0.1537015E+04  0.7818608E-02  0.8860205E-01
         -2   -1    0    0    0  501 -0.00000000000E+00  0.00000000000E+00  0.23358676560E+03  0.23358676560E+03  0.00000000000E+00 0.  1.
          2   -1    0    0  501    0  0.00000000000E+00 -0.00000000000E+00 -0.25284120766E+04  0.25284120766E+04  0.00000000000E+00 0. -1.
         23    2    1    2    0    0  0.10932072366E+03  0.29413575365E+03 -0.14473717174E+04  0.14840272492E+04  0.94789902807E+02 0.  0.
        254    2    1    2    0    0 -0.10932072366E+03 -0.29413575365E+03 -0.84745359355E+03  0.12779715930E+04  0.90364093372E+03 0.  0.
         23    2    4    4    0    0 -0.29175142769E+03 -0.54110791315E+03 -0.44983726786E+03  0.76748781135E+03  0.93633881527E+02 0.  0.
         23    2    4    4    0    0  0.18243070403E+03  0.24697215951E+03 -0.39761632568E+03  0.51048378165E+03  0.90657264069E+02 0.  0.
         13    1    3    3    0    0  0.67101847245E+02  0.12907038366E+03 -0.86863945981E+03  0.88073624484E+03  0.00000000000E+00 0.  1.
        -13    1    3    3    0    0  0.42218876414E+02  0.16506536998E+03 -0.57873225762E+03  0.60329100433E+03  0.00000000000E+00 0. -1.
          2    1    5    5  502    0 -0.10839766860E+03 -0.11541875445E+03 -0.11534864254E+03  0.19590010917E+03  0.00000000000E+00 0.  1.
          4    1    6    6  503    0  0.88523754228E+02  0.11510414124E+03 -0.26091218385E+03  0.29859769938E+03  0.00000000000E+00 0. -1.
         -2    1    5    5    0  502 -0.18335375910E+03 -0.42568915871E+03 -0.33448862532E+03  0.57158770218E+03  0.00000000000E+00 0. -1.
         -4    1    6    6    0  503  0.93906949806E+02  0.13186801827E+03 -0.13670414183E+03  0.21188608227E+03  0.00000000000E+00 0.  1.
<mgrwt>
<rscale>  0 0.15370148E+04</rscale>
<asrwt>0</asrwt>
<pdfrwt beam="1">  1        2 0.38898648E+00 0.15370148E+04</pdfrwt>
<pdfrwt beam="2">  1       -2 0.35936425E-01 0.15370148E+04</pdfrwt>
<totfact> 0.23577656E+01</totfact>
</mgrwt>
</event>
<event>
12    1  0.4820219E-008  0.1344122E+04  0.7818608E-02  0.8995290E-01
          1   -1    0    0  501    0  0.00000000000E+00  0.00000000000E+00  0.60620767180E+03  0.60620767180E+03  0.00000000000E+00 0. -1.
         -1   -1    0    0    0  501 -0.00000000000E+00 -0.00000000000E+00 -0.74506789245E+03  0.74506789245E+03  0.00000000000E+00 0.  1.
         23    2    1    2    0    0  0.29889440363E+03  0.14526464624E+03 -0.16843722035E+03  0.38345847263E+03  0.90717258902E+02 0.  0.
        254    2    1    2    0    0 -0.29889440363E+03 -0.14526464624E+03  0.29576999702E+02  0.96781709162E+03  0.90849074951E+03 0.  0.
         23    2    4    4    0    0 -0.38416215264E+03  0.29510853036E+03  0.10593912312E+03  0.50397408265E+03  0.89984298408E+02 0.  0.
         23    2    4    4    0    0  0.85267749014E+02 -0.44037317660E+03 -0.76362123419E+02  0.46384300897E+03  0.90111261126E+02 0.  0.
         13    1    3    3    0    0  0.17187715401E+03  0.71307315089E+02 -0.44814883033E+02  0.19140235891E+03  0.00000000000E+00 0. -1.
        -13    1    3    3    0    0  0.12701724962E+03  0.73957331149E+02 -0.12362233732E+03  0.19205611372E+03  0.00000000000E+00 0.  1.
          3    1    5    5  502    0 -0.21104351873E+03  0.13389625462E+03  0.94291305009E+02  0.26712997585E+03  0.00000000000E+00 0. -1.
          3    1    6    6  503    0  0.28240584257E+02 -0.24544031161E+02 -0.11316816399E+01  0.37432883513E+02  0.00000000000E+00 0. -1.
         -3    1    5    5    0  502 -0.17311863392E+03  0.16121227574E+03  0.11647818112E+02  0.23684410680E+03  0.00000000000E+00 0.  1.
         -3    1    6    6    0  503  0.57027164756E+02 -0.41582914544E+03 -0.75230441779E+02  0.42641012545E+03  0.00000000000E+00 0.  1.
<mgrwt>
<rscale>  0 0.13441218E+04</rscale>
<asrwt>0</asrwt>
<pdfrwt beam="1">  1        1 0.93262719E-01 0.13441218E+04</pdfrwt>
<pdfrwt beam="2">  1       -1 0.11462583E+00 0.13441218E+04</pdfrwt>
<totfact> 0.22867520E+01</totfact>
</mgrwt>
</event>
<event>
12    1  0.4820219E-008  0.1633720E+04  0.7818608E-02  0.8800096E-01
         -1   -1    0    0    0  501 -0.00000000000E+00  0.00000000000E+00  0.50600796090E+03  0.50600796090E+03  0.00000000000E+00 0.  1.
          1   -1    0    0  501    0  0.00000000000E+00 -0.00000000000E+00 -0.13186746147E+04  0.13186746147E+04  0.00000000000E+00 0. -1.
         23    2    1    2    0    0  0.40305124202E+03 -0.67148253233E+02  0.14267453029E+03  0.44324074184E+03  0.95640692301E+02 0.  0.
        254    2    1    2    0    0 -0.40305124202E+03  0.67148253233E+02 -0.95534118410E+03  0.13814418338E+04  0.91035463992E+03 0.  0.
         23    2    4    4    0    0 -0.24373314140E+03  0.11656710575E+02 -0.11065804590E+04  0.11370089274E+04  0.93419835757E+02 0.  0.
         23    2    4    4    0    0 -0.15931810062E+03  0.55491542658E+02  0.15123927487E+03  0.24443290635E+03  0.91720003015E+02 0.  0.
         11    1    3    3    0    0  0.19433854083E+03 -0.31327824571E+02  0.11933301868E+03  0.23019398427E+03  0.00000000000E+00 0.  1.
        -11    1    3    3    0    0  0.20871270119E+03 -0.35820428662E+02  0.23341511612E+02  0.21304675757E+03  0.00000000000E+00 0. -1.
          2    1    5    5  502    0 -0.43670819966E+02  0.67667359558E+01 -0.40625371474E+03  0.40865022938E+03  0.00000000000E+00 0. -1.
          1    1    6    6  503    0 -0.13733640842E+03  0.13075414568E+02  0.82568177750E+02  0.16077860405E+03  0.00000000000E+00 0. -1.
         -2    1    5    5    0  502 -0.20006232144E+03  0.48899746188E+01 -0.70032674423E+03  0.72835869803E+03  0.00000000000E+00 0.  1.
         -1    1    6    6    0  503 -0.21981692203E+02  0.42416128090E+02  0.68671097120E+02  0.83654302304E+02  0.00000000000E+00 0.  1.
<mgrwt>
<rscale>  0 0.16337195E+04</rscale>
<asrwt>0</asrwt>
<pdfrwt beam="1">  1        1 0.20287302E+00 0.16337195E+04</pdfrwt>
<pdfrwt beam="2">  1       -1 0.77847380E-01 0.16337195E+04</pdfrwt>
<totfact> 0.13874879E+01</totfact>
</mgrwt>
</event>
<event>
12    1  0.4820219E-008  0.2050950E+04  0.7818608E-02  0.8583164E-01
          3   -1    0    0  501    0  0.00000000000E+00  0.00000000000E+00  0.53207813352E+03  0.53207813352E+03  0.00000000000E+00 0. -1.
         -3   -1    0    0    0  501 -0.00000000000E+00 -0.00000000000E+00 -0.19763990430E+04  0.19763990430E+04  0.00000000000E+00 0.  1.
         23    2    1    2    0    0  0.19702894579E+03 -0.77709639016E+03 -0.35011036250E+03  0.87956761604E+03  0.91447909639E+02 0.  0.
        254    2    1    2    0    0 -0.19702894579E+03  0.77709639016E+03 -0.10942105469E+04  0.16289095605E+04  0.90185942918E+03 0.  0.
         23    2    4    4    0    0  0.14510547169E+03 -0.49371352219E+01  0.67634126536E+02  0.18430455864E+03  0.91180162554E+02 0.  0.
         23    2    4    4    0    0 -0.34213441748E+03  0.78203352538E+03 -0.11618446735E+04  0.14446050018E+04  0.91477710565E+02 0.  0.
         11    1    3    3    0    0  0.38832161897E+02 -0.14804456973E+03 -0.28919162768E+02  0.15576087249E+03  0.00000000000E+00 0. -1.
        -11    1    3    3    0    0  0.15819678389E+03 -0.62905182042E+03 -0.32119119973E+03  0.72380674354E+03  0.00000000000E+00 0.  1.
          2    1    5    5  502    0  0.12851586862E+02  0.27647238957E+02 -0.34151757283E+01  0.30678926514E+02  0.00000000000E+00 0. -1.
          1    1    6    6  503    0  0.41812250644E+01  0.14328038455E+02 -0.32857622017E+02  0.36088760766E+02  0.00000000000E+00 0. -1.
         -2    1    5    5    0  502  0.13225388483E+03 -0.32584374179E+02  0.71049302264E+02  0.15362563212E+03  0.00000000000E+00 0.  1.
         -1    1    6    6    0  503 -0.34631564254E+03  0.76770548693E+03 -0.11289870515E+04  0.14085162410E+04  0.00000000000E+00 0.  1.
<mgrwt>
<rscale>  0 0.20509497E+04</rscale>
<asrwt>0</asrwt>
<pdfrwt beam="1">  1        3 0.81858174E-01 0.20509497E+04</pdfrwt>
<pdfrwt beam="2">  1       -3 0.30406139E+00 0.20509497E+04</pdfrwt>
<totfact> 0.12061009E-01</totfact>
</mgrwt>
</event>
<event>
12    1  0.4820219E-008  0.1221293E+04  0.7818608E-02  0.9094420E-01
         -2   -1    0    0    0  501 -0.00000000000E+00  0.00000000000E+00  0.17506235031E+03  0.17506235031E+03  0.00000000000E+00 0.  1.
          2   -1    0    0  501    0  0.00000000000E+00 -0.00000000000E+00 -0.21300376520E+04  0.21300376520E+04  0.00000000000E+00 0. -1.
         23    2    1    2    0    0 -0.12245868045E+03 -0.17067004453E+03 -0.60644815805E+03  0.64839229522E+03  0.92243197972E+02 0.  0.
        254    2    1    2    0    0  0.12245868045E+03  0.17067004453E+03 -0.13485271437E+04  0.16567077071E+04  0.93916482957E+03 0.  0.
         23    2    4    4    0    0  0.46790023866E+03  0.32014153015E+03 -0.77362855834E+03  0.96343933160E+03  0.91065727505E+02 0.  0.
         23    2    4    4    0    0 -0.34544155821E+03 -0.14947148562E+03 -0.57489858531E+03  0.69326837551E+03  0.91875252057E+02 0.  0.
         13    1    3    3    0    0 -0.57999695399E+02 -0.14958341427E+03 -0.45485849062E+03  0.48232293018E+03  0.00000000000E+00 0. -1.
        -13    1    3    3    0    0 -0.64458985053E+02 -0.21086630253E+02 -0.15158966743E+03  0.16606936503E+03  0.00000000000E+00 0.  1.
          1    1    5    5  502    0  0.22774046862E+03  0.20801455503E+03 -0.39194760613E+03  0.49875715744E+03  0.00000000000E+00 0. -1.
          3    1    6    6  503    0 -0.22866979584E+03 -0.88796249137E+02 -0.44629705603E+03  0.50926978274E+03  0.00000000000E+00 0. -1.
         -1    1    5    5    0  502  0.24015977004E+03  0.11212697512E+03 -0.38168095222E+03  0.46468217416E+03  0.00000000000E+00 0.  1.
         -3    1    6    6    0  503 -0.11677176237E+03 -0.60675236482E+02 -0.12860152929E+03  0.18399859278E+03  0.00000000000E+00 0.  1.
<mgrwt>
<rscale>  0 0.12212934E+04</rscale>
<asrwt>0</asrwt>
<pdfrwt beam="1">  1        2 0.32769810E+00 0.12212934E+04</pdfrwt>
<pdfrwt beam="2">  1       -2 0.26932669E-01 0.12212934E+04</pdfrwt>
<totfact> 0.69902140E+01</totfact>
</mgrwt>
</event>
<event>
12    1  0.4820219E-008  0.1550128E+04  0.7818608E-02  0.8851786E-01
          2   -1    0    0  501    0  0.00000000000E+00  0.00000000000E+00  0.12602182546E+04  0.12602182546E+04  0.00000000000E+00 0. -1.
         -2   -1    0    0    0  501 -0.00000000000E+00 -0.00000000000E+00 -0.47668263876E+03  0.47668263876E+03  0.00000000000E+00 0.  1.
         23    2    1    2    0    0 -0.36820746260E+03 -0.15869895495E+02  0.62608337481E+03  0.73223617422E+03  0.91437593587E+02 0.  0.
        254    2    1    2    0    0  0.36820746260E+03  0.15869895495E+02  0.15745224103E+03  0.10046647191E+04  0.92126619421E+03 0.  0.
         23    2    4    4    0    0  0.59418135330E+03 -0.21859090027E+03  0.22818551625E+02  0.64005547470E+03  0.91196831643E+02 0.  0.
         23    2    4    4    0    0 -0.22597389070E+03  0.23446079577E+03  0.13463368941E+03  0.36460924445E+03  0.93688882940E+02 0.  0.
         11    1    3    3    0    0 -0.29527199866E+03  0.23818153267E+02  0.47372454995E+03  0.55871979277E+03  0.00000000000E+00 0. -1.
        -11    1    3    3    0    0 -0.72935463946E+02 -0.39688048763E+02  0.15235882487E+03  0.17351638145E+03  0.00000000000E+00 0.  1.
          2    1    5    5  502    0  0.49664566187E+02  0.24495889062E+01  0.16365606985E+02  0.52348855883E+02  0.00000000000E+00 0.  1.
          4    1    6    6  503    0 -0.97827827563E+02  0.89575038790E+02  0.69159345965E+01  0.13282244378E+03  0.00000000000E+00 0. -1.
         -2    1    5    5    0  502  0.54451678711E+03 -0.22104048918E+03  0.64529446404E+01  0.58770661882E+03  0.00000000000E+00 0. -1.
         -4    1    6    6    0  503 -0.12814606313E+03  0.14488575698E+03  0.12771775481E+03  0.23178680067E+03  0.00000000000E+00 0.  1.
<mgrwt>
<rscale>  0 0.15501279E+04</rscale>
<asrwt>0</asrwt>
<pdfrwt beam="1">  1        2 0.19387973E+00 0.15501279E+04</pdfrwt>
<pdfrwt beam="2">  1       -2 0.73335791E-01 0.15501279E+04</pdfrwt>
<totfact> 0.28179402E+01</totfact>
</mgrwt>
</event>
<event>
12    1  0.4820219E-008  0.1284392E+04  0.7818608E-02  0.9042035E-01
          2   -1    0    0  501    0  0.00000000000E+00  0.00000000000E+00  0.16697355774E+04  0.16697355774E+04  0.00000000000E+00 0.  1.
         -2   -1    0    0    0  501 -0.00000000000E+00 -0.00000000000E+00 -0.24699444940E+03  0.24699444940E+03  0.00000000000E+00 0. -1.
         23    2    1    2    0    0 -0.20218367745E+03  0.24261467224E+03  0.30905277657E+03  0.45217899861E+03  0.95979734675E+02 0.  0.
        254    2    1    2    0    0  0.20218367745E+03 -0.24261467224E+03  0.11136883515E+04  0.14645510282E+04  0.89714427571E+03 0.  0.
         23    2    4    4    0    0  0.19597638842E+03 -0.93350040291E+02 -0.87432327574E+02  0.25070682445E+03  0.89936227838E+02 0.  0.
         23    2    4    4    0    0  0.62072890277E+01 -0.14926463195E+03  0.12011206790E+04  0.12138442038E+04  0.91697353448E+02 0.  0.
         11    1    3    3    0    0 -0.11585409431E+01  0.50946620259E+02  0.63712402455E+02  0.81585357507E+02  0.00000000000E+00 0.  1.
        -11    1    3    3    0    0 -0.20102513651E+03  0.19166805198E+03  0.24534037412E+03  0.37059364111E+03  0.00000000000E+00 0. -1.
          2    1    5    5  502    0  0.87739277354E+02 -0.46410096154E+02  0.71242610490E+01  0.99512978606E+02  0.00000000000E+00 0. -1.
          2    1    6    6  503    0 -0.34679662929E+02 -0.29597850927E+02  0.22558988749E+03  0.23015105722E+03  0.00000000000E+00 0. -1.
         -2    1    5    5    0  502  0.10823711107E+03 -0.46939944136E+02 -0.94556588623E+02  0.15119384584E+03  0.00000000000E+00 0.  1.
         -2    1    6    6    0  503  0.40886951956E+02 -0.11966678102E+03  0.97553079153E+03  0.98369314654E+03  0.00000000000E+00 0.  1.
<mgrwt>
<rscale>  0 0.12843916E+04</rscale>
<asrwt>0</asrwt>
<pdfrwt beam="1">  1        2 0.25688239E+00 0.12843916E+04</pdfrwt>
<pdfrwt beam="2">  1       -2 0.37999147E-01 0.12843916E+04</pdfrwt>
<totfact> 0.65381483E+01</totfact>
</mgrwt>
</event>
<event>
12    1  0.4820219E-008  0.1556993E+04  0.7818608E-02  0.8847413E-01
          1   -1    0    0  501    0  0.00000000000E+00  0.00000000000E+00  0.14633469479E+04  0.14633469479E+04  0.00000000000E+00 0. -1.
         -1   -1    0    0    0  501 -0.00000000000E+00 -0.00000000000E+00 -0.41415805482E+03  0.41415805482E+03  0.00000000000E+00 0.  1.
         23    2    1    2    0    0 -0.66484878813E+02  0.12479561890E+03 -0.24669513851E+03  0.29891655742E+03  0.92186936862E+02 0.  0.
        254    2    1    2    0    0  0.66484878813E+02 -0.12479561890E+03  0.12958840316E+04  0.15785884453E+04  0.89029875361E+03 0.  0.
         23    2    4    4    0    0 -0.52810219473E+02  0.16146506198E+03  0.12337294730E+04  0.12487037995E+04  0.91175001058E+02 0.  0.
         23    2    4    4    0    0  0.11929509829E+03 -0.28626068088E+03  0.62154558568E+02  0.32988464577E+03  0.93724022925E+02 0.  0.
         13    1    3    3    0    0 -0.42027371097E+02  0.22362443165E+02 -0.14461738902E+03  0.15225166007E+03  0.00000000000E+00 0. -1.
        -13    1    3    3    0    0 -0.24457507716E+02  0.10243317574E+03 -0.10207774949E+03  0.14666489736E+03  0.00000000000E+00 0.  1.
          3    1    5    5  502    0 -0.43387811111E+02  0.16083617972E+02  0.25021479134E+03  0.25445751458E+03  0.00000000000E+00 0. -1.
          3    1    6    6  503    0  0.60686478951E+02 -0.10682063937E+03 -0.19171362417E+02  0.12434242582E+03  0.00000000000E+00 0. -1.
         -3    1    5    5    0  502 -0.94224083615E+01  0.14538144401E+03  0.98351468169E+03  0.99424628495E+03  0.00000000000E+00 0.  1.
         -3    1    6    6    0  503  0.58608619335E+02 -0.17944004151E+03  0.81325920985E+02  0.20554221995E+03  0.00000000000E+00 0.  1.
<mgrwt>
<rscale>  0 0.15569932E+04</rscale>
<asrwt>0</asrwt>
<pdfrwt beam="1">  1        1 0.22513030E+00 0.15569932E+04</pdfrwt>
<pdfrwt beam="2">  1       -1 0.63716625E-01 0.15569932E+04</pdfrwt>
<totfact> 0.16685733E+01</totfact>
</mgrwt>
</event>
<event>
12    1  0.4820219E-008  0.1722151E+04  0.7818608E-02  0.8748831E-01
          2   -1    0    0  501    0  0.00000000000E+00  0.00000000000E+00  0.19716210437E+04  0.19716210437E+04  0.00000000000E+00 0.  1.
         -2   -1    0    0    0  501 -0.00000000000E+00 -0.00000000000E+00 -0.37606166101E+03  0.37606166101E+03  0.00000000000E+00 0. -1.
         23    2    1    2    0    0  0.10108388544E+03  0.54517638150E+03  0.18416846871E+03  0.59139498822E+03  0.91622968674E+02 0.  0.
        254    2    1    2    0    0 -0.10108388544E+03 -0.54517638150E+03  0.14113909139E+04  0.17562877164E+04  0.88605134849E+03 0.  0.
         23    2    4    4    0    0  0.34571691962E+03 -0.80599735739E+02  0.32279141771E+03  0.48779207181E+03  0.87922124971E+02 0.  0.
         23    2    4    4    0    0 -0.44680080506E+03 -0.46457664576E+03  0.10885994962E+04  0.12684956446E+04  0.92573852094E+02 0.  0.
         11    1    3    3    0    0  0.13839207852E+02  0.22920784283E+03  0.39074961886E+02  0.23292619332E+03  0.00000000000E+00 0.  1.
        -11    1    3    3    0    0  0.87244677584E+02  0.31596853866E+03  0.14509350682E+03  0.35846879490E+03  0.00000000000E+00 0. -1.
          4    1    5    5  502    0  0.76824625844E+02 -0.33806705121E+02  0.34356384653E+02  0.90693316256E+02  0.00000000000E+00 0. -1.
          1    1    6    6  503    0 -0.19478145157E+03 -0.20441673834E+03  0.56768050473E+03  0.63402458331E+03  0.00000000000E+00 0. -1.
         -4    1    5    5    0  502  0.26889229378E+03 -0.46793030619E+02  0.28843503305E+03  0.39709875555E+03  0.00000000000E+00 0.  1.
         -1    1    6    6    0  503 -0.25201935349E+03 -0.26015990741E+03  0.52091899149E+03  0.63447106132E+03  0.00000000000E+00 0.  1.
<mgrwt>
<rscale>  0 0.17221511E+04</rscale>
<asrwt>0</asrwt>
<pdfrwt beam="1">  1        2 0.30332631E+00 0.17221511E+04</pdfrwt>
<pdfrwt beam="2">  1       -2 0.57855641E-01 0.17221511E+04</pdfrwt>
<totfact> 0.18406472E+01</totfact>
</mgrwt>
</event>
<event>
12    1  0.4820219E-008  0.1702520E+04  0.7818608E-02  0.8759929E-01
          2   -1    0    0  501    0  0.00000000000E+00  0.00000000000E+00  0.60987037899E+03  0.60987037899E+03  0.00000000000E+00 0. -1.
         -2   -1    0    0    0  501 -0.00000000000E+00 -0.00000000000E+00 -0.11881924324E+04  0.11881924324E+04  0.00000000000E+00 0.  1.
         23    2    1    2    0    0 -0.35391765592E+02  0.18886248513E+03  0.39967170036E+03  0.45447303959E+03  0.99431686533E+02 0.  0.
        254    2    1    2    0    0  0.35391765592E+02 -0.18886248513E+03 -0.97799375376E+03  0.13435897718E+04  0.90102168514E+03 0.  0.
         23    2    4    4    0    0 -0.90433138095E+02 -0.34121730937E+02 -0.10890132636E+04  0.10968677266E+04  0.88467375009E+02 0.  0.
         23    2    4    4    0    0  0.12582490369E+03 -0.15474075419E+03  0.11101950982E+03  0.24672204518E+03  0.93647363143E+02 0.  0.
         13    1    3    3    0    0  0.33569216395E+02  0.86085458417E+02  0.16160968148E+03  0.18615930702E+03  0.00000000000E+00 0. -1.
        -13    1    3    3    0    0 -0.68960981987E+02  0.10277702671E+03  0.23806201887E+03  0.26831373257E+03  0.00000000000E+00 0.  1.
          2    1    5    5  502    0 -0.53222607519E+02 -0.16370293759E+02 -0.95579838578E+03  0.95741902358E+03  0.00000000000E+00 0.  1.
          1    1    6    6  503    0  0.13102470096E+03 -0.98862505156E+02  0.79910145158E+02  0.18255656243E+03  0.00000000000E+00 0. -1.
         -2    1    5    5    0  502 -0.37210530576E+02 -0.17751437178E+02 -0.13321487780E+03  0.13944870302E+03  0.00000000000E+00 0. -1.
         -1    1    6    6    0  503 -0.51997972770E+01 -0.55878249034E+02  0.31109364659E+02  0.64165482748E+02  0.00000000000E+00 0.  1.
<mgrwt>
<rscale>  0 0.17025197E+04</rscale>
<asrwt>0</asrwt>
<pdfrwt beam="1">  1        2 0.93826213E-01 0.17025197E+04</pdfrwt>
<pdfrwt beam="2">  1       -2 0.18279883E+00 0.17025197E+04</pdfrwt>
<totfact> 0.80165838E+00</totfact>
</mgrwt>
</event>
<event>
12    1  0.4820219E-008  0.1334644E+04  0.7818608E-02  0.9002535E-01
         -2   -1    0    0    0  501 -0.00000000000E+00  0.00000000000E+00  0.25045991249E+03  0.25045991249E+03  0.00000000000E+00 0.  1.
          2   -1    0    0  501    0  0.00000000000E+00 -0.00000000000E+00 -0.17780030027E+04  0.17780030027E+04  0.00000000000E+00 0. -1.
         23    2    1    2    0    0 -0.98218627857E+02 -0.13072074996E+01 -0.97506911037E+03  0.98422077112E+03  0.91006311141E+02 0.  0.
        254    2    1    2    0    0  0.98218627857E+02  0.13072074996E+01 -0.55247397982E+03  0.10442421440E+04  0.88066199496E+03 0.  0.
         23    2    4    4    0    0 -0.15413232672E+03 -0.37863423993E+03 -0.29641012498E+03  0.51180954602E+03  0.83482856980E+02 0.  0.
         23    2    4    4    0    0  0.25235095458E+03  0.37994144743E+03 -0.25606385484E+03  0.53243259803E+03  0.99394496505E+02 0.  0.
         11    1    3    3    0    0 -0.64216501515E+02  0.66176777184E+01 -0.88898745409E+03  0.89132836052E+03  0.00000000000E+00 0. -1.
        -11    1    3    3    0    0 -0.34002126341E+02 -0.79248852180E+01 -0.86081656276E+02  0.92892410609E+02  0.00000000000E+00 0.  1.
          1    1    5    5  502    0  0.91444004574E+01 -0.87146523180E+01 -0.60527336709E+01  0.14007169937E+02  0.00000000000E+00 0. -1.
          3    1    6    6  503    0  0.11729800406E+03  0.13124310840E+03 -0.52035174567E+02  0.18355172201E+03  0.00000000000E+00 0. -1.
         -1    1    5    5    0  502 -0.16327672718E+03 -0.36991958761E+03 -0.29035739131E+03  0.49780237608E+03  0.00000000000E+00 0.  1.
         -3    1    6    6    0  503  0.13505295052E+03  0.24869833903E+03 -0.20402868028E+03  0.34888087602E+03  0.00000000000E+00 0.  1.
<mgrwt>
<rscale>  0 0.13346437E+04</rscale>
<asrwt>0</asrwt>
<pdfrwt beam="1">  1        2 0.27353892E+00 0.13346437E+04</pdfrwt>
<pdfrwt beam="2">  1       -2 0.38532294E-01 0.13346437E+04</pdfrwt>
<totfact> 0.55215149E+01</totfact>
</mgrwt>
</event>
<event>
12    1  0.4820219E-008  0.1739042E+04  0.7818608E-02  0.8739405E-01
         -2   -1    0    0    0  501 -0.00000000000E+00  0.00000000000E+00  0.53679268578E+03  0.53679268578E+03  0.00000000000E+00 0.  1.
          2   -1    0    0  501    0  0.00000000000E+00 -0.00000000000E+00 -0.14084896319E+04  0.14084896319E+04  0.00000000000E+00 0. -1.
         23    2    1    2    0    0  0.48482651712E+03 -0.32522772749E+03 -0.52469726129E+02  0.59322213445E+03  0.91266654468E+02 0.  0.
        254    2    1    2    0    0 -0.48482651712E+03  0.32522772749E+03 -0.81922721996E+03  0.13520601832E+04  0.90338456630E+03 0.  0.
         23    2    4    4    0    0 -0.17446875281E+03  0.22512737826E+03 -0.94553489165E+03  0.99080935373E+03  0.80902793320E+02 0.  0.
         23    2    4    4    0    0 -0.31035776430E+03  0.10010034923E+03  0.12630767169E+03  0.36125082946E+03  0.90589801187E+02 0.  0.
         11    1    3    3    0    0  0.12785331480E+03 -0.95090542051E+02 -0.54770810508E+02  0.16848894022E+03  0.00000000000E+00 0.  1.
        -11    1    3    3    0    0  0.35697320232E+03 -0.23013718544E+03  0.23010843787E+01  0.42473319424E+03  0.00000000000E+00 0. -1.
          2    1    5    5  502    0 -0.15588196183E+03  0.22666014778E+03 -0.91010329931E+03  0.95076917495E+03  0.00000000000E+00 0. -1.
          4    1    6    6  503    0 -0.21513028791E+03  0.72367985360E+02  0.13079726943E+03  0.26196582176E+03  0.00000000000E+00 0. -1.
         -2    1    5    5    0  502 -0.18586790979E+02 -0.15327695226E+01 -0.35431592340E+02  0.40040178784E+02  0.00000000000E+00 0.  1.
         -4    1    6    6    0  503 -0.95227476395E+02  0.27732363871E+02 -0.44895977361E+01  0.99285007702E+02  0.00000000000E+00 0.  1.
<mgrwt>
<rscale>  0 0.17390422E+04</rscale>
<asrwt>0</asrwt>
<pdfrwt beam="1">  1        2 0.21669071E+00 0.17390422E+04</pdfrwt>
<pdfrwt beam="2">  1       -2 0.82583491E-01 0.17390422E+04</pdfrwt>
<totfact> 0.17464822E+01</totfact>
</mgrwt>
</event>
<event>
12    1  0.4820219E-008  0.3247747E+04  0.7818608E-02  0.8176320E-01
          2   -1    0    0  501    0  0.00000000000E+00  0.00000000000E+00  0.14969394249E+04  0.14969394249E+04  0.00000000000E+00 0. -1.
         -2   -1    0    0    0  501 -0.00000000000E+00 -0.00000000000E+00 -0.17615712798E+04  0.17615712798E+04  0.00000000000E+00 0.  1.
         23    2    1    2    0    0  0.47975877766E+03  0.49836765723E+03 -0.14562535123E+04  0.16146672715E+04  0.89091521235E+02 0.  0.
        254    2    1    2    0    0 -0.47975877766E+03 -0.49836765723E+03  0.11916216573E+04  0.16438434332E+04  0.89650446302E+03 0.  0.
         23    2    4    4    0    0 -0.38175633809E+03 -0.55102671152E+03  0.29832838222E+03  0.73899960355E+03  0.88046873446E+02 0.  0.
         23    2    4    4    0    0 -0.98002439564E+02  0.52659054295E+02  0.89329327509E+03  0.90484382966E+03  0.91608005024E+02 0.  0.
         11    1    3    3    0    0  0.15830414345E+03  0.12921611398E+03 -0.50714762466E+03  0.54676843284E+03  0.00000000000E+00 0. -1.
        -11    1    3    3    0    0  0.32145463421E+03  0.36915154324E+03 -0.94910588760E+03  0.10678988387E+04  0.00000000000E+00 0.  1.
          1    1    5    5  502    0 -0.28263058032E+03 -0.46830041074E+03  0.23923622595E+03  0.59700861923E+03  0.00000000000E+00 0. -1.
          3    1    6    6  503    0 -0.11063399430E+03  0.62264720490E+02  0.82638009108E+03  0.83607465638E+03  0.00000000000E+00 0. -1.
         -1    1    5    5    0  502 -0.99125757769E+02 -0.82726300786E+02  0.59092156270E+02  0.14199098432E+03  0.00000000000E+00 0.  1.
         -3    1    6    6    0  503  0.12631554739E+02 -0.96056661944E+01  0.66913184010E+02  0.68769173272E+02  0.00000000000E+00 0.  1.
<mgrwt>
<rscale>  0 0.32477472E+04</rscale>
<asrwt>0</asrwt>
<pdfrwt beam="1">  1        2 0.23029837E+00 0.32477472E+04</pdfrwt>
<pdfrwt beam="2">  1       -2 0.27101096E+00 0.32477472E+04</pdfrwt>
<totfact> 0.51077050E-01</totfact>
</mgrwt>
</event>
<event>
12    1  0.4820219E-008  0.1343934E+04  0.7818608E-02  0.8995433E-01
         -1   -1    0    0    0  501 -0.00000000000E+00  0.00000000000E+00  0.60259199396E+03  0.60259199396E+03  0.00000000000E+00 0.  1.
          1   -1    0    0  501    0  0.00000000000E+00 -0.00000000000E+00 -0.74932916058E+03  0.74932916058E+03  0.00000000000E+00 0. -1.
         23    2    1    2    0    0  0.15704594168E+02  0.36667137753E+03  0.28244969356E+02  0.37962161425E+03  0.92845346319E+02 0.  0.
        254    2    1    2    0    0 -0.15704594168E+02 -0.36667137753E+03 -0.17498213598E+03  0.97229954029E+03  0.88320615643E+03 0.  0.
         23    2    4    4    0    0 -0.15196890860E+03 -0.39691124086E+03 -0.46580648847E+03  0.63701755435E+03  0.90457711391E+02 0.  0.
         23    2    4    4    0    0  0.13626431443E+03  0.30239863331E+02  0.29082435248E+03  0.33528198593E+03  0.91393617788E+02 0.  0.
         13    1    3    3    0    0 -0.24161628742E+01  0.31235599437E+03 -0.68927780718E+01  0.31244137923E+03  0.00000000000E+00 0. -1.
        -13    1    3    3    0    0  0.18120757042E+02  0.54315383158E+02  0.35137747428E+02  0.67180235023E+02  0.00000000000E+00 0.  1.
          2    1    5    5  502    0 -0.31710867124E+01 -0.12106381441E+03 -0.13090886123E+03  0.17833573085E+03  0.00000000000E+00 0. -1.
          3    1    6    6  503    0  0.16828914350E+02 -0.10332976338E+02  0.16775774295E+01  0.19819107554E+02  0.00000000000E+00 0. -1.
         -2    1    5    5    0  502 -0.14879782189E+03 -0.27584742646E+03 -0.33489762724E+03  0.45868182350E+03  0.00000000000E+00 0.  1.
         -3    1    6    6    0  503  0.11943540008E+03  0.40572839669E+02  0.28914677506E+03  0.31546287838E+03  0.00000000000E+00 0.  1.
<mgrwt>
<rscale>  0 0.13439342E+04</rscale>
<asrwt>0</asrwt>
<pdfrwt beam="1">  1        1 0.11528141E+00 0.13439342E+04</pdfrwt>
<pdfrwt beam="2">  1       -1 0.92706461E-01 0.13439342E+04</pdfrwt>
<totfact> 0.27178086E+01</totfact>
</mgrwt>
</event>
<event>
12    1  0.4820219E-008  0.1597230E+04  0.7818608E-02  0.8822251E-01
         -2   -1    0    0    0  501 -0.00000000000E+00  0.00000000000E+00  0.26289325945E+04  0.26289325945E+04  0.00000000000E+00 0.  1.
          2   -1    0    0  501    0  0.00000000000E+00 -0.00000000000E+00 -0.24260271409E+03  0.24260271409E+03  0.00000000000E+00 0. -1.
         23    2    1    2    0    0  0.14792418092E+03  0.44523185653E+03  0.36294588758E+03  0.60022172546E+03  0.91779262542E+02 0.  0.
        254    2    1    2    0    0 -0.14792418092E+03 -0.44523185653E+03  0.20233839928E+04  0.22713135831E+04  0.91905910643E+03 0.  0.
         23    2    4    4    0    0 -0.45079760143E+03  0.29994098813E+02  0.86679852250E+03  0.98180134131E+03  0.92065584151E+02 0.  0.
         23    2    4    4    0    0  0.30287342051E+03 -0.47522595534E+03  0.11565854703E+04  0.12895122418E+04  0.87062357722E+02 0.  0.
         13    1    3    3    0    0  0.56488529674E+02  0.22764894914E+03  0.23383476069E+03  0.33120038245E+03  0.00000000000E+00 0. -1.
        -13    1    3    3    0    0  0.91435651248E+02  0.21758290739E+03  0.12911112689E+03  0.26902134301E+03  0.00000000000E+00 0.  1.
          4    1    5    5  502    0 -0.29639724285E+03  0.52304409899E+02  0.63045418835E+03  0.69861259685E+03  0.00000000000E+00 0.  1.
          1    1    6    6  503    0  0.12869704639E+03 -0.13039660104E+03  0.40214277374E+03  0.44191064004E+03  0.00000000000E+00 0. -1.
         -4    1    5    5    0  502 -0.15440035858E+03 -0.22310311086E+02  0.23634433415E+03  0.28318874447E+03  0.00000000000E+00 0. -1.
         -1    1    6    6    0  503  0.17417637412E+03 -0.34482935430E+03  0.75444269660E+03  0.84760160179E+03  0.00000000000E+00 0.  1.
<mgrwt>
<rscale>  0 0.15972303E+04</rscale>
<asrwt>0</asrwt>
<pdfrwt beam="1">  1        2 0.37323496E-01 0.15972303E+04</pdfrwt>
<pdfrwt beam="2">  1       -2 0.40445115E+00 0.15972303E+04</pdfrwt>
<totfact> 0.93376059E-01</totfact>
</mgrwt>
</event>
<event>
12    1  0.4820219E-008  0.1386829E+04  0.7818608E-02  0.8963408E-01
         -2   -1    0    0    0  501 -0.00000000000E+00  0.00000000000E+00  0.13015352918E+03  0.13015352918E+03  0.00000000000E+00 0. -1.
          2   -1    0    0  501    0  0.00000000000E+00 -0.00000000000E+00 -0.36942818829E+04  0.36942818829E+04  0.00000000000E+00 0.  1.
         23    2    1    2    0    0  0.34102089357E+03 -0.14023871159E+03 -0.13598127986E+04  0.14114868362E+04  0.85100501115E+02 0.  0.
        254    2    1    2    0    0 -0.34102089357E+03  0.14023871159E+03 -0.22043155550E+04  0.24129485759E+04  0.90958870789E+03 0.  0.
         23    2    4    4    0    0 -0.61125995699E+03  0.26066385032E+03 -0.15412988796E+04  0.16808881942E+04  0.90545609410E+02 0.  0.
         23    2    4    4    0    0  0.27023906343E+03 -0.12042513873E+03 -0.66301667548E+03  0.73206038166E+03  0.93754599880E+02 0.  0.
         13    1    3    3    0    0  0.58886424898E+02  0.68049528076E+01 -0.17876988413E+03  0.18834168389E+03  0.00000000000E+00 0. -1.
        -13    1    3    3    0    0  0.28213446867E+03 -0.14704366440E+03 -0.11810429145E+04  0.12231451523E+04  0.00000000000E+00 0.  1.
          2    1    5    5  502    0 -0.47137989016E+03  0.19844203141E+03 -0.10829471061E+04  0.11976446365E+04  0.00000000000E+00 0. -1.
          1    1    6    6  503    0  0.19605530042E+03 -0.87340907848E+02 -0.56718298075E+03  0.60643437292E+03  0.00000000000E+00 0. -1.
         -2    1    5    5    0  502 -0.13988006683E+03  0.62221818913E+02 -0.45835177345E+03  0.48324355771E+03  0.00000000000E+00 0.  1.
         -1    1    6    6    0  503  0.74183763013E+02 -0.33084230885E+02 -0.95833694727E+02  0.12562600874E+03  0.00000000000E+00 0.  1.
<mgrwt>
<rscale>  0 0.13868292E+04</rscale>
<asrwt>0</asrwt>
<pdfrwt beam="1">  1        2 0.56835110E+00 0.13868292E+04</pdfrwt>
<pdfrwt beam="2">  1       -2 0.20023619E-01 0.13868292E+04</pdfrwt>
<totfact> 0.12516469E+01</totfact>
</mgrwt>
</event>
<event>
12    1  0.4820219E-008  0.1428970E+04  0.7818608E-02  0.8933112E-01
         -2   -1    0    0    0  501 -0.00000000000E+00  0.00000000000E+00  0.25649144674E+03  0.25649144674E+03  0.00000000000E+00 0.  1.
          2   -1    0    0  501    0  0.00000000000E+00 -0.00000000000E+00 -0.19902751776E+04  0.19902751776E+04  0.00000000000E+00 0. -1.
         23    2    1    2    0    0  0.32672095996E+03  0.33998607895E+02 -0.93539497022E+03  0.99526351715E+03  0.87654020110E+02 0.  0.
        254    2    1    2    0    0 -0.32672095996E+03 -0.33998607895E+02 -0.79838876063E+03  0.12515031072E+04  0.90605348804E+03 0.  0.
         23    2    4    4    0    0 -0.33988366031E+03 -0.42690637823E+03 -0.39859852115E+03  0.68293155354E+03  0.98715588624E+02 0.  0.
         23    2    4    4    0    0  0.13162700348E+02  0.39290777033E+03 -0.39979023947E+03  0.56857155364E+03  0.94295298744E+02 0.  0.
         11    1    3    3    0    0  0.28456264991E+03  0.48333551544E+02 -0.72779390448E+03  0.78294061163E+03  0.00000000000E+00 0. -1.
        -11    1    3    3    0    0  0.42158310049E+02 -0.14334943649E+02 -0.20760106573E+03  0.21232290552E+03  0.00000000000E+00 0.  1.
          2    1    5    5  502    0 -0.41547973760E+02 -0.62107265755E+02 -0.17206142221E+02  0.76678536196E+02  0.00000000000E+00 0. -1.
          3    1    6    6  503    0 -0.39932287096E+02  0.16504037004E+03 -0.15418389015E+03  0.22935907063E+03  0.00000000000E+00 0. -1.
         -2    1    5    5    0  502 -0.29833568655E+03 -0.36479911248E+03 -0.38139237893E+03  0.60625301734E+03  0.00000000000E+00 0.  1.
         -3    1    6    6    0  503  0.53094987444E+02  0.22786740029E+03 -0.24560634932E+03  0.33921248302E+03  0.00000000000E+00 0.  1.
<mgrwt>
<rscale>  0 0.14289696E+04</rscale>
<asrwt>0</asrwt>
<pdfrwt beam="1">  1        2 0.30619618E+00 0.14289696E+04</pdfrwt>
<pdfrwt beam="2">  1       -2 0.39460223E-01 0.14289696E+04</pdfrwt>
<totfact> 0.39928447E+01</totfact>
</mgrwt>
</event>
<event>
12    1  0.4820219E-008  0.1557348E+04  0.7818608E-02  0.8847188E-01
          1   -1    0    0  501    0  0.00000000000E+00  0.00000000000E+00  0.98358561418E+03  0.98358561418E+03  0.00000000000E+00 0. -1.
         -1   -1    0    0    0  501 -0.00000000000E+00 -0.00000000000E+00 -0.61645184751E+03  0.61645184751E+03  0.00000000000E+00 0.  1.
         23    2    1    2    0    0 -0.38428506427E+03 -0.66476170422E+02  0.47572209515E+03  0.62186593989E+03  0.91168215550E+02 0.  0.
        254    2    1    2    0    0  0.38428506427E+03  0.66476170422E+02 -0.10858832848E+03  0.97817152179E+03  0.89046842118E+03 0.  0.
         23    2    4    4    0    0  0.11615504979E+03  0.44550674691E+03 -0.17507495629E+03  0.50042476946E+03  0.88348471614E+02 0.  0.
         23    2    4    4    0    0  0.26813001448E+03 -0.37903057649E+03  0.66486627813E+02  0.47774675233E+03  0.90904373425E+02 0.  0.
         13    1    3    3    0    0 -0.37578882674E+03 -0.55236919369E+02  0.47439228531E+03  0.60771407745E+03  0.00000000000E+00 0. -1.
        -13    1    3    3    0    0 -0.84962375301E+01 -0.11239251053E+02  0.13298098380E+01  0.14151862443E+02  0.00000000000E+00 0.  1.
          4    1    5    5  502    0  0.78575137732E+02  0.20178702898E+03 -0.43327916016E+02  0.22083787184E+03  0.00000000000E+00 0. -1.
          4    1    6    6  503    0  0.18094332416E+02 -0.85001886361E+02  0.65427310187E+01  0.87152354413E+02  0.00000000000E+00 0. -1.
         -4    1    5    5    0  502  0.37579912056E+02  0.24371971793E+03 -0.13174704028E+03  0.27958689762E+03  0.00000000000E+00 0.  1.
         -4    1    6    6    0  503  0.25003568206E+03 -0.29402869013E+03  0.59943896794E+02  0.39059439792E+03  0.00000000000E+00 0.  1.
<mgrwt>
<rscale>  0 0.15573480E+04</rscale>
<asrwt>0</asrwt>
<pdfrwt beam="1">  1        1 0.15132086E+00 0.15573480E+04</pdfrwt>
<pdfrwt beam="2">  1       -1 0.94838745E-01 0.15573480E+04</pdfrwt>
<totfact> 0.16135940E+01</totfact>
</mgrwt>
</event>
<event>
12    1  0.4820219E-008  0.1420488E+04  0.7818608E-02  0.8939121E-01
          1   -1    0    0  501    0  0.00000000000E+00  0.00000000000E+00  0.52550350687E+03  0.52550350687E+03  0.00000000000E+00 0. -1.
         -1   -1    0    0    0  501 -0.00000000000E+00 -0.00000000000E+00 -0.95992955951E+03  0.95992955951E+03  0.00000000000E+00 0.  1.
         23    2    1    2    0    0  0.39389604409E+03 -0.12126978009E+03  0.11686005877E+03  0.43786296495E+03  0.90593871889E+02 0.  0.
        254    2    1    2    0    0 -0.39389604409E+03  0.12126978009E+03 -0.55128611142E+03  0.10475701014E+04  0.78970012514E+03 0.  0.
         23    2    4    4    0    0 -0.34701723159E+03  0.32674273663E+03 -0.38374883121E+02  0.48548449107E+03  0.83909382389E+02 0.  0.
         23    2    4    4    0    0 -0.46878812501E+02 -0.20547295654E+03 -0.51291122830E+03  0.56208561036E+03  0.91899653573E+02 0.  0.
         11    1    3    3    0    0  0.30741226125E+03 -0.84408541566E+02  0.12731279833E+03  0.34327197508E+03  0.00000000000E+00 0. -1.
        -11    1    3    3    0    0  0.86483782835E+02 -0.36861238527E+02 -0.10452739560E+02  0.94590989865E+02  0.00000000000E+00 0.  1.
          1    1    5    5  502    0 -0.21740767815E+03  0.25342944390E+03 -0.11031598530E+02  0.33408723071E+03  0.00000000000E+00 0. -1.
          3    1    6    6  503    0 -0.55116462145E+02 -0.14542177761E+03 -0.26864992703E+03  0.31041601295E+03  0.00000000000E+00 0. -1.
         -1    1    5    5    0  502 -0.12960955343E+03  0.73313292731E+02 -0.27343284591E+02  0.15139726036E+03  0.00000000000E+00 0.  1.
         -3    1    6    6    0  503  0.82376496434E+01 -0.60051178929E+02 -0.24426130127E+03  0.25166959741E+03  0.00000000000E+00 0.  1.
<mgrwt>
<rscale>  0 0.14204877E+04</rscale>
<asrwt>0</asrwt>
<pdfrwt beam="1">  1        1 0.80846694E-01 0.14204877E+04</pdfrwt>
<pdfrwt beam="2">  1       -1 0.14768147E+00 0.14204877E+04</pdfrwt>
<totfact> 0.14650335E+01</totfact>
</mgrwt>
</event>
<event>
12    1  0.4820219E-008  0.1411298E+04  0.7818608E-02  0.8945681E-01
          3   -1    0    0  501    0  0.00000000000E+00  0.00000000000E+00  0.45781544643E+03  0.45781544643E+03  0.00000000000E+00 0. -1.
         -3   -1    0    0    0  501 -0.00000000000E+00 -0.00000000000E+00 -0.10876444600E+04  0.10876444600E+04  0.00000000000E+00 0.  1.
         23    2    1    2    0    0 -0.36966953219E+03  0.18891614589E+03 -0.20088462288E+03  0.46988945720E+03  0.89981092864E+02 0.  0.
        254    2    1    2    0    0  0.36966953219E+03 -0.18891614589E+03 -0.42894439071E+03  0.10755704493E+04  0.89471427158E+03 0.  0.
         23    2    4    4    0    0  0.35254871427E+03  0.22430687643E+03 -0.48682708431E+03  0.64808043427E+03  0.91670434281E+02 0.  0.
         23    2    4    4    0    0  0.17120817919E+02 -0.41322302232E+03  0.57882693594E+02  0.42749001498E+03  0.91383357927E+02 0.  0.
         11    1    3    3    0    0 -0.37278277666E+02  0.49057161196E+02 -0.48436568859E+02  0.78373313399E+02  0.00000000000E+00 0.  1.
        -11    1    3    3    0    0 -0.33239125452E+03  0.13985898469E+03 -0.15244805402E+03  0.39151614380E+03  0.00000000000E+00 0. -1.
          2    1    5    5  502    0  0.35439415761E+03  0.22475593722E+03 -0.46577331919E+03  0.62694117358E+03  0.00000000000E+00 0. -1.
          1    1    6    6  503    0 -0.13098795005E+02 -0.17121074941E+03 -0.16514798557E+02  0.17250344262E+03  0.00000000000E+00 0. -1.
         -2    1    5    5    0  502 -0.18454433437E+01 -0.44906078669E+00 -0.21053765120E+02  0.21139260689E+02  0.00000000000E+00 0.  1.
         -1    1    6    6    0  503  0.30219612924E+02 -0.24201227291E+03  0.74397492152E+02  0.25498657236E+03  0.00000000000E+00 0.  1.
<mgrwt>
<rscale>  0 0.14112979E+04</rscale>
<asrwt>0</asrwt>
<pdfrwt beam="1">  1        3 0.70433147E-01 0.14112979E+04</pdfrwt>
<pdfrwt beam="2">  1       -3 0.16732991E+00 0.14112979E+04</pdfrwt>
<totfact> 0.11846521E+00</totfact>
</mgrwt>
</event>
<event>
12    1  0.4820219E-008  0.1339188E+04  0.7818608E-02  0.8999053E-01
          2   -1    0    0  501    0  0.00000000000E+00  0.00000000000E+00  0.89290349692E+03  0.89290349692E+03  0.00000000000E+00 0. -1.
         -2   -1    0    0    0  501 -0.00000000000E+00 -0.00000000000E+00 -0.50213306891E+03  0.50213306891E+03  0.00000000000E+00 0.  1.
         23    2    1    2    0    0 -0.31601701841E+03  0.15572959982E+03  0.47852954223E+02  0.36701463945E+03  0.91056994005E+02 0.  0.
        254    2    1    2    0    0  0.31601701841E+03 -0.15572959982E+03  0.34291747378E+03  0.10280219264E+04  0.90283897961E+03 0.  0.
         23    2    4    4    0    0  0.77897358716E+02 -0.51458400643E+03  0.18742232153E+03  0.56063368639E+03  0.91204745203E+02 0.  0.
         23    2    4    4    0    0  0.23811965970E+03  0.35885440661E+03  0.15549515225E+03  0.46738823999E+03  0.93784684414E+02 0.  0.
         13    1    3    3    0    0 -0.38348319055E+02  0.32416396239E+01 -0.19508615537E+02  0.43147281281E+02  0.00000000000E+00 0. -1.
        -13    1    3    3    0    0 -0.27766869936E+03  0.15248796019E+03  0.67361569759E+02  0.32386735817E+03  0.00000000000E+00 0.  1.
          1    1    6    6  502    0  0.23317525262E+03  0.36258385096E+03  0.14430857554E+03  0.45460170742E+03  0.00000000000E+00 0. -1.
          1    1    5    5  503    0  0.41356088345E+02 -0.46112072497E+03  0.15512640516E+03  0.48826923988E+03  0.00000000000E+00 0. -1.
         -1    1    5    5    0  503  0.36541270371E+02 -0.53463281457E+02  0.32295916371E+02  0.72364446510E+02  0.00000000000E+00 0.  1.
         -1    1    6    6    0  502  0.49444070782E+01 -0.37294443569E+01  0.11186576717E+02  0.12786532572E+02  0.00000000000E+00 0.  1.
<mgrwt>
<rscale>  0 0.13391884E+04</rscale>
<asrwt>0</asrwt>
<pdfrwt beam="1">  1        2 0.13736977E+00 0.13391884E+04</pdfrwt>
<pdfrwt beam="2">  1       -2 0.77251241E-01 0.13391884E+04</pdfrwt>
<totfact> 0.43344565E+01</totfact>
</mgrwt>
</event>
<event>
12    1  0.4820219E-008  0.1353988E+04  0.7818608E-02  0.8987815E-01
          1   -1    0    0  501    0  0.00000000000E+00  0.00000000000E+00  0.16140521647E+04  0.16140521647E+04  0.00000000000E+00 0. -1.
         -1   -1    0    0    0  501 -0.00000000000E+00 -0.00000000000E+00 -0.28395673241E+03  0.28395673241E+03  0.00000000000E+00 0.  1.
         23    2    1    2    0    0  0.34305793052E+03 -0.13624113522E+03  0.32837100915E+03  0.50240218753E+03  0.91269095359E+02 0.  0.
        254    2    1    2    0    0 -0.34305793052E+03  0.13624113522E+03  0.10017244232E+04  0.13956067096E+04  0.89889703377E+03 0.  0.
         23    2    4    4    0    0 -0.16645719487E+03  0.27595816287E+03 -0.29098913555E+02  0.33646913895E+03  0.92216209635E+02 0.  0.
         23    2    4    4    0    0 -0.17660073565E+03 -0.13971702765E+03  0.10308233367E+04  0.10591375707E+04  0.92016163691E+02 0.  0.
         11    1    3    3    0    0  0.29212313133E+03 -0.14570271879E+03  0.26441123012E+03  0.42009344762E+03  0.00000000000E+00 0.  1.
        -11    1    3    3    0    0  0.50934799190E+02  0.94615835689E+01  0.63959779027E+02  0.82308739909E+02  0.00000000000E+00 0. -1.
          4    1    5    5  502    0 -0.10597993310E+03  0.13666965175E+03 -0.56957204268E+02  0.18208367046E+03  0.00000000000E+00 0. -1.
          3    1    6    6  503    0 -0.15216814767E+03 -0.15003794434E+03  0.96034192370E+03  0.98383084945E+03  0.00000000000E+00 0. -1.
         -4    1    5    5    0  502 -0.60477261767E+02  0.13928851112E+03  0.27858290713E+02  0.15438546849E+03  0.00000000000E+00 0.  1.
         -3    1    6    6    0  503 -0.24432587976E+02  0.10320916691E+02  0.70481413046E+02  0.75306721224E+02  0.00000000000E+00 0.  1.
<mgrwt>
<rscale>  0 0.13539882E+04</rscale>
<asrwt>0</asrwt>
<pdfrwt beam="1">  1        1 0.24831571E+00 0.13539882E+04</pdfrwt>
<pdfrwt beam="2">  1       -1 0.43685652E-01 0.13539882E+04</pdfrwt>
<totfact> 0.27641117E+01</totfact>
</mgrwt>
</event>
<event>
12    1  0.4820219E-008  0.1599814E+04  0.7818608E-02  0.8820662E-01
         -1   -1    0    0    0  501 -0.00000000000E+00  0.00000000000E+00  0.22766926543E+03  0.22766926543E+03  0.00000000000E+00 0.  1.
          1   -1    0    0  501    0  0.00000000000E+00 -0.00000000000E+00 -0.28104424253E+04  0.28104424253E+04  0.00000000000E+00 0. -1.
         23    2    1    2    0    0 -0.14551449914E+02 -0.14637750049E+03  0.10492941559E+03  0.20083859626E+03  0.87680340714E+02 0.  0.
        254    2    1    2    0    0  0.14551449914E+02  0.14637750049E+03 -0.26877025754E+04  0.28372730944E+04  0.89707043266E+03 0.  0.
         23    2    4    4    0    0  0.32613955042E+03 -0.13081736060E+03 -0.19605800683E+04  0.19939925943E+04  0.93016524669E+02 0.  0.
         23    2    4    4    0    0 -0.31158810051E+03  0.27719486109E+03 -0.72712250711E+03  0.84328050009E+03  0.92145136070E+02 0.  0.
         13    1    3    3    0    0 -0.30879848595E+02 -0.10209884792E+03  0.11018033591E+03  0.15335398990E+03  0.00000000000E+00 0.  1.
        -13    1    3    3    0    0  0.16328398681E+02 -0.44278652569E+02 -0.52509203283E+01  0.47484606359E+02  0.00000000000E+00 0. -1.
          4    1    6    6  502    0 -0.11984898971E+03  0.16747585710E+03 -0.36514973231E+03  0.41922102768E+03  0.00000000000E+00 0. -1.
          4    1    5    5  503    0  0.27166494764E+03 -0.14014083081E+03 -0.15653932350E+04  0.15949599608E+04  0.00000000000E+00 0. -1.
         -4    1    5    5    0  503  0.54474602784E+02  0.93234702159E+01 -0.39518683331E+03  0.39903263359E+03  0.00000000000E+00 0.  1.
         -4    1    6    6    0  502 -0.19173911079E+03  0.10971900399E+03 -0.36197277480E+03  0.42405947241E+03  0.00000000000E+00 0.  1.
<mgrwt>
<rscale>  0 0.15998142E+04</rscale>
<asrwt>0</asrwt>
<pdfrwt beam="1">  1        1 0.43237574E+00 0.15998142E+04</pdfrwt>
<pdfrwt beam="2">  1       -1 0.35026042E-01 0.15998142E+04</pdfrwt>
<totfact> 0.61141338E+00</totfact>
</mgrwt>
</event>
<event>
12    1  0.4820219E-008  0.1835750E+04  0.7818608E-02  0.8687516E-01
         -2   -1    0    0    0  501 -0.00000000000E+00  0.00000000000E+00  0.66028796489E+03  0.66028796489E+03  0.00000000000E+00 0.  1.
          2   -1    0    0  501    0  0.00000000000E+00 -0.00000000000E+00 -0.12759498857E+04  0.12759498857E+04  0.00000000000E+00 0. -1.
         23    2    1    2    0    0  0.45344276357E+03 -0.19065758956E+03 -0.75196950920E+03  0.90289004727E+03  0.88270257744E+02 0.  0.
        254    2    1    2    0    0 -0.45344276357E+03  0.19065758956E+03  0.13630758843E+03  0.10333478033E+04  0.89848053266E+03 0.  0.
         23    2    4    4    0    0  0.22620698790E+03  0.10876419895E+03 -0.12520289756E+03  0.29502861398E+03  0.91470569924E+02 0.  0.
         23    2    4    4    0    0 -0.67964975147E+03  0.81893390609E+02  0.26151048599E+03  0.73831918929E+03  0.89984325818E+02 0.  0.
         11    1    3    3    0    0  0.11006828220E+03 -0.51568525041E+02 -0.12303041494E+03  0.17294745596E+03  0.00000000000E+00 0.  1.
        -11    1    3    3    0    0  0.34337448137E+03 -0.13908906452E+03 -0.62893909426E+03  0.72994259132E+03  0.00000000000E+00 0. -1.
          2    1    5    5  502    0  0.11693440745E+03  0.14789238987E+02 -0.27869361123E+02  0.12111597139E+03  0.00000000000E+00 0. -1.
          1    1    6    6  503    0 -0.16523915021E+03  0.25921241927E+02  0.24023433266E+02  0.16897636785E+03  0.00000000000E+00 0. -1.
         -2    1    5    5    0  502  0.10927258044E+03  0.93974959965E+02 -0.97333536438E+02  0.17391264259E+03  0.00000000000E+00 0.  1.
         -1    1    6    6    0  503 -0.51441060126E+03  0.55972148682E+02  0.23748705272E+03  0.56934282144E+03  0.00000000000E+00 0.  1.
<mgrwt>
<rscale>  0 0.18357498E+04</rscale>
<asrwt>0</asrwt>
<pdfrwt beam="1">  1        2 0.19629998E+00 0.18357498E+04</pdfrwt>
<pdfrwt beam="2">  1       -2 0.10158276E+00 0.18357498E+04</pdfrwt>
<totfact> 0.12792955E+01</totfact>
</mgrwt>
</event>
<event>
12    1  0.4820219E-008  0.1546923E+04  0.7818608E-02  0.8853835E-01
          2   -1    0    0  501    0  0.00000000000E+00  0.00000000000E+00  0.31632838795E+04  0.31632838795E+04  0.00000000000E+00 0. -1.
         -2   -1    0    0    0  501 -0.00000000000E+00 -0.00000000000E+00 -0.18912085671E+03  0.18912085671E+03  0.00000000000E+00 0.  1.
         23    2    1    2    0    0  0.37405599561E+02  0.90231942421E+02 -0.91581333650E+02  0.16376474072E+03  0.94290865499E+02 0.  0.
        254    2    1    2    0    0 -0.37405599561E+02 -0.90231942421E+02  0.30657443564E+04  0.31886399955E+04  0.87126091354E+03 0.  0.
         23    2    4    4    0    0 -0.14533099060E+03 -0.32737575912E+03  0.58385057038E+03  0.69139176217E+03  0.94048369346E+02 0.  0.
         23    2    4    4    0    0  0.10792539104E+03  0.23714381670E+03  0.24818937861E+04  0.24972482333E+04  0.92557515559E+02 0.  0.
         11    1    3    3    0    0  0.18109729019E+02  0.10538849543E+03 -0.56465465164E+02  0.12092578720E+03  0.00000000000E+00 0. -1.
        -11    1    3    3    0    0  0.19295870543E+02 -0.15156553004E+02 -0.35115868486E+02  0.42838953518E+02  0.00000000000E+00 0.  1.
          4    1    5    5  502    0  0.12276085193E+01 -0.99088386373E+01 -0.94838501989E+00  0.10029533387E+02  0.00000000000E+00 0. -1.
          1    1    6    6  503    0  0.79184964241E+01  0.58437909918E+01  0.18111725222E+02  0.20612788974E+02  0.00000000000E+00 0. -1.
         -4    1    5    5    0  502 -0.14655859912E+03 -0.31746692048E+03  0.58479895540E+03  0.68136222878E+03  0.00000000000E+00 0.  1.
         -1    1    6    6    0  503  0.10000689462E+03  0.23130002570E+03  0.24637820608E+04  0.24766354443E+04  0.00000000000E+00 0.  1.
<mgrwt>
<rscale>  0 0.15469233E+04</rscale>
<asrwt>0</asrwt>
<pdfrwt beam="1">  1        2 0.48665902E+00 0.15469233E+04</pdfrwt>
<pdfrwt beam="2">  1       -2 0.29095519E-01 0.15469233E+04</pdfrwt>
<totfact> 0.14442930E+01</totfact>
</mgrwt>
</event>
<event>
12    1  0.4820219E-008  0.2070371E+04  0.7818608E-02  0.8574409E-01
          2   -1    0    0  501    0  0.00000000000E+00  0.00000000000E+00  0.80486264812E+03  0.80486264812E+03  0.00000000000E+00 0.  1.
         -2   -1    0    0    0  501 -0.00000000000E+00 -0.00000000000E+00 -0.13314181368E+04  0.13314181368E+04  0.00000000000E+00 0. -1.
         23    2    1    2    0    0 -0.70377854874E+03 -0.43090579765E+03 -0.31318352110E+02  0.83136683502E+03  0.95947501708E+02 0.  0.
        254    2    1    2    0    0  0.70377854874E+03  0.43090579765E+03 -0.49523713659E+03  0.13049139499E+04  0.88122445672E+03 0.  0.
         23    2    4    4    0    0  0.12143952262E+02 -0.36430225373E+02 -0.45416404358E+03  0.46431542240E+03  0.88595688969E+02 0.  0.
         23    2    4    4    0    0  0.69163459648E+03  0.46733602302E+03 -0.41073093012E+02  0.84059852752E+03  0.90318946165E+02 0.  0.
         13    1    3    3    0    0 -0.18117814389E+01  0.44132939345E+01  0.20569357420E+00  0.47751466135E+01  0.00000000000E+00 0. -1.
        -13    1    3    3    0    0 -0.70196676730E+03 -0.43531909158E+03 -0.31524045685E+02  0.82659168841E+03  0.00000000000E+00 0.  1.
          2    1    5    5  502    0 -0.48042302570E+01 -0.17140843280E+02 -0.12141580072E+02  0.21547786507E+02  0.00000000000E+00 0. -1.
          4    1    6    6  503    0  0.46600543146E+03  0.36089677873E+03 -0.13082203552E+02  0.58955804727E+03  0.00000000000E+00 0.  1.
         -2    1    5    5    0  502  0.16948182519E+02 -0.19289382093E+02 -0.44202246351E+03  0.44276763590E+03  0.00000000000E+00 0.  1.
         -4    1    6    6    0  503  0.22562916502E+03  0.10643924430E+03 -0.27990889460E+02  0.25104048025E+03  0.00000000000E+00 0. -1.
<mgrwt>
<rscale>  0 0.20703707E+04</rscale>
<asrwt>0</asrwt>
<pdfrwt beam="1">  1        2 0.12382502E+00 0.20703707E+04</pdfrwt>
<pdfrwt beam="2">  1       -2 0.20483356E+00 0.20703707E+04</pdfrwt>
<totfact> 0.39015772E+00</totfact>
</mgrwt>
</event>
<event>
12    1  0.4820219E-008  0.2493457E+04  0.7818608E-02  0.8405320E-01
          1   -1    0    0  501    0  0.00000000000E+00  0.00000000000E+00  0.23839301034E+04  0.23839301034E+04  0.00000000000E+00 0. -1.
         -1   -1    0    0    0  501 -0.00000000000E+00 -0.00000000000E+00 -0.65200387867E+03  0.65200387867E+03  0.00000000000E+00 0.  1.
         23    2    1    2    0    0 -0.70405289980E+02 -0.10487541132E+04  0.10713928441E+04  0.15036508248E+04  0.90780402980E+02 0.  0.
        254    2    1    2    0    0  0.70405289980E+02  0.10487541132E+04  0.66053338063E+03  0.15322831573E+04  0.89818997567E+03 0.  0.
         23    2    4    4    0    0  0.14513282096E+03  0.10345630664E+04  0.82132800281E+03  0.13321075163E+04  0.92447134612E+02 0.  0.
         23    2    4    4    0    0 -0.74727530978E+02  0.14191046813E+02 -0.16079462218E+03  0.20017564100E+03  0.91813871694E+02 0.  0.
         11    1    3    3    0    0 -0.44091750993E+02 -0.60074537987E+03  0.67716867373E+03  0.90630927758E+03  0.00000000000E+00 0. -1.
        -11    1    3    3    0    0 -0.26313538987E+02 -0.44800873336E+03  0.39422417042E+03  0.59734154722E+03  0.00000000000E+00 0.  1.
          2    1    5    5  502    0  0.12704987008E+03  0.91349575201E+03  0.76059845656E+03  0.11954606520E+04  0.00000000000E+00 0. -1.
          1    1    6    6  503    0 -0.91013464915E+02  0.24670167982E+02 -0.15207254289E+03  0.17893609553E+03  0.00000000000E+00 0. -1.
         -2    1    5    5    0  502  0.18082950878E+02  0.12106731441E+03  0.60729546250E+02  0.13664686428E+03  0.00000000000E+00 0.  1.
         -1    1    6    6    0  503  0.16285933938E+02 -0.10479121169E+02 -0.87220792857E+01  0.21239545470E+02  0.00000000000E+00 0.  1.
<mgrwt>
<rscale>  0 0.24934568E+04</rscale>
<asrwt>0</asrwt>
<pdfrwt beam="1">  1        1 0.36675847E+00 0.24934568E+04</pdfrwt>
<pdfrwt beam="2">  1       -1 0.10030829E+00 0.24934568E+04</pdfrwt>
<totfact> 0.13706285E+00</totfact>
</mgrwt>
</event>
<event>
12    1  0.4820219E-008  0.1399959E+04  0.7818608E-02  0.8953848E-01
          2   -1    0    0  501    0  0.00000000000E+00  0.00000000000E+00  0.28625841115E+04  0.28625841115E+04  0.00000000000E+00 0. -1.
         -2   -1    0    0    0  501 -0.00000000000E+00 -0.00000000000E+00 -0.17116392019E+03  0.17116392019E+03  0.00000000000E+00 0.  1.
         23    2    1    2    0    0  0.37222036859E+03  0.35264731363E+02  0.85540535596E+03  0.93793320639E+03  0.90602276958E+02 0.  0.
        254    2    1    2    0    0 -0.37222036859E+03 -0.35264731363E+02  0.18360148353E+04  0.20958148253E+04  0.93898759426E+03 0.  0.
         23    2    4    4    0    0 -0.94774680636E+02 -0.22600928138E+03  0.37648609782E+02  0.26410469754E+03  0.90947446823E+02 0.  0.
         23    2    4    4    0    0 -0.27744568795E+03  0.19074455002E+03  0.17983662256E+04  0.18317101277E+04  0.87643126963E+02 0.  0.
         11    1    3    3    0    0  0.36684944514E+03  0.34109544283E+02  0.78333033799E+03  0.86564911761E+03  0.00000000000E+00 0. -1.
        -11    1    3    3    0    0  0.53709234448E+01  0.11551870796E+01  0.72075017967E+02  0.72284088780E+02  0.00000000000E+00 0.  1.
          3    1    6    6  502    0 -0.25041339199E+03  0.16557779558E+03  0.14107254878E+04  0.14423138615E+04  0.00000000000E+00 0. -1.
          3    1    5    5  503    0 -0.81224914405E+02 -0.13392806010E+03  0.61089577923E+02  0.16812539526E+03  0.00000000000E+00 0. -1.
         -3    1    5    5    0  503 -0.13549766230E+02 -0.92081221282E+02 -0.23440968141E+02  0.95979302274E+02  0.00000000000E+00 0.  1.
         -3    1    6    6    0  502 -0.27032295957E+02  0.25166754437E+02  0.38764073780E+03  0.38939626624E+03  0.00000000000E+00 0.  1.
<mgrwt>
<rscale>  0 0.13999587E+04</rscale>
<asrwt>0</asrwt>
<pdfrwt beam="1">  1        2 0.44039752E+00 0.13999587E+04</pdfrwt>
<pdfrwt beam="2">  1       -2 0.26332913E-01 0.13999587E+04</pdfrwt>
<totfact> 0.27104837E+01</totfact>
</mgrwt>
</event>
<event>
12    1  0.4820219E-008  0.1333995E+04  0.7818608E-02  0.9003033E-01
          1   -1    0    0  501    0  0.00000000000E+00  0.00000000000E+00  0.72827564944E+03  0.72827564944E+03  0.00000000000E+00 0. -1.
         -1   -1    0    0    0  501 -0.00000000000E+00 -0.00000000000E+00 -0.61087527046E+03  0.61087527046E+03  0.00000000000E+00 0.  1.
         23    2    1    2    0    0 -0.30403571980E+03 -0.11853117415E+02  0.21050273319E+03  0.38170067495E+03  0.93839167032E+02 0.  0.
        254    2    1    2    0    0  0.30403571980E+03  0.11853117415E+02 -0.93102354216E+02  0.95745024495E+03  0.90303084548E+03 0.  0.
         23    2    4    4    0    0  0.30526903292E+03 -0.29530686135E+03  0.23932504300E+03  0.49615196634E+03  0.92168176018E+02 0.  0.
         23    2    4    4    0    0 -0.12333131246E+01  0.30715997877E+03 -0.33242739722E+03  0.46129827861E+03  0.89103051600E+02 0.  0.
         13    1    3    3    0    0 -0.24188566850E+03  0.51780552986E+01  0.20484296091E+03  0.31701124194E+03  0.00000000000E+00 0. -1.
        -13    1    3    3    0    0 -0.62150051300E+02 -0.17031172714E+02  0.56597722796E+01  0.64689433008E+02  0.00000000000E+00 0.  1.
          1    1    5    5  502    0  0.86326818831E+02 -0.49583985088E+02  0.92055345091E+02  0.13559158450E+03  0.00000000000E+00 0. -1.
          3    1    6    6  503    0 -0.13580230773E+02  0.24185726166E+03 -0.30477261677E+03  0.38931440459E+03  0.00000000000E+00 0. -1.
         -1    1    5    5    0  502  0.21894221409E+03 -0.24572287626E+03  0.14726969791E+03  0.36056038184E+03  0.00000000000E+00 0.  1.
         -3    1    6    6    0  503  0.12346917649E+02  0.65302717106E+02 -0.27654780448E+02  0.71983874017E+02  0.00000000000E+00 0.  1.
<mgrwt>
<rscale>  0 0.13339949E+04</rscale>
<asrwt>0</asrwt>
<pdfrwt beam="1">  1        1 0.11204241E+00 0.13339949E+04</pdfrwt>
<pdfrwt beam="2">  1       -1 0.93980811E-01 0.13339949E+04</pdfrwt>
<totfact> 0.27576113E+01</totfact>
</mgrwt>
</event>
<event>
12    1  0.4820219E-008  0.1695966E+04  0.7818608E-02  0.8763668E-01
         -1   -1    0    0    0  501 -0.00000000000E+00  0.00000000000E+00  0.41078871889E+03  0.41078871889E+03  0.00000000000E+00 0.  1.
          1   -1    0    0  501    0  0.00000000000E+00 -0.00000000000E+00 -0.17504753402E+04  0.17504753402E+04  0.00000000000E+00 0. -1.
         23    2    1    2    0    0  0.37456470469E+03  0.94580771744E+02  0.10559895915E+03  0.41223403210E+03  0.97680687252E+02 0.  0.
        254    2    1    2    0    0 -0.37456470469E+03 -0.94580771744E+02 -0.14452855804E+04  0.17490300269E+04  0.90609678611E+03 0.  0.
         23    2    4    4    0    0 -0.44864445653E+03 -0.21984672293E+03 -0.29817691583E+03  0.58906453736E+03  0.92049584944E+02 0.  0.
         23    2    4    4    0    0  0.74079751837E+02  0.12526595118E+03 -0.11471086646E+04  0.11599654896E+04  0.92099296939E+02 0.  0.
         13    1    3    3    0    0  0.37287333367E+03  0.98436869568E+02  0.11458454874E+03  0.40231077423E+03  0.00000000000E+00 0.  1.
        -13    1    3    3    0    0  0.16913710252E+01 -0.38560978231E+01 -0.89855895951E+01  0.99232578692E+01  0.00000000000E+00 0. -1.
          2    1    5    5  502    0 -0.55083942487E+02 -0.35731869566E+02 -0.78028800309E+02  0.10197794321E+03  0.00000000000E+00 0.  1.
          3    1    6    6  503    0  0.54513485439E+02  0.11895250956E+03 -0.11087504413E+04  0.11164447863E+04  0.00000000000E+00 0. -1.
         -2    1    5    5    0  502 -0.39356051404E+03 -0.18411485336E+03 -0.22014811552E+03  0.48708659416E+03  0.00000000000E+00 0. -1.
         -3    1    6    6    0  503  0.19566266398E+02  0.63134416266E+01 -0.38358223239E+02  0.43520703303E+02  0.00000000000E+00 0.  1.
<mgrwt>
<rscale>  0 0.16959664E+04</rscale>
<asrwt>0</asrwt>
<pdfrwt beam="1">  1        1 0.26930390E+00 0.16959664E+04</pdfrwt>
<pdfrwt beam="2">  1       -1 0.63198264E-01 0.16959664E+04</pdfrwt>
<totfact> 0.10643166E+01</totfact>
</mgrwt>
</event>
<event>
12    1  0.4820219E-008  0.2981255E+04  0.7818608E-02  0.8249104E-01
         -2   -1    0    0    0  501 -0.00000000000E+00  0.00000000000E+00  0.64404110775E+03  0.64404110775E+03  0.00000000000E+00 0.  1.
          2   -1    0    0  501    0  0.00000000000E+00 -0.00000000000E+00 -0.34500438210E+04  0.34500438210E+04  0.00000000000E+00 0. -1.
         23    2    1    2    0    0 -0.13391592414E+04 -0.17142977330E+03 -0.14000050185E+04  0.19467196713E+04  0.83473263189E+02 0.  0.
        254    2    1    2    0    0  0.13391592414E+04  0.17142977330E+03 -0.14059976947E+04  0.21473652574E+04  0.90089532704E+03 0.  0.
         23    2    4    4    0    0  0.64608262647E+03  0.50715013411E+03 -0.55279208594E+03  0.99445733527E+03  0.93500174550E+02 0.  0.
         23    2    4    4    0    0  0.69307661495E+03 -0.33572036080E+03 -0.85320560878E+03  0.11529079222E+04  0.90407473802E+02 0.  0.
         13    1    3    3    0    0 -0.13269113805E+04 -0.17274855580E+03 -0.13960624928E+04  0.19337854997E+04  0.00000000000E+00 0. -1.
        -13    1    3    3    0    0 -0.12247860913E+02  0.13187824914E+01 -0.39425256989E+01  0.12934171527E+02  0.00000000000E+00 0.  1.
          1    1    5    5  502    0  0.34854249860E+03  0.25120925527E+03 -0.34079033505E+03  0.54838491567E+03  0.00000000000E+00 0. -1.
          3    1    6    6  503    0  0.42824877091E+03 -0.25461544575E+03 -0.53566309890E+03  0.73154698450E+03  0.00000000000E+00 0. -1.
         -1    1    5    5    0  502  0.29754012787E+03  0.25594087884E+03 -0.21200175089E+03  0.44607241960E+03  0.00000000000E+00 0.  1.
         -3    1    6    6    0  503  0.26482784404E+03 -0.81104915053E+02 -0.31754250988E+03  0.42136093768E+03  0.00000000000E+00 0.  1.
<mgrwt>
<rscale>  0 0.29812548E+04</rscale>
<asrwt>0</asrwt>
<pdfrwt beam="1">  1        2 0.53077597E+00 0.29812548E+04</pdfrwt>
<pdfrwt beam="2">  1       -2 0.99083248E-01 0.29812548E+04</pdfrwt>
<totfact> 0.63700172E-01</totfact>
</mgrwt>
</event>
<event>
12    1  0.4820219E-008  0.1375789E+04  0.7818608E-02  0.8971533E-01
          2   -1    0    0  501    0  0.00000000000E+00  0.00000000000E+00  0.10899216085E+04  0.10899216085E+04  0.00000000000E+00 0. -1.
         -2   -1    0    0    0  501 -0.00000000000E+00 -0.00000000000E+00 -0.43415857711E+03  0.43415857711E+03  0.00000000000E+00 0.  1.
         23    2    1    2    0    0  0.15225871793E+03  0.10147214325E+03  0.51854120140E+03  0.55704789298E+03  0.89095816350E+02 0.  0.
        254    2    1    2    0    0 -0.15225871793E+03 -0.10147214325E+03  0.13722182998E+03  0.96703229261E+03  0.93959688766E+03 0.  0.
         23    2    4    4    0    0  0.11056253091E+03  0.28006996276E+02 -0.35703875590E+03  0.38530454478E+03  0.89299798028E+02 0.  0.
         23    2    4    4    0    0 -0.26282124884E+03 -0.12947913952E+03  0.49426058588E+03  0.58172774783E+03  0.90960372841E+02 0.  0.
         11    1    3    3    0    0  0.49808310820E+02  0.12181558502E+02  0.25954995881E+03  0.26456651207E+03  0.00000000000E+00 0.  1.
        -11    1    3    3    0    0  0.10245040711E+03  0.89290584743E+02  0.25899124259E+03  0.29248138091E+03  0.00000000000E+00 0. -1.
          4    1    6    6  502    0 -0.19575739346E+03 -0.64086332850E+02  0.39351983491E+03  0.44416874678E+03  0.00000000000E+00 0. -1.
          4    1    5    5  503    0  0.11453520534E+03  0.45623870541E+02 -0.33402286221E+03  0.35604932707E+03  0.00000000000E+00 0. -1.
         -4    1    5    5    0  503 -0.39726744224E+01 -0.17616874265E+02 -0.23015893690E+02  0.29255217710E+02  0.00000000000E+00 0.  1.
         -4    1    6    6    0  502 -0.67063855381E+02 -0.65392806671E+02  0.10074075098E+03  0.13755900105E+03  0.00000000000E+00 0.  1.
<mgrwt>
<rscale>  0 0.13757890E+04</rscale>
<asrwt>0</asrwt>
<pdfrwt beam="1">  1        2 0.16768025E+00 0.13757890E+04</pdfrwt>
<pdfrwt beam="2">  1       -2 0.66793628E-01 0.13757890E+04</pdfrwt>
<totfact> 0.44365845E+01</totfact>
</mgrwt>
</event>
<event>
12    1  0.4820219E-008  0.1441258E+04  0.7818608E-02  0.8924484E-01
          1   -1    0    0  501    0  0.00000000000E+00  0.00000000000E+00  0.90242064582E+03  0.90242064582E+03  0.00000000000E+00 0. -1.
         -1   -1    0    0    0  501 -0.00000000000E+00 -0.00000000000E+00 -0.57545876078E+03  0.57545876078E+03  0.00000000000E+00 0.  1.
         23    2    1    2    0    0 -0.16583864685E+03 -0.12000952859E+03 -0.28421638643E+03  0.36116512480E+03  0.88071274038E+02 0.  0.
        254    2    1    2    0    0  0.16583864685E+03  0.12000952859E+03  0.61117827147E+03  0.11167142818E+04  0.91192497713E+03 0.  0.
         23    2    4    4    0    0  0.35891450187E+03 -0.18815284189E+03  0.61463871081E+03  0.74161309685E+03  0.89376333754E+02 0.  0.
         23    2    4    4    0    0 -0.19307585502E+03  0.30816237048E+03 -0.34604393373E+01  0.37510118494E+03  0.91905342258E+02 0.  0.
         13    1    3    3    0    0 -0.15462938438E+03 -0.13398999283E+03 -0.26629124001E+03  0.33581928056E+03  0.00000000000E+00 0. -1.
        -13    1    3    3    0    0 -0.11209262478E+02  0.13980464242E+02 -0.17925146421E+02  0.25345844234E+02  0.00000000000E+00 0.  1.
          4    1    5    5  502    0  0.33742281879E+02  0.34572760589E+01  0.82633632443E+02  0.89324193558E+02  0.00000000000E+00 0. -1.
          3    1    6    6  503    0 -0.10399508627E+03  0.10039699230E+03 -0.29564493604E+02  0.14754183581E+03  0.00000000000E+00 0. -1.
         -4    1    5    5    0  502  0.32517221999E+03 -0.19161011795E+03  0.53200507837E+03  0.65228890330E+03  0.00000000000E+00 0.  1.
         -3    1    6    6    0  503 -0.89080768746E+02  0.20776537817E+03  0.26104054267E+02  0.22755934913E+03  0.00000000000E+00 0.  1.
<mgrwt>
<rscale>  0 0.14412576E+04</rscale>
<asrwt>0</asrwt>
<pdfrwt beam="1">  1        1 0.13883395E+00 0.14412576E+04</pdfrwt>
<pdfrwt beam="2">  1       -1 0.88532117E-01 0.14412576E+04</pdfrwt>
<totfact> 0.22057788E+01</totfact>
</mgrwt>
</event>
<event>
12    1  0.4820219E-008  0.2685675E+04  0.7818608E-02  0.8339668E-01
          1   -1    0    0  501    0  0.00000000000E+00  0.00000000000E+00  0.31697282070E+04  0.31697282070E+04  0.00000000000E+00 0. -1.
         -1   -1    0    0    0  501 -0.00000000000E+00 -0.00000000000E+00 -0.56888574449E+03  0.56888574449E+03  0.00000000000E+00 0.  1.
         23    2    1    2    0    0 -0.34278986126E+03  0.10364332828E+04  0.49333002019E+03  0.12013988543E+04  0.91026696613E+02 0.  0.
        254    2    1    2    0    0  0.34278986126E+03 -0.10364332828E+04  0.21075124424E+04  0.25372150973E+04  0.89674573670E+03 0.  0.
         23    2    4    4    0    0  0.25709838627E+03  0.74580419058E+02  0.30608537490E+03  0.41715856402E+03  0.93119233666E+02 0.  0.
         23    2    4    4    0    0  0.85691474991E+02 -0.11110137019E+04  0.18014270675E+04  0.21200565332E+04  0.88350155978E+02 0.  0.
         13    1    3    3    0    0 -0.31730432511E+03  0.95712432827E+03  0.48096724696E+03  0.11171832917E+04  0.00000000000E+00 0.  1.
        -13    1    3    3    0    0 -0.25485536147E+02  0.79308954563E+02  0.12362773234E+02  0.84215562627E+02  0.00000000000E+00 0. -1.
          4    1    5    5  502    0  0.50164003942E+02  0.29000689981E+01  0.11883658445E+03  0.12902314326E+03  0.00000000000E+00 0. -1.
          1    1    6    6  503    0  0.69465566247E+02 -0.91433108554E+03  0.14146745460E+04  0.16858620554E+04  0.00000000000E+00 0. -1.
         -4    1    5    5    0  502  0.20693438233E+03  0.71680350060E+02  0.18724879045E+03  0.28813542076E+03  0.00000000000E+00 0.  1.
         -1    1    6    6    0  503  0.16225908744E+02 -0.19668261635E+03  0.38675252149E+03  0.43419447782E+03  0.00000000000E+00 0.  1.
<mgrwt>
<rscale>  0 0.26856755E+04</rscale>
<asrwt>0</asrwt>
<pdfrwt beam="1">  1        1 0.48765048E+00 0.26856755E+04</pdfrwt>
<pdfrwt beam="2">  1       -1 0.87520886E-01 0.26856755E+04</pdfrwt>
<totfact> 0.50276184E-01</totfact>
</mgrwt>
</event>
<event>
12    1  0.4820219E-008  0.1561303E+04  0.7818608E-02  0.8844680E-01
          1   -1    0    0  501    0  0.00000000000E+00  0.00000000000E+00  0.15561717190E+04  0.15561717190E+04  0.00000000000E+00 0. -1.
         -1   -1    0    0    0  501 -0.00000000000E+00 -0.00000000000E+00 -0.39161287215E+03  0.39161287215E+03  0.00000000000E+00 0.  1.
         23    2    1    2    0    0  0.23952193989E+03 -0.42562992803E+03  0.60555813304E+03  0.78323418720E+03  0.90683759265E+02 0.  0.
        254    2    1    2    0    0 -0.23952193989E+03  0.42562992803E+03  0.55900071378E+03  0.11645504039E+04  0.89730945048E+03 0.  0.
         23    2    4    4    0    0  0.19025100967E+02  0.13216179619E+03  0.71423721043E+03  0.73317740876E+03  0.97906205690E+02 0.  0.
         23    2    4    4    0    0 -0.25854704085E+03  0.29346813183E+03 -0.15523649665E+03  0.43137299515E+03  0.94943005596E+02 0.  0.
         13    1    3    3    0    0  0.24751389044E+03 -0.41741573419E+03  0.59128905385E+03  0.76493252403E+03  0.00000000000E+00 0. -1.
        -13    1    3    3    0    0 -0.79919505571E+01 -0.82141938381E+01  0.14269079183E+02  0.18301663172E+02  0.00000000000E+00 0.  1.
          4    1    5    5  502    0 -0.30730838439E+02  0.86782691503E+01  0.16225440465E+03  0.16536683045E+03  0.00000000000E+00 0.  1.
          1    1    6    6  503    0 -0.19461526153E+03  0.19889630988E+03 -0.15220934315E+03  0.31717901293E+03  0.00000000000E+00 0. -1.
         -4    1    5    5    0  502  0.49755939406E+02  0.12348352704E+03  0.55198280579E+03  0.56781057831E+03  0.00000000000E+00 0. -1.
         -1    1    6    6    0  503 -0.63931779326E+02  0.94571821960E+02 -0.30271535088E+01  0.11419398222E+03  0.00000000000E+00 0.  1.
<mgrwt>
<rscale>  0 0.15613031E+04</rscale>
<asrwt>0</asrwt>
<pdfrwt beam="1">  1        1 0.23941103E+00 0.15613031E+04</pdfrwt>
<pdfrwt beam="2">  1       -1 0.60248135E-01 0.15613031E+04</pdfrwt>
<totfact> 0.16083972E+01</totfact>
</mgrwt>
</event>
<event>
12    1  0.4820219E-008  0.2320038E+04  0.7818608E-02  0.8470062E-01
         -2   -1    0    0    0  501 -0.00000000000E+00  0.00000000000E+00  0.31352906876E+04  0.31352906876E+04  0.00000000000E+00 0. -1.
          2   -1    0    0  501    0  0.00000000000E+00 -0.00000000000E+00 -0.42919290499E+03  0.42919290499E+03  0.00000000000E+00 0.  1.
         23    2    1    2    0    0 -0.64472623225E+03  0.32221177042E+03  0.12542941907E+03  0.73730597271E+03  0.91625425951E+02 0.  0.
        254    2    1    2    0    0  0.64472623225E+03 -0.32221177042E+03  0.25806683636E+04  0.28271776199E+04  0.90199321073E+03 0.  0.
         23    2    4    4    0    0 -0.10036162856E+02  0.18135389140E+03  0.13520738512E+03  0.24448167689E+03  0.92197043631E+02 0.  0.
         23    2    4    4    0    0  0.65476239510E+03 -0.50356566182E+03  0.24454609785E+04  0.25826959430E+04  0.88015720831E+02 0.  0.
         13    1    3    3    0    0 -0.12238089732E+03  0.80419836917E+02  0.59053340958E+02  0.15789785077E+03  0.00000000000E+00 0. -1.
        -13    1    3    3    0    0 -0.52234533493E+03  0.24179193351E+03  0.66376078111E+02  0.57940812195E+03  0.00000000000E+00 0.  1.
          3    1    6    6  502    0  0.45165883653E+03 -0.29469159218E+03  0.16012496470E+04  0.16896269621E+04  0.00000000000E+00 0. -1.
          3    1    5    5  503    0 -0.46023519570E+02  0.66630042294E+02  0.73378762913E+02  0.10928023488E+03  0.00000000000E+00 0. -1.
         -3    1    5    5    0  503  0.35987356714E+02  0.11472384910E+03  0.61828622204E+02  0.13520144201E+03  0.00000000000E+00 0.  1.
         -3    1    6    6    0  502  0.20310355858E+03 -0.20887406965E+03  0.84421133152E+03  0.89306898095E+03  0.00000000000E+00 0.  1.
<mgrwt>
<rscale>  0 0.23200384E+04</rscale>
<asrwt>0</asrwt>
<pdfrwt beam="1">  1        2 0.66029680E-01 0.23200384E+04</pdfrwt>
<pdfrwt beam="2">  1       -2 0.48235240E+00 0.23200384E+04</pdfrwt>
<totfact> 0.14137360E-01</totfact>
</mgrwt>
</event>
<event>
12    1  0.4820219E-008  0.2570756E+04  0.7818608E-02  0.8378203E-01
          2   -1    0    0  501    0  0.00000000000E+00  0.00000000000E+00  0.34446418363E+04  0.34446418363E+04  0.00000000000E+00 0. -1.
         -2   -1    0    0    0  501 -0.00000000000E+00 -0.00000000000E+00 -0.47964266898E+03  0.47964266898E+03  0.00000000000E+00 0.  1.
         23    2    1    2    0    0 -0.70023991702E+03 -0.63020579714E+03  0.36241293903E+03  0.10132569248E+04  0.88606823538E+02 0.  0.
        254    2    1    2    0    0  0.70023991702E+03  0.63020579714E+03  0.26025862283E+04  0.29110275805E+04  0.90173788339E+03 0.  0.
         23    2    4    4    0    0 -0.30554208749E+02 -0.18268437722E+03  0.35752252646E+03  0.41212009501E+03  0.87826388038E+02 0.  0.
         23    2    4    4    0    0  0.73079412577E+03  0.81289017437E+03  0.22450637019E+04  0.24989074855E+04  0.96835456640E+02 0.  0.
         11    1    3    3    0    0 -0.49306589584E+02 -0.55330978584E+02  0.53905343876E+02  0.91643019734E+02  0.00000000000E+00 0. -1.
        -11    1    3    3    0    0 -0.65093332744E+03 -0.57487481856E+03  0.30850759516E+03  0.92161390509E+03  0.00000000000E+00 0.  1.
          4    1    5    5  502    0 -0.10123541993E+02 -0.12199096512E+03  0.30714748519E+03  0.33064158742E+03  0.00000000000E+00 0. -1.
          1    1    6    6  503    0  0.58560019877E+03  0.65341678300E+03  0.18847234346E+04  0.20789573132E+04  0.00000000000E+00 0. -1.
         -4    1    5    5    0  502 -0.20430666757E+02 -0.60693412107E+02  0.50375041271E+02  0.81478507598E+02  0.00000000000E+00 0.  1.
         -1    1    6    6    0  503  0.14519392700E+03  0.15947339137E+03  0.36034026728E+03  0.41995017230E+03  0.00000000000E+00 0.  1.
<mgrwt>
<rscale>  0 0.25707565E+04</rscale>
<asrwt>0</asrwt>
<pdfrwt beam="1">  1        2 0.52994488E+00 0.25707565E+04</pdfrwt>
<pdfrwt beam="2">  1       -2 0.73791182E-01 0.25707565E+04</pdfrwt>
<totfact> 0.13049108E+00</totfact>
</mgrwt>
</event>
<event>
12    1  0.4820219E-008  0.2475292E+04  0.7818608E-02  0.8411841E-01
         -2   -1    0    0    0  501 -0.00000000000E+00  0.00000000000E+00  0.82274487929E+03  0.82274487929E+03  0.00000000000E+00 0. -1.
          2   -1    0    0  501    0  0.00000000000E+00 -0.00000000000E+00 -0.18617769790E+04  0.18617769790E+04  0.00000000000E+00 0.  1.
         23    2    1    2    0    0 -0.96066316330E+03  0.17299383073E+03  0.22574458784E+02  0.98076419281E+03  0.92672633062E+02 0.  0.
        254    2    1    2    0    0  0.96066316330E+03 -0.17299383073E+03 -0.10616065585E+04  0.17037576655E+04  0.90718306800E+03 0.  0.
         23    2    4    4    0    0  0.27619201498E+03  0.10101603219E+03  0.10125432000E+03  0.32382295135E+03  0.90125460359E+02 0.  0.
         23    2    4    4    0    0  0.68447114832E+03 -0.27400986292E+03 -0.11628608785E+04  0.13799347141E+04  0.91609140798E+02 0.  0.
         13    1    3    3    0    0 -0.94528200493E+03  0.15771065972E+03  0.26569545290E+02  0.95871615287E+03  0.00000000000E+00 0. -1.
        -13    1    3    3    0    0 -0.15381158370E+02  0.15283171019E+02 -0.39950865064E+01  0.22048039944E+02  0.00000000000E+00 0.  1.
          1    1    5    5  502    0  0.52958193841E+01  0.15622753712E+02  0.24610163262E+02  0.29627289317E+02  0.00000000000E+00 0. -1.
          3    1    6    6  503    0  0.51303442338E+03 -0.17193866885E+03 -0.79921234919E+03  0.96514641610E+03  0.00000000000E+00 0. -1.
         -1    1    5    5    0  502  0.27089619559E+03  0.85393278476E+02  0.76644156737E+02  0.29419566203E+03  0.00000000000E+00 0.  1.
         -3    1    6    6    0  503  0.17143672494E+03 -0.10207119407E+03 -0.36364852932E+03  0.41478829804E+03  0.00000000000E+00 0.  1.
<mgrwt>
<rscale>  0 0.24752919E+04</rscale>
<asrwt>0</asrwt>
<pdfrwt beam="1">  1        2 0.28642722E+00 0.24752919E+04</pdfrwt>
<pdfrwt beam="2">  1       -2 0.12657614E+00 0.24752919E+04</pdfrwt>
<totfact> 0.33110123E+00</totfact>
</mgrwt>
</event>
<event>
12    1  0.4820219E-008  0.1135878E+04  0.7818608E-02  0.9170912E-01
         -2   -1    0    0    0  501 -0.00000000000E+00  0.00000000000E+00  0.16618308615E+03  0.16618308615E+03  0.00000000000E+00 0.  1.
          2   -1    0    0  501    0  0.00000000000E+00 -0.00000000000E+00 -0.19409590673E+04  0.19409590673E+04  0.00000000000E+00 0. -1.
         23    2    1    2    0    0  0.12410256387E+03 -0.75517368788E+01 -0.61369903784E+03  0.63237114016E+03  0.88364442881E+02 0.  0.
        254    2    1    2    0    0 -0.12410256387E+03  0.75517368788E+01 -0.11610769433E+04  0.14747710133E+04  0.90077266737E+03 0.  0.
         23    2    4    4    0    0 -0.11620669295E+03 -0.87009912918E+02  0.10614481381E+03  0.20077603032E+03  0.89272461719E+02 0.  0.
         23    2    4    4    0    0 -0.78958709216E+01  0.94561649797E+02 -0.12672217571E+04  0.12739949830E+04  0.90597927736E+02 0.  0.
         11    1    3    3    0    0  0.12110664236E+02 -0.96751803074E+01 -0.10178407467E+02  0.18543928407E+02  0.00000000000E+00 0.  1.
        -11    1    3    3    0    0  0.11199189964E+03  0.21234434286E+01 -0.60352063037E+03  0.61382721175E+03  0.00000000000E+00 0. -1.
          2    1    5    5  502    0 -0.56894261023E+02 -0.82027727339E+01  0.80405261040E+02  0.98839508400E+02  0.00000000000E+00 0. -1.
          1    1    6    6  503    0  0.38456199827E+02  0.19994894753E+02 -0.43593920749E+03  0.43808865284E+03  0.00000000000E+00 0. -1.
         -2    1    5    5    0  502 -0.59312431928E+02 -0.78807140184E+02  0.25739552771E+02  0.10193652192E+03  0.00000000000E+00 0.  1.
         -1    1    6    6    0  503 -0.46352070748E+02  0.74566755043E+02 -0.83128254965E+03  0.83590633014E+03  0.00000000000E+00 0.  1.
<mgrwt>
<rscale>  0 0.11358778E+04</rscale>
<asrwt>0</asrwt>
<pdfrwt beam="1">  1        2 0.29860906E+00 0.11358778E+04</pdfrwt>
<pdfrwt beam="2">  1       -2 0.25566631E-01 0.11358778E+04</pdfrwt>
<totfact> 0.98460981E+01</totfact>
</mgrwt>
</event>
<event>
12    1  0.4820219E-008  0.1974852E+04  0.7818608E-02  0.8618469E-01
          2   -1    0    0  501    0  0.00000000000E+00  0.00000000000E+00  0.65538927045E+03  0.65538927045E+03  0.00000000000E+00 0. -1.
         -2   -1    0    0    0  501 -0.00000000000E+00 -0.00000000000E+00 -0.14876809806E+04  0.14876809806E+04  0.00000000000E+00 0.  1.
         23    2    1    2    0    0  0.80023619731E+03  0.23684832224E+03 -0.41382469627E+03  0.93574577497E+03  0.88849180639E+02 0.  0.
        254    2    1    2    0    0 -0.80023619731E+03 -0.23684832224E+03 -0.41846701388E+03  0.12073244761E+04  0.76553422497E+03 0.  0.
         23    2    4    4    0    0 -0.34026406715E+03 -0.21685042103E+03  0.17601368702E+03  0.44985145684E+03  0.92637868634E+02 0.  0.
         23    2    4    4    0    0 -0.45997213015E+03 -0.19997901203E+02 -0.59448070091E+03  0.75747301923E+03  0.91563063214E+02 0.  0.
         13    1    3    3    0    0  0.25827428875E+02  0.21307821166E+02 -0.30041822349E+02  0.44984335220E+02  0.00000000000E+00 0.  1.
        -13    1    3    3    0    0  0.77440876843E+03  0.21554050107E+03 -0.38378287392E+03  0.89076143975E+03  0.00000000000E+00 0. -1.
          3    1    5    5  502    0 -0.44446999516E+02 -0.70003208921E+02  0.24282797022E+02  0.86403930793E+02  0.00000000000E+00 0. -1.
          3    1    6    6  503    0 -0.10255836028E+03 -0.10510550435E+02 -0.77845363309E+02  0.12918432383E+03  0.00000000000E+00 0. -1.
         -3    1    5    5    0  502 -0.29581706764E+03 -0.14684721211E+03  0.15173089000E+03  0.36344752605E+03  0.00000000000E+00 0.  1.
         -3    1    6    6    0  503 -0.35741376987E+03 -0.94873507678E+01 -0.51663533760E+03  0.62828869540E+03  0.00000000000E+00 0.  1.
<mgrwt>
<rscale>  0 0.19748520E+04</rscale>
<asrwt>0</asrwt>
<pdfrwt beam="1">  1        2 0.10082912E+00 0.19748520E+04</pdfrwt>
<pdfrwt beam="2">  1       -2 0.22887399E+00 0.19748520E+04</pdfrwt>
<totfact> 0.35985886E+00</totfact>
</mgrwt>
</event>
<event>
12    1  0.4820219E-008  0.1983560E+04  0.7818608E-02  0.8614346E-01
         -1   -1    0    0    0  501 -0.00000000000E+00  0.00000000000E+00  0.45026573958E+03  0.45026573958E+03  0.00000000000E+00 0.  1.
          1   -1    0    0  501    0  0.00000000000E+00 -0.00000000000E+00 -0.21845490944E+04  0.21845490944E+04  0.00000000000E+00 0. -1.
         23    2    1    2    0    0 -0.25057468131E+03  0.39523462309E+03 -0.15348391150E+04  0.16071624077E+04  0.90784457482E+02 0.  0.
        254    2    1    2    0    0  0.25057468131E+03 -0.39523462309E+03 -0.19944423983E+03  0.10276524262E+04  0.89291288833E+03 0.  0.
         23    2    4    4    0    0  0.50951627752E+03 -0.49187311132E+03 -0.12188278401E+03  0.72434283766E+03  0.90945801052E+02 0.  0.
         23    2    4    4    0    0 -0.25894159621E+03  0.96638488227E+02 -0.77561455818E+02  0.30330958858E+03  0.97934567162E+02 0.  0.
         11    1    3    3    0    0 -0.19932548375E+03  0.28738073333E+03 -0.10076656434E+04  0.10666341375E+04  0.00000000000E+00 0. -1.
        -11    1    3    3    0    0 -0.51249197562E+02  0.10785388976E+03 -0.52717347157E+03  0.54052827023E+03  0.00000000000E+00 0.  1.
          2    1    5    5  502    0  0.27312854049E+03 -0.22654317623E+03 -0.98231336922E+02  0.36819886730E+03  0.00000000000E+00 0. -1.
          3    1    6    6  503    0 -0.44853468782E+01  0.29798854293E+02 -0.83189573638E+01  0.31261719489E+02  0.00000000000E+00 0. -1.
         -2    1    5    5    0  502  0.23638773703E+03 -0.26532993509E+03 -0.23651447086E+02  0.35614397035E+03  0.00000000000E+00 0.  1.
         -3    1    6    6    0  503 -0.25445624933E+03  0.66839633935E+02 -0.69242498454E+02  0.27204786910E+03  0.00000000000E+00 0.  1.
<mgrwt>
<rscale>  0 0.19835600E+04</rscale>
<asrwt>0</asrwt>
<pdfrwt beam="1">  1        1 0.33608447E+00 0.19835600E+04</pdfrwt>
<pdfrwt beam="2">  1       -1 0.69271653E-01 0.19835600E+04</pdfrwt>
<totfact> 0.43713300E+00</totfact>
</mgrwt>
</event>
<event>
12    1  0.4820219E-008  0.2980438E+04  0.7818608E-02  0.8249339E-01
         -2   -1    0    0    0  501 -0.00000000000E+00  0.00000000000E+00  0.13604038052E+04  0.13604038052E+04  0.00000000000E+00 0.  1.
          2   -1    0    0  501    0  0.00000000000E+00 -0.00000000000E+00 -0.16324215885E+04  0.16324215885E+04  0.00000000000E+00 0. -1.
         23    2    1    2    0    0  0.57855225222E+03 -0.90726132898E+03 -0.95044585977E+03  0.14387204458E+04  0.93398935084E+02 0.  0.
        254    2    1    2    0    0 -0.57855225222E+03  0.90726132898E+03  0.67842807649E+03  0.15541049480E+04  0.89282232652E+03 0.  0.
         23    2    4    4    0    0 -0.93997470940E+02  0.84327511797E+03  0.22796443518E+03  0.88333397724E+03  0.91447703608E+02 0.  0.
         23    2    4    4    0    0 -0.48455478128E+03  0.63986211008E+02  0.45046364131E+03  0.67077097074E+03  0.90158925136E+02 0.  0.
         11    1    3    3    0    0  0.87516354738E+02 -0.88811926823E+02 -0.12967826193E+03  0.17989753280E+03  0.00000000000E+00 0.  1.
        -11    1    3    3    0    0  0.49103589748E+03 -0.81844940216E+03 -0.82076759784E+03  0.12588229130E+04  0.00000000000E+00 0. -1.
          1    1    5    5  502    0 -0.27392625010E+02  0.40021168584E+03  0.63939484795E+02  0.40621177617E+03  0.00000000000E+00 0. -1.
          3    1    6    6  503    0 -0.44063263312E+03  0.75653547372E+02  0.43207250565E+03  0.62174530697E+03  0.00000000000E+00 0. -1.
         -1    1    5    5    0  502 -0.66604845930E+02  0.44306343214E+03  0.16402495039E+03  0.47712220107E+03  0.00000000000E+00 0.  1.
         -3    1    6    6    0  503 -0.43922148165E+02 -0.11667336365E+02  0.18391135657E+02  0.49025663769E+02  0.00000000000E+00 0.  1.
<mgrwt>
<rscale>  0 0.29804379E+04</rscale>
<asrwt>0</asrwt>
<pdfrwt beam="1">  1        2 0.25114178E+00 0.29804379E+04</pdfrwt>
<pdfrwt beam="2">  1       -2 0.20929289E+00 0.29804379E+04</pdfrwt>
<totfact> 0.10612889E+00</totfact>
</mgrwt>
</event>
<event>
12    1  0.4820219E-008  0.1803922E+04  0.7818608E-02  0.8704216E-01
          2   -1    0    0  501    0  0.00000000000E+00  0.00000000000E+00  0.20019011070E+04  0.20019011070E+04  0.00000000000E+00 0.  1.
         -2   -1    0    0    0  501 -0.00000000000E+00 -0.00000000000E+00 -0.40638071120E+03  0.40638071120E+03  0.00000000000E+00 0. -1.
         23    2    1    2    0    0  0.37825597785E+03  0.42956786820E+03  0.11036114667E+04  0.12465546921E+04  0.91291800249E+02 0.  0.
        254    2    1    2    0    0 -0.37825597785E+03 -0.42956786820E+03  0.49190892905E+03  0.11617271261E+04  0.88319272120E+03 0.  0.
         23    2    4    4    0    0  0.10493730932E+03 -0.27243404559E+03  0.56322451765E+03  0.64126211994E+03  0.93611436829E+02 0.  0.
         23    2    4    4    0    0 -0.48319328717E+03 -0.15713382260E+03 -0.71315588601E+02  0.52046500612E+03  0.87356273082E+02 0.  0.
         11    1    3    3    0    0  0.32729544544E+03  0.31944421231E+03  0.84270353190E+03  0.95880976010E+03  0.00000000000E+00 0. -1.
        -11    1    3    3    0    0  0.50960532410E+02  0.11012365588E+03  0.26090793480E+03  0.28774493200E+03  0.00000000000E+00 0.  1.
          2    1    5    5  502    0 -0.16977069625E+02 -0.19896327588E+02  0.46936850502E+02  0.53732231291E+02  0.00000000000E+00 0. -1.
          1    1    6    6  503    0 -0.85623078656E+02  0.45194716834E+01 -0.22997327680E+01  0.85773107637E+02  0.00000000000E+00 0. -1.
         -2    1    5    5    0  502  0.12191437894E+03 -0.25253771801E+03  0.51628766715E+03  0.58752988865E+03  0.00000000000E+00 0.  1.
         -1    1    6    6    0  503 -0.39757020851E+03 -0.16165329428E+03 -0.69015855834E+02  0.43469189848E+03  0.00000000000E+00 0.  1.
<mgrwt>
<rscale>  0 0.18039224E+04</rscale>
<asrwt>0</asrwt>
<pdfrwt beam="1">  1        2 0.30798478E+00 0.18039224E+04</pdfrwt>
<pdfrwt beam="2">  1       -2 0.62520111E-01 0.18039224E+04</pdfrwt>
<totfact> 0.14926669E+01</totfact>
</mgrwt>
</event>
<event>
12    1  0.4820219E-008  0.2505475E+04  0.7818608E-02  0.8401038E-01
          2   -1    0    0  501    0  0.00000000000E+00  0.00000000000E+00  0.23141186275E+04  0.23141186275E+04  0.00000000000E+00 0. -1.
         -2   -1    0    0    0  501 -0.00000000000E+00 -0.00000000000E+00 -0.67816380622E+03  0.67816380622E+03  0.00000000000E+00 0.  1.
         23    2    1    2    0    0  0.79888677021E+03 -0.22501445669E+03  0.15561330765E+04  0.17660375161E+04  0.92123716712E+02 0.  0.
        254    2    1    2    0    0 -0.79888677021E+03  0.22501445669E+03  0.79821744803E+02  0.12262449176E+04  0.89914042828E+03 0.  0.
         23    2    4    4    0    0 -0.22447008438E+03 -0.21276035208E+03  0.32502906160E+03  0.45773096652E+03  0.90663998500E+02 0.  0.
         23    2    4    4    0    0 -0.57441668583E+03  0.43777480877E+03 -0.24520731680E+03  0.76851395112E+03  0.94264270559E+02 0.  0.
         11    1    3    3    0    0  0.22300935265E+03 -0.56860735139E+02  0.52208385827E+03  0.57055926041E+03  0.00000000000E+00 0.  1.
        -11    1    3    3    0    0  0.57587741756E+03 -0.16815372155E+03  0.10340492182E+04  0.11954782557E+04  0.00000000000E+00 0. -1.
          4    1    5    5  502    0  0.45133442841E+01 -0.88328734459E+01  0.32374919365E+02  0.33860380002E+02  0.00000000000E+00 0. -1.
          1    1    6    6  503    0 -0.10884094827E+03  0.48991391389E+02 -0.17562006806E+02  0.12064382510E+03  0.00000000000E+00 0. -1.
         -4    1    5    5    0  502 -0.22898342866E+03 -0.20392747864E+03  0.29265414224E+03  0.42387058651E+03  0.00000000000E+00 0.  1.
         -1    1    6    6    0  503 -0.46557573755E+03  0.38878341739E+03 -0.22764530999E+03  0.64787012602E+03  0.00000000000E+00 0.  1.
<mgrwt>
<rscale>  0 0.25054752E+04</rscale>
<asrwt>0</asrwt>
<pdfrwt beam="1">  1        2 0.35601825E+00 0.25054752E+04</pdfrwt>
<pdfrwt beam="2">  1       -2 0.10433289E+00 0.25054752E+04</pdfrwt>
<totfact> 0.29610540E+00</totfact>
</mgrwt>
</event>
<event>
12    1  0.4820219E-008  0.1640371E+04  0.7818608E-02  0.8796123E-01
          1   -1    0    0  501    0  0.00000000000E+00  0.00000000000E+00  0.29805605662E+04  0.29805605662E+04  0.00000000000E+00 0. -1.
         -1   -1    0    0    0  501 -0.00000000000E+00 -0.00000000000E+00 -0.22569718712E+03  0.22569718712E+03  0.00000000000E+00 0.  1.
         23    2    1    2    0    0 -0.48893281229E+03  0.21406347678E+03  0.60101978717E+03  0.80878481807E+03  0.89608204636E+02 0.  0.
        254    2    1    2    0    0  0.48893281229E+03 -0.21406347678E+03  0.21538435919E+04  0.23974729353E+04  0.90772010547E+03 0.  0.
         23    2    4    4    0    0  0.58176578142E+03  0.19472044601E+03  0.11706622917E+04  0.13247819681E+04  0.90717061818E+02 0.  0.
         23    2    4    4    0    0 -0.92832969127E+02 -0.40878392279E+03  0.98318130020E+03  0.10726909671E+04  0.91094380891E+02 0.  0.
         11    1    3    3    0    0 -0.25113835562E+02  0.44097387209E+01  0.63893296872E+02  0.68793196738E+02  0.00000000000E+00 0. -1.
        -11    1    3    3    0    0 -0.46381897673E+03  0.20965373806E+03  0.53712649030E+03  0.73999162133E+03  0.00000000000E+00 0.  1.
          2    1    5    5  502    0  0.10308768078E+03  0.56414783014E+01  0.24058579229E+03  0.26180225297E+03  0.00000000000E+00 0. -1.
          3    1    6    6  503    0 -0.56224649759E+02 -0.14912960250E+03  0.27960712195E+03  0.32184001030E+03  0.00000000000E+00 0. -1.
         -2    1    5    5    0  502  0.47867810064E+03  0.18907896771E+03  0.93007649943E+03  0.10629797152E+04  0.00000000000E+00 0.  1.
         -3    1    6    6    0  503 -0.36608319369E+02 -0.25965432030E+03  0.70357417824E+03  0.75085095684E+03  0.00000000000E+00 0.  1.
<mgrwt>
<rscale>  0 0.16403709E+04</rscale>
<asrwt>0</asrwt>
<pdfrwt beam="1">  1        1 0.45854775E+00 0.16403709E+04</pdfrwt>
<pdfrwt beam="2">  1       -1 0.34722646E-01 0.16403709E+04</pdfrwt>
<totfact> 0.46697178E+00</totfact>
</mgrwt>
</event>
<event>
12    1  0.4820219E-008  0.1610249E+04  0.7818608E-02  0.8814276E-01
         -1   -1    0    0    0  501 -0.00000000000E+00  0.00000000000E+00  0.46884029499E+03  0.46884029499E+03  0.00000000000E+00 0.  1.
          1   -1    0    0  501    0  0.00000000000E+00 -0.00000000000E+00 -0.13826151240E+04  0.13826151240E+04  0.00000000000E+00 0. -1.
         23    2    1    2    0    0 -0.32558864739E+03 -0.29101202095E+03 -0.70672076491E+03  0.83579906877E+03  0.91705398790E+02 0.  0.
        254    2    1    2    0    0  0.32558864739E+03  0.29101202095E+03 -0.20705406414E+03  0.10156563503E+04  0.89330312476E+03 0.  0.
         23    2    4    4    0    0 -0.53352719910E+02 -0.27873917659E+03 -0.67146688499E+01  0.29666269144E+03  0.86148850399E+02 0.  0.
         23    2    4    4    0    0  0.37894136730E+03  0.56975119753E+03 -0.20033939529E+03  0.71899365882E+03  0.92752472664E+02 0.  0.
         11    1    3    3    0    0 -0.13703346790E+03 -0.13859980651E+03 -0.39883126974E+03  0.44390816552E+03  0.00000000000E+00 0.  1.
        -11    1    3    3    0    0 -0.18855517949E+03 -0.15241221443E+03 -0.30788949517E+03  0.39189090326E+03  0.00000000000E+00 0. -1.
          2    1    5    5  502    0 -0.73208003820E+02 -0.15838329537E+03 -0.81036505340E+01  0.17467211920E+03  0.00000000000E+00 0. -1.
          3    1    6    6  503    0  0.45113907529E+02  0.31165011924E+02 -0.31486407363E+02  0.63229079302E+02  0.00000000000E+00 0. -1.
         -2    1    5    5    0  502  0.19855283910E+02 -0.12035588122E+03  0.13889816841E+01  0.12199057223E+03  0.00000000000E+00 0.  1.
         -3    1    6    6    0  503  0.33382745977E+03  0.53858618561E+03 -0.16885298793E+03  0.65576457952E+03  0.00000000000E+00 0.  1.
<mgrwt>
<rscale>  0 0.16102493E+04</rscale>
<asrwt>0</asrwt>
<pdfrwt beam="1">  1        1 0.21271002E+00 0.16102493E+04</pdfrwt>
<pdfrwt beam="2">  1       -1 0.72129276E-01 0.16102493E+04</pdfrwt>
<totfact> 0.14693403E+01</totfact>
</mgrwt>
</event>
<event>
12    1  0.4820219E-008  0.1316782E+04  0.7818608E-02  0.9016362E-01
         -2   -1    0    0    0  501 -0.00000000000E+00  0.00000000000E+00  0.19016151886E+03  0.19016151886E+03  0.00000000000E+00 0.  1.
          2   -1    0    0  501    0  0.00000000000E+00 -0.00000000000E+00 -0.22795289827E+04  0.22795289827E+04  0.00000000000E+00 0. -1.
         23    2    1    2    0    0 -0.11803658396E+03 -0.23974060067E+03 -0.97883394043E+03  0.10185978400E+04  0.89540415533E+02 0.  0.
        254    2    1    2    0    0  0.11803658396E+03  0.23974060067E+03 -0.11105335234E+04  0.14510926615E+04  0.89497319230E+03 0.  0.
         23    2    4    4    0    0  0.16237800770E+03 -0.24047207879E+03 -0.83393920653E+03  0.88763141105E+03  0.90782617441E+02 0.  0.
         23    2    4    4    0    0 -0.44341423745E+02  0.48021267946E+03 -0.27659431684E+03  0.56346125044E+03  0.91726687874E+02 0.  0.
         11    1    3    3    0    0  0.15209227893E+01  0.72517099779E+01 -0.27077782527E+02  0.28073240111E+02  0.00000000000E+00 0.  1.
        -11    1    3    3    0    0 -0.11955750675E+03 -0.24699231065E+03 -0.95175615790E+03  0.99052459992E+03  0.00000000000E+00 0. -1.
          4    1    5    5  502    0  0.75110013762E+02 -0.17725867311E+03 -0.59858704269E+03  0.62878342777E+03  0.00000000000E+00 0. -1.
          4    1    6    6  503    0 -0.45540995490E+02  0.48407536155E+03 -0.27124706703E+03  0.55675659789E+03  0.00000000000E+00 0. -1.
         -4    1    5    5    0  502  0.87267993941E+02 -0.63213405680E+02 -0.23535216384E+03  0.25884798328E+03  0.00000000000E+00 0.  1.
         -4    1    6    6    0  503  0.11995717453E+01 -0.38626820864E+01 -0.53472498075E+01  0.67046525471E+01  0.00000000000E+00 0.  1.
<mgrwt>
<rscale>  0 0.13167820E+04</rscale>
<asrwt>0</asrwt>
<pdfrwt beam="1">  1        2 0.35069676E+00 0.13167820E+04</pdfrwt>
<pdfrwt beam="2">  1       -2 0.29255619E-01 0.13167820E+04</pdfrwt>
<totfact> 0.49118049E+01</totfact>
</mgrwt>
</event>
<event>
12    1  0.4820219E-008  0.1650032E+04  0.7818608E-02  0.8790388E-01
          3   -1    0    0  501    0  0.00000000000E+00  0.00000000000E+00  0.34177445913E+03  0.34177445913E+03  0.00000000000E+00 0. -1.
         -3   -1    0    0    0  501 -0.00000000000E+00 -0.00000000000E+00 -0.19915210165E+04  0.19915210165E+04  0.00000000000E+00 0.  1.
         23    2    1    2    0    0 -0.38564516780E+03 -0.35357369804E+03 -0.24350573469E+03  0.58458923789E+03  0.93343338488E+02 0.  0.
        254    2    1    2    0    0  0.38564516780E+03  0.35357369804E+03 -0.14062408227E+04  0.17487062377E+04  0.89817798855E+03 0.  0.
         23    2    4    4    0    0 -0.49301399479E+01  0.38109509064E+03 -0.12633027426E+04  0.13227557868E+04  0.92148127854E+02 0.  0.
         23    2    4    4    0    0  0.39057530775E+03 -0.27521392601E+02 -0.14293808004E+03  0.42595045097E+03  0.87726813917E+02 0.  0.
         13    1    3    3    0    0 -0.12524963078E+01  0.30349500438E+01  0.36612820217E+01  0.49177896266E+01  0.00000000000E+00 0.  1.
        -13    1    3    3    0    0 -0.38439267149E+03 -0.35660864808E+03 -0.24716701671E+03  0.57967144826E+03  0.00000000000E+00 0. -1.
          3    1    5    5  502    0 -0.12241198490E+02  0.28514765026E+02 -0.20265419107E+03  0.20501624307E+03  0.00000000000E+00 0. -1.
          3    1    6    6  503    0  0.77316632353E+02  0.19258389709E+02 -0.31470433586E+01  0.79741150572E+02  0.00000000000E+00 0. -1.
         -3    1    5    5    0  502  0.73110585421E+01  0.35258032561E+03 -0.10606485516E+04  0.11177395437E+04  0.00000000000E+00 0.  1.
         -3    1    6    6    0  503  0.31325867540E+03 -0.46779782311E+02 -0.13979103668E+03  0.34620930040E+03  0.00000000000E+00 0.  1.
<mgrwt>
<rscale>  0 0.16500315E+04</rscale>
<asrwt>0</asrwt>
<pdfrwt beam="1">  1        3 0.52580687E-01 0.16500315E+04</pdfrwt>
<pdfrwt beam="2">  1       -3 0.30638784E+00 0.16500315E+04</pdfrwt>
<totfact> 0.31416914E-01</totfact>
</mgrwt>
</event>
<event>
12    1  0.4820219E-008  0.1250469E+04  0.7818608E-02  0.9069793E-01
          2   -1    0    0  501    0  0.00000000000E+00  0.00000000000E+00  0.54661645884E+03  0.54661645884E+03  0.00000000000E+00 0. -1.
         -2   -1    0    0    0  501 -0.00000000000E+00 -0.00000000000E+00 -0.71515958083E+03  0.71515958083E+03  0.00000000000E+00 0.  1.
         23    2    1    2    0    0 -0.22233352178E+03  0.16369023339E+03  0.81367487623E+02  0.30210267239E+03  0.91753306239E+02 0.  0.
        254    2    1    2    0    0  0.22233352178E+03 -0.16369023339E+03 -0.24991060961E+03  0.95967336729E+03  0.88447214296E+03 0.  0.
         23    2    4    4    0    0  0.37976281386E+03 -0.15249114982E+03 -0.49841477174E+03  0.65125164379E+03  0.90763832455E+02 0.  0.
         23    2    4    4    0    0 -0.15742929208E+03 -0.11199083573E+02  0.24850416213E+03  0.30842172350E+03  0.91979559984E+02 0.  0.
         13    1    3    3    0    0 -0.42266427807E+02  0.20858337606E+02  0.52348770460E+02  0.70440861266E+02  0.00000000000E+00 0. -1.
        -13    1    3    3    0    0 -0.18006709398E+03  0.14283189578E+03  0.29018717163E+02  0.23166181112E+03  0.00000000000E+00 0.  1.
          4    1    5    5  502    0  0.56382041118E+02  0.63187758993E+01 -0.92522160079E+02  0.10853207634E+03  0.00000000000E+00 0. -1.
          3    1    6    6  503    0 -0.20323253538E+02  0.23408267949E+02  0.93985237957E+02  0.98965683934E+02  0.00000000000E+00 0. -1.
         -4    1    5    5    0  502  0.32338077275E+03 -0.15880992571E+03 -0.40589261166E+03  0.54271956744E+03  0.00000000000E+00 0.  1.
         -3    1    6    6    0  503 -0.13710603854E+03 -0.34607351522E+02  0.15451892417E+03  0.20945603957E+03  0.00000000000E+00 0.  1.
<mgrwt>
<rscale>  0 0.12504687E+04</rscale>
<asrwt>0</asrwt>
<pdfrwt beam="1">  1        2 0.84094840E-01 0.12504687E+04</pdfrwt>
<pdfrwt beam="2">  1       -2 0.11002455E+00 0.12504687E+04</pdfrwt>
<totfact> 0.35814256E+01</totfact>
</mgrwt>
</event>
<event>
12    1  0.4820219E-008  0.1554728E+04  0.7818608E-02  0.8848854E-01
         -2   -1    0    0    0  501 -0.00000000000E+00  0.00000000000E+00  0.29247432071E+03  0.29247432071E+03  0.00000000000E+00 0.  1.
          2   -1    0    0  501    0  0.00000000000E+00 -0.00000000000E+00 -0.20661453639E+04  0.20661453639E+04  0.00000000000E+00 0. -1.
         23    2    1    2    0    0 -0.37271771868E+03 -0.27565239743E+03 -0.26541487782E+03  0.54288158316E+03  0.96812261311E+02 0.  0.
        254    2    1    2    0    0  0.37271771868E+03  0.27565239743E+03 -0.15082561654E+04  0.18157381015E+04  0.89842387027E+03 0.  0.
         23    2    4    4    0    0  0.43705477496E+03  0.45858752859E+03 -0.14635785255E+04  0.15973446399E+04  0.90157643528E+02 0.  0.
         23    2    4    4    0    0 -0.64337056284E+02 -0.18293513116E+03 -0.44677639910E+02  0.21839346157E+03  0.89972737673E+02 0.  0.
         11    1    3    3    0    0 -0.58292067891E+02 -0.14722939732E+02 -0.62332773269E+02  0.86603145190E+02  0.00000000000E+00 0. -1.
        -11    1    3    3    0    0 -0.31442565079E+03 -0.26092945770E+03 -0.20308210455E+03  0.45627843797E+03  0.00000000000E+00 0.  1.
          1    1    5    5  502    0  0.29329039321E+03  0.24469043560E+03 -0.89346335028E+03  0.97168380778E+03  0.00000000000E+00 0. -1.
          1    1    6    6  503    0 -0.57855849081E+02 -0.19249189439E+03 -0.47438502191E+02  0.20652079839E+03  0.00000000000E+00 0. -1.
         -1    1    5    5    0  502  0.14376438176E+03  0.21389709300E+03 -0.57011517522E+03  0.62566083213E+03  0.00000000000E+00 0.  1.
         -1    1    6    6    0  503 -0.64812072029E+01  0.95567632328E+01  0.27608622814E+01  0.11872663173E+02  0.00000000000E+00 0.  1.
<mgrwt>
<rscale>  0 0.15547276E+04</rscale>
<asrwt>0</asrwt>
<pdfrwt beam="1">  1        2 0.31786851E+00 0.15547276E+04</pdfrwt>
<pdfrwt beam="2">  1       -2 0.44996050E-01 0.15547276E+04</pdfrwt>
<totfact> 0.27674598E+01</totfact>
</mgrwt>
</event>
<event>
12    1  0.4820219E-008  0.1564905E+04  0.7818608E-02  0.8842403E-01
         -1   -1    0    0    0  501 -0.00000000000E+00  0.00000000000E+00  0.72406349123E+03  0.72406349123E+03  0.00000000000E+00 0.  1.
          1   -1    0    0  501    0  0.00000000000E+00 -0.00000000000E+00 -0.84554961824E+03  0.84554961824E+03  0.00000000000E+00 0. -1.
         23    2    1    2    0    0  0.17246235241E+03  0.41439138582E+03  0.21103978759E+03  0.50405489885E+03  0.89833543115E+02 0.  0.
        254    2    1    2    0    0 -0.17246235241E+03 -0.41439138582E+03 -0.33252591461E+03  0.10655582106E+04  0.90740141762E+03 0.  0.
         23    2    4    4    0    0  0.27097771617E+03 -0.38507607600E+03 -0.37657995458E+03  0.60959841303E+03  0.89918051592E+02 0.  0.
         23    2    4    4    0    0 -0.44344006857E+03 -0.29315309820E+02  0.44054039977E+02  0.45595979760E+03  0.91978784410E+02 0.  0.
         11    1    3    3    0    0  0.59990778152E+02  0.13550551241E+03  0.24550429581E+02  0.15021105468E+03  0.00000000000E+00 0. -1.
        -11    1    3    3    0    0  0.11247157425E+03  0.27888587341E+03  0.18648935801E+03  0.35384384417E+03  0.00000000000E+00 0.  1.
          1    1    5    5  502    0  0.88830241932E+02 -0.16863076935E+03 -0.19921174719E+03  0.27570358807E+03  0.00000000000E+00 0. -1.
          3    1    6    6  503    0 -0.13327369459E+03  0.20489765576E+02  0.43945857461E+02  0.14182012040E+03  0.00000000000E+00 0. -1.
         -1    1    5    5    0  502  0.18214747424E+03 -0.21644530665E+03 -0.17736820739E+03  0.33389482496E+03  0.00000000000E+00 0.  1.
         -3    1    6    6    0  503 -0.31016637399E+03 -0.49805075395E+02  0.10818251612E+00  0.31413967720E+03  0.00000000000E+00 0.  1.
<mgrwt>
<rscale>  0 0.15649046E+04</rscale>
<asrwt>0</asrwt>
<pdfrwt beam="1">  1        1 0.13008456E+00 0.15649046E+04</pdfrwt>
<pdfrwt beam="2">  1       -1 0.11139438E+00 0.15649046E+04</pdfrwt>
<totfact> 0.14403900E+01</totfact>
</mgrwt>
</event>
<event>
12    1  0.4820219E-008  0.1681501E+04  0.7818608E-02  0.8771986E-01
          2   -1    0    0  501    0  0.00000000000E+00  0.00000000000E+00  0.94945096681E+03  0.94945096681E+03  0.00000000000E+00 0. -1.
         -2   -1    0    0    0  501 -0.00000000000E+00 -0.00000000000E+00 -0.74449516458E+03  0.74449516458E+03  0.00000000000E+00 0.  1.
         23    2    1    2    0    0  0.48967884599E+03 -0.11535674730E+03 -0.12033452502E+03  0.52519354272E+03  0.90858725753E+02 0.  0.
        254    2    1    2    0    0 -0.48967884599E+03  0.11535674730E+03  0.32529032725E+03  0.11687525887E+04  0.10035318954E+04 0.  0.
         23    2    4    4    0    0 -0.57357225695E+03 -0.41202975575E+02 -0.19240469348E+03  0.61319281787E+03  0.91121055020E+02 0.  0.
         23    2    4    4    0    0  0.83893410964E+02  0.15655972288E+03  0.51769502073E+03  0.55555977081E+03  0.95338728875E+02 0.  0.
         11    1    3    3    0    0  0.60216340886E+02  0.74368025813E+01 -0.36242934067E+02  0.70674351869E+02  0.00000000000E+00 0. -1.
        -11    1    3    3    0    0  0.42946250510E+03 -0.12279354988E+03 -0.84091590952E+02  0.45451919085E+03  0.00000000000E+00 0.  1.
          1    1    6    6  502    0  0.18655010979E+02  0.12295843818E+03  0.37527684065E+03  0.39534730818E+03  0.00000000000E+00 0. -1.
          1    1    5    5  503    0 -0.48518854058E+03 -0.66278903039E+02 -0.15121941037E+03  0.51251158325E+03  0.00000000000E+00 0. -1.
         -1    1    5    5    0  503 -0.88383716376E+02  0.25075927464E+02 -0.41185283110E+02  0.10068123461E+03  0.00000000000E+00 0.  1.
         -1    1    6    6    0  502  0.65238399984E+02  0.33601284697E+02  0.14241818008E+03  0.16021246263E+03  0.00000000000E+00 0.  1.
<mgrwt>
<rscale>  0 0.16815013E+04</rscale>
<asrwt>0</asrwt>
<pdfrwt beam="1">  1        2 0.14606938E+00 0.16815013E+04</pdfrwt>
<pdfrwt beam="2">  1       -2 0.11453772E+00 0.16815013E+04</pdfrwt>
<totfact> 0.15420250E+01</totfact>
</mgrwt>
</event>
<event>
12    1  0.4820219E-008  0.1450068E+04  0.7818608E-02  0.8918354E-01
         -2   -1    0    0    0  501 -0.00000000000E+00  0.00000000000E+00  0.19165677414E+03  0.19165677414E+03  0.00000000000E+00 0.  1.
          2   -1    0    0  501    0  0.00000000000E+00 -0.00000000000E+00 -0.27427883155E+04  0.27427883155E+04  0.00000000000E+00 0. -1.
         23    2    1    2    0    0  0.15864058560E+03 -0.40614903716E+03 -0.64946233539E+03  0.78752404034E+03  0.90933564984E+02 0.  0.
        254    2    1    2    0    0 -0.15864058560E+03  0.40614903716E+03 -0.19016692060E+04  0.21469210493E+04  0.89599126515E+03 0.  0.
         23    2    4    4    0    0  0.17663990813E+03 -0.47074180450E+01 -0.32423268174E+02  0.20185401425E+03  0.92032373751E+02 0.  0.
         23    2    4    4    0    0 -0.33528049374E+03  0.41085645520E+03 -0.18692459378E+04  0.19450670351E+04  0.89383212190E+02 0.  0.
         11    1    3    3    0    0  0.64746625181E+02 -0.17284014407E+03 -0.19761821346E+03  0.27040488006E+03  0.00000000000E+00 0.  1.
        -11    1    3    3    0    0  0.93893960420E+02 -0.23330889309E+03 -0.45184412193E+03  0.51711916027E+03  0.00000000000E+00 0. -1.
          1    1    5    5  502    0  0.11063587939E+03 -0.38535219280E+02  0.79231467199E+01  0.11742247309E+03  0.00000000000E+00 0. -1.
          1    1    6    6  503    0 -0.54049381184E+02  0.81481174950E+02 -0.23794873619E+03  0.25725496794E+03  0.00000000000E+00 0. -1.
         -1    1    5    5    0  502  0.66004028745E+02  0.33827801235E+02 -0.40346414894E+02  0.84431541155E+02  0.00000000000E+00 0.  1.
         -1    1    6    6    0  503 -0.28123111255E+03  0.32937528025E+03 -0.16312972017E+04  0.16878120672E+04  0.00000000000E+00 0.  1.
<mgrwt>
<rscale>  0 0.14500675E+04</rscale>
<asrwt>0</asrwt>
<pdfrwt beam="1">  1        2 0.42196741E+00 0.14500675E+04</pdfrwt>
<pdfrwt beam="2">  1       -2 0.29485659E-01 0.14500675E+04</pdfrwt>
<totfact> 0.25850732E+01</totfact>
</mgrwt>
</event>
<event>
12    1  0.4820219E-008  0.1722239E+04  0.7818608E-02  0.8748781E-01
          2   -1    0    0  501    0  0.00000000000E+00  0.00000000000E+00  0.70513015879E+03  0.70513015879E+03  0.00000000000E+00 0. -1.
         -2   -1    0    0    0  501 -0.00000000000E+00 -0.00000000000E+00 -0.10516167419E+04  0.10516167419E+04  0.00000000000E+00 0.  1.
         23    2    1    2    0    0  0.29283435716E+03 -0.56167483074E+03 -0.17881134582E+03  0.66424779377E+03  0.89560359051E+02 0.  0.
        254    2    1    2    0    0 -0.29283435716E+03  0.56167483074E+03 -0.16767523729E+03  0.10924991069E+04  0.87419033238E+03 0.  0.
         23    2    4    4    0    0  0.14060372996E+03  0.22880023009E+03  0.26615629543E+03  0.38881239899E+03  0.90647414979E+02 0.  0.
         23    2    4    4    0    0 -0.43343808712E+03  0.33287460065E+03 -0.43383153271E+03  0.70368670794E+03  0.91055527170E+02 0.  0.
         11    1    3    3    0    0  0.17031309601E+03 -0.37273194431E+03 -0.76386394377E+02  0.41685793051E+03  0.00000000000E+00 0.  1.
        -11    1    3    3    0    0  0.12252126114E+03 -0.18894288643E+03 -0.10242495144E+03  0.24738986325E+03  0.00000000000E+00 0. -1.
          1    1    5    5  502    0  0.16507114728E+02  0.10370279724E+03  0.12341214052E+03  0.16204107942E+03  0.00000000000E+00 0. -1.
          1    1    6    6  503    0 -0.86376045567E+02  0.68930255721E+02 -0.13791638329E+03  0.17672897380E+03  0.00000000000E+00 0. -1.
         -1    1    5    5    0  502  0.12409661523E+03  0.12509743286E+03  0.14274415491E+03  0.22677131957E+03  0.00000000000E+00 0.  1.
         -1    1    6    6    0  503 -0.34706204155E+03  0.26394434493E+03 -0.29591514942E+03  0.52695773413E+03  0.00000000000E+00 0.  1.
<mgrwt>
<rscale>  0 0.17222389E+04</rscale>
<asrwt>0</asrwt>
<pdfrwt beam="1">  1        2 0.10848156E+00 0.17222389E+04</pdfrwt>
<pdfrwt beam="2">  1       -2 0.16178719E+00 0.17222389E+04</pdfrwt>
<totfact> 0.94167947E+00</totfact>
</mgrwt>
</event>
<event>
12    1  0.4820219E-008  0.1991426E+04  0.7818608E-02  0.8610640E-01
         -1   -1    0    0    0  501 -0.00000000000E+00  0.00000000000E+00  0.26792515459E+03  0.26792515459E+03  0.00000000000E+00 0.  1.
          1   -1    0    0  501    0  0.00000000000E+00 -0.00000000000E+00 -0.37004539972E+04  0.37004539972E+04  0.00000000000E+00 0. -1.
         23    2    1    2    0    0 -0.40092883423E+03  0.44722129200E+03 -0.23837813210E+04  0.24599691128E+04  0.91015576818E+02 0.  0.
        254    2    1    2    0    0  0.40092883423E+03 -0.44722129200E+03 -0.10487475216E+04  0.15084100390E+04  0.90259551717E+03 0.  0.
         23    2    4    4    0    0  0.71688410216E+02  0.23939368336E+03 -0.49599934890E+03  0.56350620112E+03  0.95264478173E+02 0.  0.
         23    2    4    4    0    0  0.32924042401E+03 -0.68661497536E+03 -0.55274817267E+03  0.94490383788E+03  0.86448477457E+02 0.  0.
         11    1    3    3    0    0 -0.21603941131E+02  0.73275675182E+01 -0.15824487709E+03  0.15988078260E+03  0.00000000000E+00 0.  1.
        -11    1    3    3    0    0 -0.37932489309E+03  0.43989372448E+03 -0.22255364439E+04  0.23000883302E+04  0.00000000000E+00 0. -1.
          4    1    5    5  502    0  0.38263949572E+02  0.37782613800E+02 -0.52337332662E+02  0.75039004075E+02  0.00000000000E+00 0. -1.
          1    1    6    6  503    0  0.89808180076E+02 -0.24202866512E+03 -0.14660080900E+03  0.29687569983E+03  0.00000000000E+00 0. -1.
         -4    1    5    5    0  502  0.33424460644E+02  0.20161106956E+03 -0.44366201624E+03  0.48846719704E+03  0.00000000000E+00 0.  1.
         -1    1    6    6    0  503  0.23943224393E+03 -0.44458631023E+03 -0.40614736367E+03  0.64802813804E+03  0.00000000000E+00 0.  1.
<mgrwt>
<rscale>  0 0.19914263E+04</rscale>
<asrwt>0</asrwt>
<pdfrwt beam="1">  1        1 0.56930061E+00 0.19914263E+04</pdfrwt>
<pdfrwt beam="2">  1       -1 0.41219255E-01 0.19914263E+04</pdfrwt>
<totfact> 0.92783618E-01</totfact>
</mgrwt>
</event>
<event>
12    1  0.4820219E-008  0.2588427E+04  0.7818608E-02  0.8372143E-01
          2   -1    0    0  501    0  0.00000000000E+00  0.00000000000E+00  0.18728513570E+04  0.18728513570E+04  0.00000000000E+00 0.  1.
         -2   -1    0    0    0  501 -0.00000000000E+00 -0.00000000000E+00 -0.89435216051E+03  0.89435216051E+03  0.00000000000E+00 0. -1.
         23    2    1    2    0    0 -0.24386153841E+03  0.74863060315E+03 -0.43904171422E+03  0.90616188960E+03  0.91953865850E+02 0.  0.
        254    2    1    2    0    0  0.24386153841E+03 -0.74863060315E+03  0.14175409107E+04  0.18610416279E+04  0.91331127080E+03 0.  0.
         23    2    4    4    0    0  0.13221674482E+03  0.38035422858E+02 -0.64752158159E+02  0.17672385327E+03  0.90058410634E+02 0.  0.
         23    2    4    4    0    0  0.11164479358E+03 -0.78666602601E+03  0.14822930689E+04  0.16843177746E+04  0.91791216966E+02 0.  0.
         11    1    3    3    0    0 -0.25172769704E+03  0.71455181743E+03 -0.41624841334E+03  0.86441533701E+03  0.00000000000E+00 0. -1.
        -11    1    3    3    0    0  0.78661586343E+01  0.34078785724E+02 -0.22793300887E+02  0.41746552593E+02  0.00000000000E+00 0.  1.
          2    1    5    5  502    0  0.10635005290E+03 -0.44353773601E+01 -0.17019709361E+02  0.10779460483E+03  0.00000000000E+00 0. -1.
          1    1    6    6  503    0  0.82007443712E+02 -0.73462373017E+03  0.13506678035E+04  0.15397080116E+04  0.00000000000E+00 0. -1.
         -2    1    5    5    0  502  0.25866691921E+02  0.42470800218E+02 -0.47732448798E+02  0.68929248438E+02  0.00000000000E+00 0.  1.
         -1    1    6    6    0  503  0.29637349871E+02 -0.52042295844E+02  0.13162526541E+03  0.14460976301E+03  0.00000000000E+00 0.  1.
<mgrwt>
<rscale>  0 0.25884271E+04</rscale>
<asrwt>0</asrwt>
<pdfrwt beam="1">  1        2 0.28813098E+00 0.25884271E+04</pdfrwt>
<pdfrwt beam="2">  1       -2 0.13759264E+00 0.25884271E+04</pdfrwt>
<totfact> 0.26153509E+00</totfact>
</mgrwt>
</event>
<event>
12    1  0.4820219E-008  0.2474959E+04  0.7818608E-02  0.8411961E-01
          2   -1    0    0  501    0  0.00000000000E+00  0.00000000000E+00  0.40487758944E+04  0.40487758944E+04  0.00000000000E+00 0.  1.
         -2   -1    0    0    0  501 -0.00000000000E+00 -0.00000000000E+00 -0.37822686953E+03  0.37822686953E+03  0.00000000000E+00 0. -1.
         23    2    1    2    0    0  0.74696583046E+02 -0.97906054505E+03  0.82558709802E+03  0.12862298860E+04  0.93027591605E+02 0.  0.
        254    2    1    2    0    0 -0.74696583046E+02  0.97906054505E+03  0.28449619269E+04  0.31407728780E+04  0.89805722270E+03 0.  0.
         23    2    4    4    0    0  0.21571611387E+03  0.24851440904E+03  0.17867954764E+04  0.18192973780E+04  0.94403505437E+02 0.  0.
         23    2    4    4    0    0 -0.29041269692E+03  0.73054613601E+03  0.10581664505E+04  0.13214755000E+04  0.92434131913E+02 0.  0.
         11    1    3    3    0    0  0.22099465661E+02 -0.47503784602E+02  0.32385805479E+02  0.61594125779E+02  0.00000000000E+00 0. -1.
        -11    1    3    3    0    0  0.52597117386E+02 -0.93155676044E+03  0.79320129254E+03  0.12246357602E+04  0.00000000000E+00 0.  1.
          2    1    6    6  502    0 -0.61819009492E+02  0.88779421603E+02  0.11370113243E+03  0.15694369421E+03  0.00000000000E+00 0. -1.
          2    1    5    5  503    0  0.20275023174E+02  0.19545842198E+02  0.35945857373E+03  0.36056009588E+03  0.00000000000E+00 0. -1.
         -2    1    5    5    0  503  0.19544109070E+03  0.22896856684E+03  0.14273369026E+04  0.14587372821E+04  0.00000000000E+00 0.  1.
         -2    1    6    6    0  502 -0.22859368742E+03  0.64176671441E+03  0.94446531806E+03  0.11645318058E+04  0.00000000000E+00 0.  1.
<mgrwt>
<rscale>  0 0.24749593E+04</rscale>
<asrwt>0</asrwt>
<pdfrwt beam="1">  1        2 0.62288857E+00 0.24749593E+04</pdfrwt>
<pdfrwt beam="2">  1       -2 0.58188752E-01 0.24749593E+04</pdfrwt>
<totfact> 0.77384385E-01</totfact>
</mgrwt>
</event>
<event>
12    1  0.4820219E-008  0.1343860E+04  0.7818608E-02  0.8995489E-01
          2   -1    0    0  501    0  0.00000000000E+00  0.00000000000E+00  0.58767812334E+03  0.58767812334E+03  0.00000000000E+00 0.  1.
         -2   -1    0    0    0  501 -0.00000000000E+00 -0.00000000000E+00 -0.76826013889E+03  0.76826013889E+03  0.00000000000E+00 0. -1.
         23    2    1    2    0    0  0.82385302875E+01 -0.20772745659E+02  0.31615595743E+03  0.32789390008E+03  0.84026424070E+02 0.  0.
        254    2    1    2    0    0 -0.82385302875E+01  0.20772745659E+02 -0.49673797298E+03  0.10280443622E+04  0.89979287417E+03 0.  0.
         23    2    4    4    0    0 -0.55012020763E+02 -0.19839788520E+03 -0.68427358505E+03  0.72182817955E+03  0.10206634268E+03 0.  0.
         23    2    4    4    0    0  0.46773490476E+02  0.21917063086E+03  0.18753561207E+03  0.30621618260E+03  0.91516227247E+02 0.  0.
         11    1    3    3    0    0  0.85774870215E+01 -0.49732217464E+02  0.25841567465E+03  0.26329741290E+03  0.00000000000E+00 0.  1.
        -11    1    3    3    0    0 -0.33895673395E+00  0.28959471804E+02  0.57740282789E+02  0.64596487176E+02  0.00000000000E+00 0. -1.
          2    1    6    6  502    0  0.34292913253E+02  0.26251024922E+02  0.11350532928E+02  0.44653721083E+02  0.00000000000E+00 0.  1.
          2    1    5    5  503    0  0.27223227214E+02 -0.75173728222E+02 -0.28318690902E+03  0.29425672287E+03  0.00000000000E+00 0. -1.
         -2    1    5    5    0  503 -0.82235247977E+02 -0.12322415698E+03 -0.40108667603E+03  0.42757145668E+03  0.00000000000E+00 0.  1.
         -2    1    6    6    0  502  0.12480577223E+02  0.19291960594E+03  0.17618507915E+03  0.26156246152E+03  0.00000000000E+00 0. -1.
<mgrwt>
<rscale>  0 0.13438596E+04</rscale>
<asrwt>0</asrwt>
<pdfrwt beam="1">  1        2 0.90412019E-01 0.13438596E+04</pdfrwt>
<pdfrwt beam="2">  1       -2 0.11819387E+00 0.13438596E+04</pdfrwt>
<totfact> 0.27395904E+01</totfact>
</mgrwt>
</event>
<event>
12    1  0.4820219E-008  0.2911802E+04  0.7818608E-02  0.8269375E-01
         -2   -1    0    0    0  501 -0.00000000000E+00  0.00000000000E+00  0.99164752610E+03  0.99164752610E+03  0.00000000000E+00 0.  1.
          2   -1    0    0  501    0  0.00000000000E+00 -0.00000000000E+00 -0.21375016517E+04  0.21375016517E+04  0.00000000000E+00 0. -1.
         23    2    1    2    0    0 -0.63624128789E+03  0.98102596151E+03 -0.10604812195E+04  0.15808787000E+04  0.85686251718E+02 0.  0.
        254    2    1    2    0    0  0.63624128789E+03 -0.98102596151E+03 -0.85372906111E+02  0.15482704778E+04  0.10112556678E+04 0.  0.
         23    2    4    4    0    0  0.52376067064E+01  0.14503029631E+03  0.15597256569E+03  0.23243954888E+03  0.92948820673E+02 0.  0.
         23    2    4    4    0    0  0.63100368119E+03 -0.11260562578E+04 -0.24134547180E+03  0.13158309289E+04  0.83636446677E+02 0.  0.
         13    1    3    3    0    0 -0.14926859542E+03  0.25215827387E+03 -0.21952462546E+03  0.36613654535E+03  0.00000000000E+00 0.  1.
        -13    1    3    3    0    0 -0.48697269247E+03  0.72886768763E+03 -0.84095659401E+03  0.12147421547E+04  0.00000000000E+00 0. -1.
          2    1    5    5  502    0  0.48562850104E+02  0.76527260798E+02  0.72240069157E+02  0.11590254375E+03  0.00000000000E+00 0.  1.
          4    1    6    6  503    0  0.93000339048E+02 -0.11290255532E+03 -0.32365004644E+02  0.14981169376E+03  0.00000000000E+00 0. -1.
         -2    1    5    5    0  502 -0.43325243398E+02  0.68503035515E+02  0.83732496531E+02  0.11653700513E+03  0.00000000000E+00 0. -1.
         -4    1    6    6    0  503  0.53800334214E+03 -0.10131537025E+04 -0.20898046715E+03  0.11660192351E+04  0.00000000000E+00 0.  1.
<mgrwt>
<rscale>  0 0.29118023E+04</rscale>
<asrwt>0</asrwt>
<pdfrwt beam="1">  1        2 0.32884641E+00 0.29118023E+04</pdfrwt>
<pdfrwt beam="2">  1       -2 0.15256116E+00 0.29118023E+04</pdfrwt>
<totfact> 0.13826339E+00</totfact>
</mgrwt>
</event>
<event>
12    1  0.4820219E-008  0.2006261E+04  0.7818608E-02  0.8603699E-01
         -1   -1    0    0    0  501 -0.00000000000E+00  0.00000000000E+00  0.10026437941E+04  0.10026437941E+04  0.00000000000E+00 0.  1.
          1   -1    0    0  501    0  0.00000000000E+00 -0.00000000000E+00 -0.10036177997E+04  0.10036177997E+04  0.00000000000E+00 0. -1.
         23    2    1    2    0    0  0.65246076013E+03 -0.97726937158E+02  0.45242923497E+03  0.80500075413E+03  0.89879940733E+02 0.  0.
        254    2    1    2    0    0 -0.65246076013E+03  0.97726937158E+02 -0.45340324060E+03  0.12012608397E+04  0.89565479322E+03 0.  0.
         23    2    4    4    0    0  0.83203277515E+02  0.49173350692E+02  0.18146444716E+03  0.22448870603E+03  0.90138946864E+02 0.  0.
         23    2    4    4    0    0 -0.73566403764E+03  0.48553586465E+02 -0.63486768776E+03  0.97677213366E+03  0.86416393638E+02 0.  0.
         11    1    3    3    0    0  0.71041668245E+02 -0.38402265603E+02  0.66782808509E+02  0.10479311114E+03  0.00000000000E+00 0. -1.
        -11    1    3    3    0    0  0.58141909188E+03 -0.59324671555E+02  0.38564642646E+03  0.70020764299E+03  0.00000000000E+00 0.  1.
          2    1    5    5  502    0  0.85348838255E+02  0.55801646802E+02  0.18867143212E+03  0.21446481594E+03  0.00000000000E+00 0. -1.
          3    1    6    6  503    0 -0.54991335368E+03  0.11570736116E+02 -0.50862236258E+03  0.74915638301E+03  0.00000000000E+00 0. -1.
         -2    1    5    5    0  502 -0.21455607407E+01 -0.66282961095E+01 -0.72069849607E+01  0.10023890085E+02  0.00000000000E+00 0.  1.
         -3    1    6    6    0  503 -0.18575068397E+03  0.36982850350E+02 -0.12624532518E+03  0.22761575065E+03  0.00000000000E+00 0.  1.
<mgrwt>
<rscale>  0 0.20062614E+04</rscale>
<asrwt>0</asrwt>
<pdfrwt beam="1">  1        1 0.15440274E+00 0.20062614E+04</pdfrwt>
<pdfrwt beam="2">  1       -1 0.15425289E+00 0.20062614E+04</pdfrwt>
<totfact> 0.45074018E+00</totfact>
</mgrwt>
</event>
<event>
12    1  0.4820219E-008  0.2230971E+04  0.7818608E-02  0.8505647E-01
          2   -1    0    0  501    0  0.00000000000E+00  0.00000000000E+00  0.20353774363E+04  0.20353774363E+04  0.00000000000E+00 0. -1.
         -2   -1    0    0    0  501 -0.00000000000E+00 -0.00000000000E+00 -0.61133999542E+03  0.61133999542E+03  0.00000000000E+00 0.  1.
         23    2    1    2    0    0 -0.28647718081E+03  0.55477293277E+03  0.14231427431E+04  0.15569405663E+04  0.94268115651E+02 0.  0.
        254    2    1    2    0    0  0.28647718081E+03 -0.55477293277E+03  0.89469770809E+00  0.10897768654E+04  0.89318006793E+03 0.  0.
         23    2    4    4    0    0  0.20435417497E+03 -0.79079308115E+03  0.26975884080E+02  0.82222934599E+03  0.90659103547E+02 0.  0.
         23    2    4    4    0    0  0.82123005839E+02  0.23602014838E+03 -0.26081186372E+02  0.26754751938E+03  0.91933390629E+02 0.  0.
         11    1    3    3    0    0 -0.10186430845E+03  0.26430673586E+03  0.73069868361E+03  0.78368039033E+03  0.00000000000E+00 0.  1.
        -11    1    3    3    0    0 -0.18461287236E+03  0.29046619691E+03  0.69244405953E+03  0.77326017598E+03  0.00000000000E+00 0. -1.
          2    1    5    5  502    0  0.10613873922E+03 -0.36992814287E+03  0.56827541204E+02  0.38902651874E+03  0.00000000000E+00 0. -1.
          3    1    6    6  503    0  0.89882798202E+02  0.21826527493E+03 -0.45188742833E+02  0.24033449634E+03  0.00000000000E+00 0. -1.
         -2    1    5    5    0  502  0.98215435748E+02 -0.42086493829E+03 -0.29851657124E+02  0.43320282724E+03  0.00000000000E+00 0.  1.
         -3    1    6    6    0  503 -0.77597923637E+01  0.17754873452E+02  0.19107556462E+02  0.27213023036E+02  0.00000000000E+00 0.  1.
<mgrwt>
<rscale>  0 0.22309708E+04</rscale>
<asrwt>0</asrwt>
<pdfrwt beam="1">  1        2 0.31313499E+00 0.22309708E+04</pdfrwt>
<pdfrwt beam="2">  1       -2 0.94052308E-01 0.22309708E+04</pdfrwt>
<totfact> 0.55534737E+00</totfact>
</mgrwt>
</event>
<event>
12    1  0.4820219E-008  0.2106339E+04  0.7818608E-02  0.8558456E-01
         -1   -1    0    0    0  501 -0.00000000000E+00  0.00000000000E+00  0.67225415103E+03  0.67225415103E+03  0.00000000000E+00 0.  1.
          1   -1    0    0  501    0  0.00000000000E+00 -0.00000000000E+00 -0.16499201809E+04  0.16499201809E+04  0.00000000000E+00 0. -1.
         23    2    1    2    0    0  0.83003014106E+03 -0.11248869395E+02 -0.15270678529E+03  0.84859931918E+03  0.87891240212E+02 0.  0.
        254    2    1    2    0    0 -0.83003014106E+03  0.11248869395E+02 -0.82495924462E+03  0.14735750128E+04  0.89542670884E+03 0.  0.
         23    2    4    4    0    0 -0.25937977358E+03  0.34106798184E+03 -0.32836747213E+02  0.43908490753E+03  0.90067024334E+02 0.  0.
         23    2    4    4    0    0 -0.57065036749E+03 -0.32981911245E+03 -0.79212249741E+03  0.10344901053E+04  0.91045253236E+02 0.  0.
         13    1    3    3    0    0  0.22586209851E+03  0.18155642863E+01 -0.81436652846E+02  0.24010187888E+03  0.00000000000E+00 0. -1.
        -13    1    3    3    0    0  0.60416804255E+03 -0.13064433681E+02 -0.71270132444E+02  0.60849744030E+03  0.00000000000E+00 0.  1.
          4    1    5    5  502    0 -0.25876821611E+02  0.75569882302E+02  0.17991268259E+02  0.81878585365E+02  0.00000000000E+00 0. -1.
          3    1    6    6  503    0 -0.25237026042E+03 -0.98231484458E+02 -0.29613746215E+03  0.40129486586E+03  0.00000000000E+00 0. -1.
         -4    1    5    5    0  502 -0.23350295196E+03  0.26549809954E+03 -0.50828015472E+02  0.35720632216E+03  0.00000000000E+00 0.  1.
         -3    1    6    6    0  503 -0.31828010707E+03 -0.23158762799E+03 -0.49598503526E+03  0.63319523940E+03  0.00000000000E+00 0.  1.
<mgrwt>
<rscale>  0 0.21063387E+04</rscale>
<asrwt>0</asrwt>
<pdfrwt beam="1">  1        1 0.25383387E+00 0.21063387E+04</pdfrwt>
<pdfrwt beam="2">  1       -1 0.10342372E+00 0.21063387E+04</pdfrwt>
<totfact> 0.41798338E+00</totfact>
</mgrwt>
</event>
<event>
12    1  0.4820219E-008  0.2281739E+04  0.7818608E-02  0.8485156E-01
         -2   -1    0    0    0  501 -0.00000000000E+00  0.00000000000E+00  0.73740577968E+03  0.73740577968E+03  0.00000000000E+00 0.  1.
          2   -1    0    0  501    0  0.00000000000E+00 -0.00000000000E+00 -0.17650846884E+04  0.17650846884E+04  0.00000000000E+00 0. -1.
         23    2    1    2    0    0  0.21752171422E+03  0.93172713068E+03 -0.40823858374E+03  0.10446939489E+04  0.96413502052E+02 0.  0.
        254    2    1    2    0    0 -0.21752171422E+03 -0.93172713068E+03 -0.61944032502E+03  0.14577965193E+04  0.90886370435E+03 0.  0.
         23    2    4    4    0    0  0.34726938848E+02  0.12215109169E+03 -0.27057227693E+03  0.31515985637E+03  0.99947629008E+02 0.  0.
         23    2    4    4    0    0 -0.25224865307E+03 -0.10538782224E+04 -0.34886804810E+03  0.11426366629E+04  0.98086379405E+02 0.  0.
         13    1    3    3    0    0  0.13290993669E+03  0.73386163539E+03 -0.33243428791E+03  0.81653567402E+03  0.00000000000E+00 0.  1.
        -13    1    3    3    0    0  0.84611777525E+02  0.19786549529E+03 -0.75804295828E+02  0.22815827486E+03  0.00000000000E+00 0. -1.
          2    1    5    5  502    0  0.38931549756E+02  0.54786776787E+02 -0.22214194043E+03  0.23208683326E+03  0.00000000000E+00 0. -1.
          1    1    6    6  503    0 -0.11119485126E+03 -0.61591177609E+03 -0.16599891446E+03  0.64750849452E+03  0.00000000000E+00 0. -1.
         -2    1    5    5    0  502 -0.42046109086E+01  0.67364314901E+02 -0.48430336501E+02  0.83073023110E+02  0.00000000000E+00 0.  1.
         -1    1    6    6    0  503 -0.14105380181E+03 -0.43796644628E+03 -0.18286913363E+03  0.49512816836E+03  0.00000000000E+00 0.  1.
<mgrwt>
<rscale>  0 0.22817394E+04</rscale>
<asrwt>0</asrwt>
<pdfrwt beam="1">  1        2 0.27155149E+00 0.22817394E+04</pdfrwt>
<pdfrwt beam="2">  1       -2 0.11344704E+00 0.22817394E+04</pdfrwt>
<totfact> 0.49939564E+00</totfact>
</mgrwt>
</event>
<event>
12    1  0.4820219E-008  0.2540743E+04  0.7818608E-02  0.8388613E-01
          1   -1    0    0  501    0  0.00000000000E+00  0.00000000000E+00  0.11785823477E+04  0.11785823477E+04  0.00000000000E+00 0. -1.
         -1   -1    0    0    0  501 -0.00000000000E+00 -0.00000000000E+00 -0.13693096657E+04  0.13693096657E+04  0.00000000000E+00 0.  1.
         23    2    1    2    0    0 -0.22394398007E+03  0.10633432328E+04 -0.30129553345E+03  0.11312937203E+04  0.90535882384E+02 0.  0.
        254    2    1    2    0    0  0.22394398007E+03 -0.10633432328E+04  0.11056821545E+03  0.14165982931E+04  0.90203972010E+03 0.  0.
         23    2    4    4    0    0 -0.16957772211E+03 -0.17177457652E+03  0.32211570656E+03  0.41477039137E+03  0.10006418026E+03 0.  0.
         23    2    4    4    0    0  0.39352170218E+03 -0.89156865633E+03 -0.21154749111E+03  0.10018279017E+04  0.95670291228E+02 0.  0.
         13    1    3    3    0    0 -0.24109650370E+02  0.40620251982E+02 -0.27897330959E+01  0.47318735431E+02  0.00000000000E+00 0. -1.
        -13    1    3    3    0    0 -0.19983432970E+03  0.10227229809E+04 -0.29850580035E+03  0.10839749848E+04  0.00000000000E+00 0.  1.
          4    1    5    5  502    0 -0.34269411295E+02 -0.39676928708E+02  0.15744599876E+02  0.54740694620E+02  0.00000000000E+00 0. -1.
          3    1    6    6  503    0  0.18398900443E+03 -0.38072231498E+03 -0.45710763460E+02  0.42531271880E+03  0.00000000000E+00 0. -1.
         -4    1    5    5    0  502 -0.13530831081E+03 -0.13209764781E+03  0.30637110668E+03  0.36002969675E+03  0.00000000000E+00 0.  1.
         -3    1    6    6    0  503  0.20953269775E+03 -0.51084634135E+03 -0.16583672765E+03  0.57651518291E+03  0.00000000000E+00 0.  1.
<mgrwt>
<rscale>  0 0.25407434E+04</rscale>
<asrwt>0</asrwt>
<pdfrwt beam="1">  1        1 0.18132036E+00 0.25407434E+04</pdfrwt>
<pdfrwt beam="2">  1       -1 0.21066303E+00 0.25407434E+04</pdfrwt>
<totfact> 0.12479968E+00</totfact>
</mgrwt>
</event>
<event>
12    1  0.4820219E-008  0.1531790E+04  0.7818608E-02  0.8863584E-01
         -2   -1    0    0    0  501 -0.00000000000E+00  0.00000000000E+00  0.33711326324E+03  0.33711326324E+03  0.00000000000E+00 0.  1.
          2   -1    0    0  501    0  0.00000000000E+00 -0.00000000000E+00 -0.17400533154E+04  0.17400533154E+04  0.00000000000E+00 0. -1.
         23    2    1    2    0    0  0.18840403049E+03 -0.35638975074E+03 -0.92106803565E+02  0.42316917789E+03  0.89881904251E+02 0.  0.
        254    2    1    2    0    0 -0.18840403049E+03  0.35638975074E+03 -0.13108332486E+04  0.16539974008E+04  0.92461552171E+03 0.  0.
         23    2    4    4    0    0 -0.23066106618E+03  0.72644081334E+02  0.47121460802E+02  0.26283608605E+03  0.91546087064E+02 0.  0.
         23    2    4    4    0    0  0.42257035699E+02  0.28374566941E+03 -0.13579547094E+04  0.13911613147E+04  0.94823777592E+02 0.  0.
         13    1    3    3    0    0  0.62505077032E+01 -0.83060986677E+02 -0.54893520914E+01  0.83476519697E+02  0.00000000000E+00 0. -1.
        -13    1    3    3    0    0  0.18215352278E+03 -0.27332876407E+03 -0.86617451474E+02  0.33969265819E+03  0.00000000000E+00 0.  1.
          2    1    5    5  502    0 -0.21043441146E+03  0.66600112140E+02  0.70144470902E+02  0.23159979115E+03  0.00000000000E+00 0.  1.
          1    1    6    6  503    0  0.48569797446E+02  0.90778797947E+02 -0.34767147191E+03  0.36259518441E+03  0.00000000000E+00 0. -1.
         -2    1    5    5    0  502 -0.20226654724E+02  0.60439691943E+01 -0.23023010100E+02  0.31236294899E+02  0.00000000000E+00 0. -1.
         -1    1    6    6    0  503 -0.63127617470E+01  0.19296687146E+03 -0.10102832375E+04  0.10285661303E+04  0.00000000000E+00 0.  1.
<mgrwt>
<rscale>  0 0.15317899E+04</rscale>
<asrwt>0</asrwt>
<pdfrwt beam="1">  1        2 0.26770051E+00 0.15317899E+04</pdfrwt>
<pdfrwt beam="2">  1       -2 0.51863580E-01 0.15317899E+04</pdfrwt>
<totfact> 0.31523059E+01</totfact>
</mgrwt>
</event>
<event>
12    1  0.4820219E-008  0.1981109E+04  0.7818608E-02  0.8615504E-01
          4   -1    0    0  501    0  0.00000000000E+00  0.00000000000E+00  0.76026591099E+03  0.76026591099E+03  0.00000000000E+00 0. -1.
         -4   -1    0    0    0  501 -0.00000000000E+00 -0.00000000000E+00 -0.12905985396E+04  0.12905985396E+04  0.00000000000E+00 0.  1.
         23    2    1    2    0    0  0.76775201135E+03 -0.23528469509E+02 -0.61797454964E+02  0.77622395572E+03  0.93316473243E+02 0.  0.
        254    2    1    2    0    0 -0.76775201135E+03  0.23528469509E+02 -0.46853517364E+03  0.12746404949E+04  0.90287675926E+03 0.  0.
         23    2    4    4    0    0 -0.46900960923E+02 -0.33707627107E+03 -0.33312451789E+02  0.35400990804E+03  0.91614315954E+02 0.  0.
         23    2    4    4    0    0 -0.72085105043E+03  0.36060474058E+03 -0.43522272185E+03  0.92063058683E+03  0.92086068194E+02 0.  0.
         11    1    3    3    0    0  0.12147028073E+03  0.35275975574E+01  0.23511134677E+02  0.12377498333E+03  0.00000000000E+00 0.  1.
        -11    1    3    3    0    0  0.64628173062E+03 -0.27056067066E+02 -0.85308589641E+02  0.65244897238E+03  0.00000000000E+00 0. -1.
          4    1    5    5  502    0 -0.19419386689E+02 -0.62390300674E+02 -0.42242837326E+02  0.77808222592E+02  0.00000000000E+00 0. -1.
          1    1    6    6  503    0 -0.12084488573E+03  0.28746152272E+02 -0.47914562058E+02  0.13313764657E+03  0.00000000000E+00 0. -1.
         -4    1    5    5    0  502 -0.27481574233E+02 -0.27468597040E+03  0.89303855366E+01  0.27620168544E+03  0.00000000000E+00 0.  1.
         -1    1    6    6    0  503 -0.60000616470E+03  0.33185858831E+03 -0.38730815979E+03  0.78749294026E+03  0.00000000000E+00 0.  1.
<mgrwt>
<rscale>  0 0.19811089E+04</rscale>
<asrwt>0</asrwt>
<pdfrwt beam="1">  1        4 0.11696399E+00 0.19811089E+04</pdfrwt>
<pdfrwt beam="2">  1       -4 0.19855362E+00 0.19811089E+04</pdfrwt>
<totfact> 0.14125277E-01</totfact>
</mgrwt>
</event>
<event>
12    1  0.4820219E-008  0.1247290E+04  0.7818608E-02  0.9072442E-01
         -1   -1    0    0    0  501 -0.00000000000E+00  0.00000000000E+00  0.26407044625E+03  0.26407044625E+03  0.00000000000E+00 0.  1.
          1   -1    0    0  501    0  0.00000000000E+00 -0.00000000000E+00 -0.14728391832E+04  0.14728391832E+04  0.00000000000E+00 0. -1.
         23    2    1    2    0    0  0.21843527535E+03 -0.10598609192E+03 -0.82888232011E+02  0.27262247507E+03  0.92225450453E+02 0.  0.
        254    2    1    2    0    0 -0.21843527535E+03  0.10598609192E+03 -0.11258805049E+04  0.14642871544E+04  0.90420292958E+03 0.  0.
         23    2    4    4    0    0  0.48636491393E+02 -0.87296246032E+02 -0.11142212823E+04  0.11223705103E+04  0.90776393060E+02 0.  0.
         23    2    4    4    0    0 -0.26707176675E+03  0.19328233795E+03 -0.11659222569E+02  0.34191664403E+03  0.89920316064E+02 0.  0.
         11    1    3    3    0    0  0.21986337950E+03 -0.95825332443E+02 -0.59538637192E+02  0.24711788543E+03  0.00000000000E+00 0.  1.
        -11    1    3    3    0    0 -0.14281041454E+01 -0.10160759473E+02 -0.23349594819E+02  0.25504589641E+02  0.00000000000E+00 0. -1.
          4    1    6    6  502    0 -0.32453764136E+02  0.43009128221E+02  0.27615746062E+02  0.60544705363E+02  0.00000000000E+00 0.  1.
          4    1    5    5  503    0  0.31638070885E+02 -0.81843388339E+02 -0.48355798002E+03  0.49145460399E+03  0.00000000000E+00 0. -1.
         -4    1    5    5    0  503  0.16998420508E+02 -0.54528576935E+01 -0.63066330233E+03  0.63091590633E+03  0.00000000000E+00 0.  1.
         -4    1    6    6    0  502 -0.23461800261E+03  0.15027320973E+03 -0.39274968632E+02  0.28137193867E+03  0.00000000000E+00 0. -1.
<mgrwt>
<rscale>  0 0.12472903E+04</rscale>
<asrwt>0</asrwt>
<pdfrwt beam="1">  1        1 0.22659064E+00 0.12472903E+04</pdfrwt>
<pdfrwt beam="2">  1       -1 0.40626222E-01 0.12472903E+04</pdfrwt>
<totfact> 0.39883859E+01</totfact>
</mgrwt>
</event>
<event>
12    1  0.4820219E-008  0.2834355E+04  0.7818608E-02  0.8292681E-01
         -2   -1    0    0    0  501 -0.00000000000E+00  0.00000000000E+00  0.26049263649E+04  0.26049263649E+04  0.00000000000E+00 0.  1.
          2   -1    0    0  501    0  0.00000000000E+00 -0.00000000000E+00 -0.77099787668E+03  0.77099787668E+03  0.00000000000E+00 0. -1.
         23    2    1    2    0    0 -0.25663263944E+02  0.11005639234E+04  0.65547245540E+02  0.11064715674E+04  0.89907371159E+02 0.  0.
        254    2    1    2    0    0  0.25663263944E+02 -0.11005639234E+04  0.17683812427E+04  0.22694526743E+04  0.90074617319E+03 0.  0.
         23    2    4    4    0    0  0.43887037918E+03 -0.52309790085E+03  0.10451170256E+04  0.12518444680E+04  0.92770422757E+02 0.  0.
         23    2    4    4    0    0 -0.41320711524E+03 -0.57746602254E+03  0.72326421715E+03  0.10176082063E+04  0.90599152069E+02 0.  0.
         11    1    3    3    0    0 -0.29057616953E+02  0.14042618237E+03  0.24275110747E+02  0.14544118674E+03  0.00000000000E+00 0.  1.
        -11    1    3    3    0    0  0.33943530092E+01  0.96013774102E+03  0.41272134793E+02  0.96103038062E+03  0.00000000000E+00 0. -1.
          4    1    5    5  502    0  0.41953053512E+03 -0.46822063963E+03  0.92558642241E+03  0.11189042241E+04  0.00000000000E+00 0. -1.
          3    1    6    6  503    0 -0.39070610639E+03 -0.54279128931E+03  0.64521022291E+03  0.92928460499E+03  0.00000000000E+00 0. -1.
         -4    1    5    5    0  502  0.19339844059E+02 -0.54877261225E+02  0.11953060316E+03  0.13294024395E+03  0.00000000000E+00 0.  1.
         -3    1    6    6    0  503 -0.22501008843E+02 -0.34674733230E+02  0.78053994237E+02  0.88323601262E+02  0.00000000000E+00 0.  1.
<mgrwt>
<rscale>  0 0.28343554E+04</rscale>
<asrwt>0</asrwt>
<pdfrwt beam="1">  1        2 0.11861506E+00 0.28343554E+04</pdfrwt>
<pdfrwt beam="2">  1       -2 0.40075790E+00 0.28343554E+04</pdfrwt>
<totfact> 0.23020207E-01</totfact>
</mgrwt>
</event>
<event>
12    1  0.4820219E-008  0.1536510E+04  0.7818608E-02  0.8860530E-01
         -2   -1    0    0    0  501 -0.00000000000E+00  0.00000000000E+00  0.27947410986E+03  0.27947410986E+03  0.00000000000E+00 0. -1.
          2   -1    0    0  501    0  0.00000000000E+00 -0.00000000000E+00 -0.21118808083E+04  0.21118808083E+04  0.00000000000E+00 0.  1.
         23    2    1    2    0    0  0.38091885082E+03 -0.13960806690E+03 -0.10656151104E+04  0.11437926403E+04  0.90202312740E+02 0.  0.
        254    2    1    2    0    0 -0.38091885082E+03  0.13960806690E+03 -0.76679158805E+03  0.12475622779E+04  0.89657833703E+03 0.  0.
         23    2    4    4    0    0 -0.46573577715E+03 -0.27487903002E+03 -0.48757328671E+03  0.73393810208E+03  0.92027889894E+02 0.  0.
         23    2    4    4    0    0  0.84816926330E+02  0.41448709692E+03 -0.27921830134E+03  0.51362417580E+03  0.82785685108E+02 0.  0.
         11    1    3    3    0    0  0.22026792248E+03 -0.86023379224E+02 -0.49510099882E+03  0.54867383615E+03  0.00000000000E+00 0. -1.
        -11    1    3    3    0    0  0.16065092835E+03 -0.53584687679E+02 -0.57051411160E+03  0.59511880416E+03  0.00000000000E+00 0.  1.
          4    1    5    5  502    0 -0.55613599027E+01 -0.63028328811E+00  0.39984730723E+01  0.68785004107E+01  0.00000000000E+00 0.  1.
          1    1    6    6  503    0  0.64591715402E+02  0.29022956174E+03 -0.23895088877E+03  0.38144831295E+03  0.00000000000E+00 0. -1.
         -4    1    5    5    0  502 -0.46017441725E+03 -0.27424874673E+03 -0.49157175978E+03  0.72705960167E+03  0.00000000000E+00 0. -1.
         -1    1    6    6    0  503  0.20225210927E+02  0.12425753518E+03 -0.40267412571E+02  0.13217586285E+03  0.00000000000E+00 0.  1.
<mgrwt>
<rscale>  0 0.15365103E+04</rscale>
<asrwt>0</asrwt>
<pdfrwt beam="1">  1        2 0.32490476E+00 0.15365103E+04</pdfrwt>
<pdfrwt beam="2">  1       -2 0.42996015E-01 0.15365103E+04</pdfrwt>
<totfact> 0.28613761E+01</totfact>
</mgrwt>
</event>
<event>
12    1  0.4820219E-008  0.1743699E+04  0.7818608E-02  0.8736827E-01
          2   -1    0    0  501    0  0.00000000000E+00  0.00000000000E+00  0.23439818050E+04  0.23439818050E+04  0.00000000000E+00 0. -1.
         -2   -1    0    0    0  501 -0.00000000000E+00 -0.00000000000E+00 -0.32428630505E+03  0.32428630505E+03  0.00000000000E+00 0.  1.
         23    2    1    2    0    0  0.47122388680E+03 -0.20064643943E+03  0.16729227446E+03  0.54703136399E+03  0.94581514832E+02 0.  0.
        254    2    1    2    0    0 -0.47122388680E+03  0.20064643943E+03  0.18524032255E+04  0.21212367461E+04  0.89773976067E+03 0.  0.
         23    2    4    4    0    0 -0.52932530871E+03 -0.30247885998E+02  0.17749192572E+04  0.18546811808E+04  0.91671673397E+02 0.  0.
         23    2    4    4    0    0  0.58101421918E+02  0.23089432543E+03  0.77483968289E+02  0.26655556528E+03  0.91433797333E+02 0.  0.
         11    1    3    3    0    0  0.50395004967E+01 -0.10632749802E+02 -0.77009460899E+01  0.14062592375E+02  0.00000000000E+00 0. -1.
        -11    1    3    3    0    0  0.46618438630E+03 -0.19001368963E+03  0.17499322055E+03  0.53296877161E+03  0.00000000000E+00 0.  1.
          4    1    5    5  502    0 -0.25370177141E+03  0.31215759729E+02  0.85555845605E+03  0.89292736781E+03  0.00000000000E+00 0. -1.
          1    1    6    6  503    0  0.31944203261E+01  0.38182876283E+02 -0.20549838943E+02  0.43479101222E+02  0.00000000000E+00 0. -1.
         -4    1    5    5    0  502 -0.27562353730E+03 -0.61463645727E+02  0.91936080117E+03  0.96175381298E+03  0.00000000000E+00 0.  1.
         -1    1    6    6    0  503  0.54907001592E+02  0.19271144915E+03  0.98033807231E+02  0.22307646406E+03  0.00000000000E+00 0.  1.
<mgrwt>
<rscale>  0 0.17436986E+04</rscale>
<asrwt>0</asrwt>
<pdfrwt beam="1">  1        2 0.36061258E+00 0.17436986E+04</pdfrwt>
<pdfrwt beam="2">  1       -2 0.49890202E-01 0.17436986E+04</pdfrwt>
<totfact> 0.15440232E+01</totfact>
</mgrwt>
</event>
<event>
12    1  0.4820219E-008  0.1955536E+04  0.7818608E-02  0.8627696E-01
         -2   -1    0    0    0  501 -0.00000000000E+00  0.00000000000E+00  0.78196973543E+03  0.78196973543E+03  0.00000000000E+00 0.  1.
          2   -1    0    0  501    0  0.00000000000E+00 -0.00000000000E+00 -0.12225918497E+04  0.12225918497E+04  0.00000000000E+00 0. -1.
         23    2    1    2    0    0 -0.31103133972E+03  0.62063187314E+03 -0.50249201101E+03  0.86200946309E+03  0.92939104147E+02 0.  0.
        254    2    1    2    0    0  0.31103133972E+03 -0.62063187314E+03  0.61869896704E+02  0.11425521221E+04  0.90535796860E+03 0.  0.
         23    2    4    4    0    0  0.38712089999E+03 -0.44203759871E+02 -0.25407268022E+03  0.47412208529E+03  0.91772879075E+02 0.  0.
         23    2    4    4    0    0 -0.76089560268E+02 -0.57642811327E+03  0.31594257692E+03  0.66843003679E+03  0.94445811015E+02 0.  0.
         13    1    3    3    0    0 -0.26043297344E+03  0.55560338900E+03 -0.47202276682E+03  0.77416145081E+03  0.00000000000E+00 0. -1.
        -13    1    3    3    0    0 -0.50598366279E+02  0.65028484142E+02 -0.30469244187E+02  0.87848012279E+02  0.00000000000E+00 0.  1.
          4    1    5    5  502    0  0.18651736218E+03 -0.47028935007E+02 -0.79342166302E+02  0.20807601130E+03  0.00000000000E+00 0. -1.
          3    1    6    6  503    0 -0.71603153909E+02 -0.28561436517E+03  0.12129116321E+03  0.31845584233E+03  0.00000000000E+00 0. -1.
         -4    1    5    5    0  502  0.20060353780E+03  0.28251751367E+01 -0.17473051392E+03  0.26604607399E+03  0.00000000000E+00 0.  1.
         -3    1    6    6    0  503 -0.44864063584E+01 -0.29081374811E+03  0.19465141372E+03  0.34997419446E+03  0.00000000000E+00 0.  1.
<mgrwt>
<rscale>  0 0.19555356E+04</rscale>
<asrwt>0</asrwt>
<pdfrwt beam="1">  1        2 0.18809105E+00 0.19555356E+04</pdfrwt>
<pdfrwt beam="2">  1       -2 0.12030304E+00 0.19555356E+04</pdfrwt>
<totfact> 0.90357026E+00</totfact>
</mgrwt>
</event>
<event>
12    1  0.4820219E-008  0.3260737E+04  0.7818608E-02  0.8172958E-01
         -2   -1    0    0    0  501 -0.00000000000E+00  0.00000000000E+00  0.17663846524E+04  0.17663846524E+04  0.00000000000E+00 0.  1.
          2   -1    0    0  501    0  0.00000000000E+00 -0.00000000000E+00 -0.15048261740E+04  0.15048261740E+04  0.00000000000E+00 0. -1.
         23    2    1    2    0    0 -0.99375301995E+03 -0.46091501984E+03 -0.91388033406E+03  0.14294342013E+04  0.90095230913E+02 0.  0.
        254    2    1    2    0    0  0.99375301995E+03  0.46091501984E+03  0.11754388125E+04  0.18417766250E+04  0.90027607683E+03 0.  0.
         23    2    4    4    0    0 -0.13510876191E+03  0.90913919351E+02  0.33770486275E+03  0.38539963980E+03  0.89266957825E+02 0.  0.
         23    2    4    4    0    0  0.11288617819E+04  0.37000110049E+03  0.83773394973E+03  0.14563769852E+04  0.89476341661E+02 0.  0.
         13    1    3    3    0    0 -0.42787160536E+03 -0.22188078829E+03 -0.35090686864E+03  0.59618858202E+03  0.00000000000E+00 0. -1.
        -13    1    3    3    0    0 -0.56588141459E+03 -0.23903423156E+03 -0.56297346542E+03  0.83324561925E+03  0.00000000000E+00 0.  1.
          2    1    5    5  502    0 -0.14846210004E+03  0.83354643629E+02  0.30606800911E+03  0.35023794478E+03  0.00000000000E+00 0. -1.
          4    1    6    6  503    0  0.71828299525E+03  0.26339884332E+03  0.57961565156E+03  0.95982483583E+03  0.00000000000E+00 0. -1.
         -2    1    5    5    0  502  0.13353338132E+02  0.75592757213E+01  0.31636853639E+02  0.35161695023E+02  0.00000000000E+00 0.  1.
         -4    1    6    6    0  503  0.41057878660E+03  0.10660225717E+03  0.25811829816E+03  0.49655214942E+03  0.00000000000E+00 0.  1.
<mgrwt>
<rscale>  0 0.32607373E+04</rscale>
<asrwt>0</asrwt>
<pdfrwt beam="1">  1        2 0.23151172E+00 0.32607373E+04</pdfrwt>
<pdfrwt beam="2">  1       -2 0.27175148E+00 0.32607373E+04</pdfrwt>
<totfact> 0.49978911E-01</totfact>
</mgrwt>
</event>
<event>
12    1  0.4820219E-008  0.1745256E+04  0.7818608E-02  0.8735966E-01
          2   -1    0    0  501    0  0.00000000000E+00  0.00000000000E+00  0.25423754302E+04  0.25423754302E+04  0.00000000000E+00 0. -1.
         -2   -1    0    0    0  501 -0.00000000000E+00 -0.00000000000E+00 -0.29951516039E+03  0.29951516039E+03  0.00000000000E+00 0.  1.
         23    2    1    2    0    0  0.23372597272E+02  0.29177247598E+02  0.18699038461E+04  0.18725081996E+04  0.91372718623E+02 0.  0.
        254    2    1    2    0    0 -0.23372597272E+02 -0.29177247598E+02  0.37295642371E+03  0.96938239102E+03  0.89398441595E+03 0.  0.
         23    2    4    4    0    0 -0.43333786280E+02 -0.86876012381E+02  0.65418683308E+03  0.66777936738E+03  0.92431663246E+02 0.  0.
         23    2    4    4    0    0  0.19961189008E+02  0.57698764783E+02 -0.28123040937E+03  0.30160302364E+03  0.90256546523E+02 0.  0.
         13    1    3    3    0    0  0.25078633420E+02  0.60556818959E+02  0.10874291716E+04  0.10894027122E+04  0.00000000000E+00 0. -1.
        -13    1    3    3    0    0 -0.17060361477E+01 -0.31379571361E+02  0.78247467450E+03  0.78310548733E+03  0.00000000000E+00 0.  1.
          4    1    5    5  502    0 -0.65571979897E+02 -0.81386308849E+02  0.59864017279E+03  0.60769521332E+03  0.00000000000E+00 0. -1.
          1    1    6    6  503    0  0.14460633706E+02  0.42171659705E+02 -0.28161885368E+03  0.28512582759E+03  0.00000000000E+00 0. -1.
         -4    1    5    5    0  502  0.22238193617E+02 -0.54897035314E+01  0.55546660283E+02  0.60084154058E+02  0.00000000000E+00 0.  1.
         -1    1    6    6    0  503  0.55005553021E+01  0.15527105077E+02  0.38844431154E+00  0.16477196051E+02  0.00000000000E+00 0.  1.
<mgrwt>
<rscale>  0 0.17452564E+04</rscale>
<asrwt>0</asrwt>
<pdfrwt beam="1">  1        2 0.39113467E+00 0.17452564E+04</pdfrwt>
<pdfrwt beam="2">  1       -2 0.46079257E-01 0.17452564E+04</pdfrwt>
<totfact> 0.13948819E+01</totfact>
</mgrwt>
</event>
<event>
12    1  0.4820219E-008  0.2903617E+04  0.7818608E-02  0.8271802E-01
          1   -1    0    0  501    0  0.00000000000E+00  0.00000000000E+00  0.15824016490E+04  0.15824016490E+04  0.00000000000E+00 0. -1.
         -1   -1    0    0    0  501 -0.00000000000E+00 -0.00000000000E+00 -0.13319926645E+04  0.13319926645E+04  0.00000000000E+00 0.  1.
         23    2    1    2    0    0 -0.32649544705E+03 -0.10118444592E+04  0.88190724913E+03  0.13843543288E+04  0.90818637374E+02 0.  0.
        254    2    1    2    0    0  0.32649544705E+03  0.10118444592E+04 -0.63149826462E+03  0.15300399847E+04  0.90100155945E+03 0.  0.
         23    2    4    4    0    0  0.17370458250E+03  0.48646431596E+03 -0.79455160798E+03  0.95194147358E+03  0.89774710700E+02 0.  0.
         23    2    4    4    0    0  0.15279086456E+03  0.52538014326E+03  0.16305334336E+03  0.57809851117E+03  0.90786301936E+02 0.  0.
         11    1    3    3    0    0 -0.31508532638E+03 -0.96098502963E+03  0.81093134057E+03  0.12962949623E+04  0.00000000000E+00 0. -1.
        -11    1    3    3    0    0 -0.11410120677E+02 -0.50859429583E+02  0.70975908561E+02  0.88059366494E+02  0.00000000000E+00 0.  1.
          1    1    6    6  502    0  0.35332540149E+02  0.35228633500E+02  0.64970578519E+01  0.50315571868E+02  0.00000000000E+00 0. -1.
          1    1    5    5  503    0  0.53797122753E+02  0.60095028319E+02 -0.14124009015E+03  0.16264779713E+03  0.00000000000E+00 0. -1.
         -1    1    5    5    0  503  0.11990745974E+03  0.42636928764E+03 -0.65331151784E+03  0.78929367645E+03  0.00000000000E+00 0.  1.
         -1    1    6    6    0  502  0.11745832441E+03  0.49015150976E+03  0.15655628551E+03  0.52778293931E+03  0.00000000000E+00 0.  1.
<mgrwt>
<rscale>  0 0.29036166E+04</rscale>
<asrwt>0</asrwt>
<pdfrwt beam="1">  1        1 0.24344641E+00 0.29036166E+04</pdfrwt>
<pdfrwt beam="2">  1       -1 0.20492195E+00 0.29036166E+04</pdfrwt>
<totfact> 0.68552059E-01</totfact>
</mgrwt>
</event>
<event>
12    1  0.4820219E-008  0.2200554E+04  0.7818608E-02  0.8518197E-01
         -2   -1    0    0    0  501 -0.00000000000E+00  0.00000000000E+00  0.93710686732E+03  0.93710686732E+03  0.00000000000E+00 0.  1.
          2   -1    0    0  501    0  0.00000000000E+00 -0.00000000000E+00 -0.12918589099E+04  0.12918589099E+04  0.00000000000E+00 0. -1.
         23    2    1    2    0    0  0.80842938669E+03 -0.35599800432E+03  0.11282219759E+03  0.89543852062E+03  0.93747765807E+02 0.  0.
        254    2    1    2    0    0 -0.80842938669E+03  0.35599800432E+03 -0.46757424016E+03  0.13335272566E+04  0.88282309760E+03 0.  0.
         23    2    4    4    0    0 -0.86830232856E+03  0.17869036286E+02 -0.43873036309E+03  0.97734212253E+03  0.91896989779E+02 0.  0.
         23    2    4    4    0    0  0.59872941872E+02  0.33812896804E+03 -0.28843877071E+02  0.35618513406E+03  0.90110555900E+02 0.  0.
         11    1    3    3    0    0  0.41469223333E+03 -0.22310763271E+03  0.31139164463E+02  0.47192829087E+03  0.00000000000E+00 0.  1.
        -11    1    3    3    0    0  0.39373715336E+03 -0.13289037161E+03  0.81683033124E+02  0.42351022975E+03  0.00000000000E+00 0. -1.
          3    1    6    6  502    0  0.67152886789E+02  0.29790001235E+03  0.13224308506E+01  0.30537792387E+03  0.00000000000E+00 0. -1.
          3    1    5    5  503    0 -0.67981067886E+03  0.40384592096E+02 -0.37290072586E+03  0.77642026359E+03  0.00000000000E+00 0. -1.
         -3    1    5    5    0  503 -0.18849164971E+03 -0.22515555810E+02 -0.65829637230E+02  0.20092185894E+03  0.00000000000E+00 0.  1.
         -3    1    6    6    0  502 -0.72799449173E+01  0.40228955688E+02 -0.30166307921E+02  0.50807210191E+02  0.00000000000E+00 0.  1.
<mgrwt>
<rscale>  0 0.22005543E+04</rscale>
<asrwt>0</asrwt>
<pdfrwt beam="1">  1        2 0.19874752E+00 0.22005543E+04</pdfrwt>
<pdfrwt beam="2">  1       -2 0.14417029E+00 0.22005543E+04</pdfrwt>
<totfact> 0.50823701E+00</totfact>
</mgrwt>
</event>
<event>
12    1  0.4820219E-008  0.1908022E+04  0.7818608E-02  0.8650874E-01
          2   -1    0    0  501    0  0.00000000000E+00  0.00000000000E+00  0.14672487993E+04  0.14672487993E+04  0.00000000000E+00 0. -1.
         -2   -1    0    0    0  501 -0.00000000000E+00 -0.00000000000E+00 -0.62030180119E+03  0.62030180119E+03  0.00000000000E+00 0.  1.
         23    2    1    2    0    0 -0.60790007822E+03 -0.25076408072E+03  0.62276907351E+03  0.91061175025E+03  0.94590229354E+02 0.  0.
        254    2    1    2    0    0  0.60790007822E+03  0.25076408072E+03  0.22417792460E+03  0.11769388503E+04  0.95000220320E+03 0.  0.
         23    2    4    4    0    0  0.55554949184E+03  0.57899577041E+03  0.11201865755E+03  0.81458098399E+03  0.84395851838E+02 0.  0.
         23    2    4    4    0    0  0.52350586383E+02 -0.32823168969E+03  0.11215926705E+03  0.36235786626E+03  0.90812422295E+02 0.  0.
         11    1    3    3    0    0 -0.51760695735E+02 -0.14916137476E+02  0.91346960980E+02  0.10604682013E+03  0.00000000000E+00 0. -1.
        -11    1    3    3    0    0 -0.55613938248E+03 -0.23584794325E+03  0.53142211253E+03  0.80456493012E+03  0.00000000000E+00 0.  1.
          1    1    5    5  502    0  0.13403674001E+03  0.18113994716E+03  0.56443630237E+02  0.23230026157E+03  0.00000000000E+00 0. -1.
          3    1    6    6  503    0  0.34109015414E+02 -0.15981321088E+03  0.82405924727E+01  0.16362027585E+03  0.00000000000E+00 0. -1.
         -1    1    5    5    0  502  0.42151275182E+03  0.39785582325E+03  0.55575027312E+02  0.58228072243E+03  0.00000000000E+00 0.  1.
         -3    1    6    6    0  503  0.18241570969E+02 -0.16841847881E+03  0.10391867458E+03  0.19873759041E+03  0.00000000000E+00 0.  1.
<mgrwt>
<rscale>  0 0.19080221E+04</rscale>
<asrwt>0</asrwt>
<pdfrwt beam="1">  1        2 0.22573058E+00 0.19080221E+04</pdfrwt>
<pdfrwt beam="2">  1       -2 0.95431047E-01 0.19080221E+04</pdfrwt>
<totfact> 0.11435616E+01</totfact>
</mgrwt>
</event>
<event>
12    1  0.4820219E-008  0.1847939E+04  0.7818608E-02  0.8681213E-01
          2   -1    0    0  501    0  0.00000000000E+00  0.00000000000E+00  0.72431024229E+03  0.72431024229E+03  0.00000000000E+00 0. -1.
         -2   -1    0    0    0  501 -0.00000000000E+00 -0.00000000000E+00 -0.11786659447E+04  0.11786659447E+04  0.00000000000E+00 0.  1.
         23    2    1    2    0    0 -0.54825974211E+03 -0.23894506045E+03  0.21230970145E+03  0.64140075158E+03  0.92930232221E+02 0.  0.
        254    2    1    2    0    0  0.54825974211E+03  0.23894506045E+03 -0.66666540382E+03  0.12615754354E+04  0.88850792439E+03 0.  0.
         23    2    4    4    0    0  0.54599950797E+03  0.65924516442E+02  0.11004454006E+02  0.55624356368E+03  0.82609318836E+02 0.  0.
         23    2    4    4    0    0  0.22602341409E+01  0.17302054401E+03 -0.67766985783E+03  0.70533187167E+03  0.91188791439E+02 0.  0.
         11    1    3    3    0    0 -0.46834528525E+03 -0.18605954077E+03  0.14533833918E+03  0.52448898155E+03  0.00000000000E+00 0. -1.
        -11    1    3    3    0    0 -0.79914456862E+02 -0.52885519685E+02  0.66971362274E+02  0.11691177004E+03  0.00000000000E+00 0.  1.
          1    1    5    5  502    0  0.19503685631E+02  0.10867069247E+02 -0.13884641725E+02  0.26292018238E+02  0.00000000000E+00 0. -1.
          3    1    6    6  503    0  0.38723183924E+02  0.77460143654E+02 -0.22130096639E+03  0.23764190825E+03  0.00000000000E+00 0. -1.
         -1    1    5    5    0  502  0.52649582234E+03  0.55057447195E+02  0.24889095731E+02  0.52995154545E+03  0.00000000000E+00 0.  1.
         -3    1    6    6    0  503 -0.36462949783E+02  0.95560400355E+02 -0.45636889143E+03  0.46768996343E+03  0.00000000000E+00 0.  1.
<mgrwt>
<rscale>  0 0.18479392E+04</rscale>
<asrwt>0</asrwt>
<pdfrwt beam="1">  1        2 0.11143235E+00 0.18479392E+04</pdfrwt>
<pdfrwt beam="2">  1       -2 0.18133322E+00 0.18479392E+04</pdfrwt>
<totfact> 0.65447483E+00</totfact>
</mgrwt>
</event>
<event>
12    1  0.4820219E-008  0.1920504E+04  0.7818608E-02  0.8644717E-01
         -1   -1    0    0    0  501 -0.00000000000E+00  0.00000000000E+00  0.44809251590E+03  0.44809251590E+03  0.00000000000E+00 0.  1.
          1   -1    0    0  501    0  0.00000000000E+00 -0.00000000000E+00 -0.20577975882E+04  0.20577975882E+04  0.00000000000E+00 0. -1.
         23    2    1    2    0    0  0.40310397723E+03  0.62470573159E+03 -0.62579440417E+03  0.97582319414E+03  0.88669060971E+02 0.  0.
        254    2    1    2    0    0 -0.40310397723E+03 -0.62470573159E+03 -0.98391066811E+03  0.15300669099E+04  0.90569005655E+03 0.  0.
         23    2    4    4    0    0 -0.92446699204E+02 -0.27423662287E+03 -0.10073767199E+04  0.10522466802E+04  0.93075790165E+02 0.  0.
         23    2    4    4    0    0 -0.31065727803E+03 -0.35046910872E+03  0.23466051790E+02  0.47782022973E+03  0.91787666885E+02 0.  0.
         11    1    3    3    0    0  0.38915433088E+03  0.58154841369E+03 -0.56167597508E+03  0.89728454333E+03  0.00000000000E+00 0. -1.
        -11    1    3    3    0    0  0.13949646355E+02  0.43157317902E+02 -0.64118429092E+02  0.78538650811E+02  0.00000000000E+00 0.  1.
          2    1    5    5  502    0 -0.60610592726E+02 -0.15907170580E+03 -0.74096983298E+03  0.76027215188E+03  0.00000000000E+00 0. -1.
          1    1    6    6  503    0 -0.25730794886E+03 -0.26501708923E+03  0.52234198988E+02  0.37305475426E+03  0.00000000000E+00 0. -1.
         -2    1    5    5    0  502 -0.31836106478E+02 -0.11516491707E+03 -0.26640688692E+03  0.29197452834E+03  0.00000000000E+00 0.  1.
         -1    1    6    6    0  503 -0.53349329172E+02 -0.85452019486E+02 -0.28768147198E+02  0.10476547547E+03  0.00000000000E+00 0.  1.
<mgrwt>
<rscale>  0 0.19205038E+04</rscale>
<asrwt>0</asrwt>
<pdfrwt beam="1">  1        1 0.31658424E+00 0.19205038E+04</pdfrwt>
<pdfrwt beam="2">  1       -1 0.68937312E-01 0.19205038E+04</pdfrwt>
<totfact> 0.54138593E+00</totfact>
</mgrwt>
</event>
<event>
12    1  0.4820219E-008  0.1714285E+04  0.7818608E-02  0.8753259E-01
          2   -1    0    0  501    0  0.00000000000E+00  0.00000000000E+00  0.83965679933E+03  0.83965679933E+03  0.00000000000E+00 0.  1.
         -2   -1    0    0    0  501 -0.00000000000E+00 -0.00000000000E+00 -0.87499249057E+03  0.87499249057E+03  0.00000000000E+00 0. -1.
         23    2    1    2    0    0  0.70161809847E+02 -0.58830299901E+03  0.15788676075E+03  0.61988724093E+03  0.91152970561E+02 0.  0.
        254    2    1    2    0    0 -0.70161809847E+02  0.58830299901E+03 -0.19322245199E+03  0.10947620490E+04  0.90008106842E+03 0.  0.
         23    2    4    4    0    0  0.35273228933E+03  0.14207387531E+03  0.10614034601E+03  0.40480216723E+03  0.89408990389E+02 0.  0.
         23    2    4    4    0    0 -0.42289409917E+03  0.44622912370E+03 -0.29936279800E+03  0.68995988175E+03  0.92014692563E+02 0.  0.
         11    1    3    3    0    0  0.61789175969E+02 -0.58238577913E+03  0.16369828680E+03  0.60810215187E+03  0.00000000000E+00 0.  1.
        -11    1    3    3    0    0  0.83726338776E+01 -0.59172198744E+01 -0.58115260527E+01  0.11785089060E+02  0.00000000000E+00 0. -1.
          2    1    5    5  502    0  0.70960264505E+01  0.15021198632E+02  0.21112421961E+02  0.26864928081E+02  0.00000000000E+00 0. -1.
          4    1    6    6  503    0 -0.29361902888E+02  0.75326069877E+02 -0.37517751866E+02  0.89127548207E+02  0.00000000000E+00 0. -1.
         -2    1    5    5    0  502  0.34563626288E+03  0.12705267667E+03  0.85027924045E+02  0.37793723914E+03  0.00000000000E+00 0.  1.
         -4    1    6    6    0  503 -0.39353219629E+03  0.37090305382E+03 -0.26184504613E+03  0.60083233354E+03  0.00000000000E+00 0.  1.
<mgrwt>
<rscale>  0 0.17142852E+04</rscale>
<asrwt>0</asrwt>
<pdfrwt beam="1">  1        2 0.12917797E+00 0.17142852E+04</pdfrwt>
<pdfrwt beam="2">  1       -2 0.13461423E+00 0.17142852E+04</pdfrwt>
<totfact> 0.12188325E+01</totfact>
</mgrwt>
</event>
<event>
12    1  0.4820219E-008  0.1373819E+04  0.7818608E-02  0.8972991E-01
          2   -1    0    0  501    0  0.00000000000E+00  0.00000000000E+00  0.26814301043E+04  0.26814301043E+04  0.00000000000E+00 0. -1.
         -2   -1    0    0    0  501 -0.00000000000E+00 -0.00000000000E+00 -0.17596747533E+03  0.17596747533E+03  0.00000000000E+00 0.  1.
         23    2    1    2    0    0 -0.30982716465E+03 -0.17143405030E+03  0.42937354598E+03  0.56381919290E+03  0.90265911328E+02 0.  0.
        254    2    1    2    0    0  0.30982716465E+03  0.17143405030E+03  0.20760890830E+04  0.22935783868E+04  0.90828047983E+03 0.  0.
         23    2    4    4    0    0 -0.12586215653E+03 -0.29150890486E+03  0.77883761059E+03  0.84592420685E+03  0.90448969042E+02 0.  0.
         23    2    4    4    0    0  0.43568932118E+03  0.46294295516E+03  0.12972514724E+04  0.14476541799E+04  0.93273134297E+02 0.  0.
         11    1    3    3    0    0 -0.26890704101E+03 -0.17320237676E+03  0.40529273488E+03  0.51630636348E+03  0.00000000000E+00 0.  1.
        -11    1    3    3    0    0 -0.40920123641E+02  0.17683264632E+01  0.24080811096E+02  0.47512829429E+02  0.00000000000E+00 0. -1.
          2    1    5    5  502    0 -0.71231285607E+02 -0.19080720578E+03  0.38229707582E+03  0.43316548802E+03  0.00000000000E+00 0. -1.
          3    1    6    6  503    0  0.14105094573E+03  0.10051230115E+03  0.40672836708E+03  0.44207019415E+03  0.00000000000E+00 0. -1.
         -2    1    5    5    0  502 -0.54630870923E+02 -0.10070169908E+03  0.39654053477E+03  0.41275871883E+03  0.00000000000E+00 0.  1.
         -3    1    6    6    0  503  0.29463837544E+03  0.36243065400E+03  0.89052310536E+03  0.10055839858E+04  0.00000000000E+00 0.  1.
<mgrwt>
<rscale>  0 0.13738187E+04</rscale>
<asrwt>0</asrwt>
<pdfrwt beam="1">  1        2 0.41252768E+00 0.13738187E+04</pdfrwt>
<pdfrwt beam="2">  1       -2 0.27071921E-01 0.13738187E+04</pdfrwt>
<totfact> 0.33138246E+01</totfact>
</mgrwt>
</event>
<event>
12    1  0.4820219E-008  0.2614257E+04  0.7818608E-02  0.8363375E-01
          1   -1    0    0  501    0  0.00000000000E+00  0.00000000000E+00  0.24143012666E+04  0.24143012666E+04  0.00000000000E+00 0. -1.
         -1   -1    0    0    0  501 -0.00000000000E+00 -0.00000000000E+00 -0.70769313915E+03  0.70769313915E+03  0.00000000000E+00 0.  1.
         23    2    1    2    0    0  0.10754601342E+04  0.17537948532E+03  0.11901053087E+04  0.16161830674E+04  0.91239231598E+02 0.  0.
        254    2    1    2    0    0 -0.10754601342E+04 -0.17537948532E+03  0.51650281867E+03  0.15058113383E+04  0.90184264750E+03 0.  0.
         23    2    4    4    0    0 -0.34175127033E+03  0.34339128134E+03  0.69219038621E+02  0.49794022952E+03  0.91878691751E+02 0.  0.
         23    2    4    4    0    0 -0.73370886384E+03 -0.51877076666E+03  0.44728378005E+03  0.10078711088E+04  0.91047168186E+02 0.  0.
         13    1    3    3    0    0  0.59103973785E+03  0.11618659131E+03  0.59657640609E+03  0.84777986767E+03  0.00000000000E+00 0.  1.
        -13    1    3    3    0    0  0.48442039632E+03  0.59192894015E+02  0.59352890264E+03  0.76840319972E+03  0.00000000000E+00 0. -1.
          1    1    5    5  502    0 -0.22596112327E+03  0.28394141311E+03  0.54548801495E+02  0.36695602877E+03  0.00000000000E+00 0. -1.
          3    1    6    6  503    0 -0.55143493509E+03 -0.40787884951E+03  0.38019674393E+03  0.78421630155E+03  0.00000000000E+00 0. -1.
         -1    1    5    5    0  502 -0.11579014706E+03  0.59449868228E+02  0.14670237126E+02  0.13098420075E+03  0.00000000000E+00 0.  1.
         -3    1    6    6    0  503 -0.18227392875E+03 -0.11089191715E+03  0.67087036116E+02  0.22365480725E+03  0.00000000000E+00 0.  1.
<mgrwt>
<rscale>  0 0.26142566E+04</rscale>
<asrwt>0</asrwt>
<pdfrwt beam="1">  1        1 0.37143096E+00 0.26142566E+04</pdfrwt>
<pdfrwt beam="2">  1       -1 0.10887587E+00 0.26142566E+04</pdfrwt>
<totfact> 0.10678156E+00</totfact>
</mgrwt>
</event>
<event>
12    1  0.4820219E-008  0.2027939E+04  0.7818608E-02  0.8593669E-01
         -1   -1    0    0    0  501 -0.00000000000E+00  0.00000000000E+00  0.54615968261E+03  0.54615968261E+03  0.00000000000E+00 0.  1.
          1   -1    0    0  501    0  0.00000000000E+00 -0.00000000000E+00 -0.18824788915E+04  0.18824788915E+04  0.00000000000E+00 0. -1.
         23    2    1    2    0    0  0.68062062725E+03  0.20283275855E+03 -0.61002704329E+02  0.71865651133E+03  0.91434595060E+02 0.  0.
        254    2    1    2    0    0 -0.68062062725E+03 -0.20283275855E+03 -0.12753165046E+04  0.17099820628E+04  0.89062949761E+03 0.  0.
         23    2    4    4    0    0 -0.57440393784E+03  0.10962137694E+03 -0.27403725417E+03  0.65187596022E+03  0.88820722561E+02 0.  0.
         23    2    4    4    0    0 -0.10621668941E+03 -0.31245413549E+03 -0.10012792504E+04  0.10581061026E+04  0.90104467685E+02 0.  0.
         13    1    3    3    0    0  0.36341676813E+03  0.11480660912E+03  0.12636896503E+02  0.38132924882E+03  0.00000000000E+00 0. -1.
        -13    1    3    3    0    0  0.31720385912E+03  0.88026149423E+02 -0.73639600832E+02  0.33732726251E+03  0.00000000000E+00 0.  1.
          2    1    5    5  502    0 -0.12026311656E+02  0.17635260195E+02 -0.62547419936E+01  0.22243119646E+02  0.00000000000E+00 0. -1.
          1    1    6    6  503    0  0.14262472675E+02 -0.61605656958E+02 -0.16254816129E+03  0.17441496448E+03  0.00000000000E+00 0. -1.
         -2    1    5    5    0  502 -0.56237762618E+03  0.91986116745E+02 -0.26778251218E+03  0.62963284058E+03  0.00000000000E+00 0.  1.
         -1    1    6    6    0  503 -0.12047916208E+03 -0.25084847853E+03 -0.83873108911E+03  0.88369113808E+03  0.00000000000E+00 0.  1.
<mgrwt>
<rscale>  0 0.20279389E+04</rscale>
<asrwt>0</asrwt>
<pdfrwt beam="1">  1        1 0.28961214E+00 0.20279389E+04</pdfrwt>
<pdfrwt beam="2">  1       -1 0.84024565E-01 0.20279389E+04</pdfrwt>
<totfact> 0.46513134E+00</totfact>
</mgrwt>
</event>
<event>
12    1  0.4820219E-008  0.1694767E+04  0.7818608E-02  0.8764354E-01
          2   -1    0    0  501    0  0.00000000000E+00  0.00000000000E+00  0.21998566063E+04  0.21998566063E+04  0.00000000000E+00 0.  1.
         -2   -1    0    0    0  501 -0.00000000000E+00 -0.00000000000E+00 -0.32641169649E+03  0.32641169649E+03  0.00000000000E+00 0. -1.
         23    2    1    2    0    0  0.38883233332E+03 -0.47118541774E+03  0.70047761143E+03  0.93391762893E+03  0.91252244860E+02 0.  0.
        254    2    1    2    0    0 -0.38883233332E+03  0.47118541774E+03  0.11729672983E+04  0.15923506738E+04  0.88686081438E+03 0.  0.
         23    2    4    4    0    0 -0.32386599092E+02  0.44873597319E+03  0.11317535390E+04  0.12213433999E+04  0.91655670995E+02 0.  0.
         23    2    4    4    0    0 -0.35644573423E+03  0.22449444554E+02  0.41213759387E+02  0.37100727395E+03  0.91598495352E+02 0.  0.
         13    1    3    3    0    0  0.27253852396E+03 -0.36775982054E+03  0.56839610579E+03  0.72979357747E+03  0.00000000000E+00 0.  1.
        -13    1    3    3    0    0  0.11629380936E+03 -0.10342559720E+03  0.13208150564E+03  0.20412405146E+03  0.00000000000E+00 0. -1.
          1    1    5    5  502    0  0.19391571984E+02  0.22394897780E+02  0.77423086091E+02  0.82896916532E+02  0.00000000000E+00 0. -1.
          1    1    6    6  503    0 -0.76519160466E+02  0.25202809922E+02  0.42454250642E+02  0.91064410963E+02  0.00000000000E+00 0. -1.
         -1    1    5    5    0  502 -0.51778171076E+02  0.42634107541E+03  0.10543304529E+04  0.11384464833E+04  0.00000000000E+00 0.  1.
         -1    1    6    6    0  503 -0.27992657376E+03 -0.27533653681E+01 -0.12404912549E+01  0.27994286298E+03  0.00000000000E+00 0.  1.
<mgrwt>
<rscale>  0 0.16947672E+04</rscale>
<asrwt>0</asrwt>
<pdfrwt beam="1">  1        2 0.33843947E+00 0.16947672E+04</pdfrwt>
<pdfrwt beam="2">  1       -2 0.50217186E-01 0.16947672E+04</pdfrwt>
<totfact> 0.18451109E+01</totfact>
</mgrwt>
</event>
<event>
12    1  0.4820219E-008  0.1177978E+04  0.7818608E-02  0.9132354E-01
         -1   -1    0    0    0  501 -0.00000000000E+00  0.00000000000E+00  0.36229358882E+03  0.36229358882E+03  0.00000000000E+00 0.  1.
          1   -1    0    0  501    0  0.00000000000E+00 -0.00000000000E+00 -0.95753249601E+03  0.95753249601E+03  0.00000000000E+00 0. -1.
         23    2    1    2    0    0 -0.16923432888E+03  0.17066827837E+03 -0.13540492235E+03  0.29139683599E+03  0.93860021914E+02 0.  0.
        254    2    1    2    0    0  0.16923432888E+03 -0.17066827837E+03 -0.45983398484E+03  0.10284292489E+04  0.88794791906E+03 0.  0.
         23    2    4    4    0    0 -0.70946491166E+02  0.23390880733E+03 -0.48233040432E+03  0.54868157807E+03  0.93070513243E+02 0.  0.
         23    2    4    4    0    0  0.24018082004E+03 -0.40457708570E+03  0.22496419475E+02  0.47974767078E+03  0.91007110385E+02 0.  0.
         13    1    3    3    0    0 -0.15970987306E+03  0.16815746803E+03 -0.96372979502E+02  0.25114125265E+03  0.00000000000E+00 0.  1.
        -13    1    3    3    0    0 -0.95244558205E+01  0.25108103426E+01 -0.39031942844E+02  0.40255583333E+02  0.00000000000E+00 0. -1.
          4    1    5    5  502    0 -0.90098686403E+02  0.20785347542E+03 -0.39219906821E+03  0.45292488300E+03  0.00000000000E+00 0.  1.
          3    1    6    6  503    0  0.27460161875E+02 -0.10099421027E+03  0.30349466927E+02  0.10897238706E+03  0.00000000000E+00 0. -1.
         -4    1    5    5    0  502  0.19152195237E+02  0.26055331910E+02 -0.90131336109E+02  0.95756695077E+02  0.00000000000E+00 0. -1.
         -3    1    6    6    0  503  0.21272065817E+03 -0.30358287542E+03 -0.78530474519E+01  0.37077528372E+03  0.00000000000E+00 0.  1.
<mgrwt>
<rscale>  0 0.11779777E+04</rscale>
<asrwt>0</asrwt>
<pdfrwt beam="1">  1        1 0.14731269E+00 0.11779777E+04</pdfrwt>
<pdfrwt beam="2">  1       -1 0.55737475E-01 0.11779777E+04</pdfrwt>
<totfact> 0.52746567E+01</totfact>
</mgrwt>
</event>
<event>
12    1  0.4820219E-008  0.1068087E+04  0.7818608E-02  0.9236867E-01
          4   -1    0    0  501    0  0.00000000000E+00  0.00000000000E+00  0.43656563223E+03  0.43656563223E+03  0.00000000000E+00 0.  1.
         -4   -1    0    0    0  501 -0.00000000000E+00 -0.00000000000E+00 -0.65328705875E+03  0.65328705875E+03  0.00000000000E+00 0. -1.
         23    2    1    2    0    0 -0.50133907338E+02 -0.44624811861E+02 -0.13656440314E+03  0.17864541561E+03  0.93592552129E+02 0.  0.
        254    2    1    2    0    0  0.50133907338E+02  0.44624811861E+02 -0.80157023374E+02  0.91120727537E+03  0.90518990703E+03 0.  0.
         23    2    4    4    0    0  0.45672355092E+03 -0.21720219970E+02 -0.13565495957E+03  0.48560842156E+03  0.91351524946E+02 0.  0.
         23    2    4    4    0    0 -0.40658964359E+03  0.66345031831E+02  0.55497936198E+02  0.42559885381E+03  0.91310250906E+02 0.  0.
         11    1    3    3    0    0 -0.64281302533E+02  0.97359648495E-01 -0.55205962092E+02  0.84733662642E+02  0.00000000000E+00 0. -1.
        -11    1    3    3    0    0  0.14147395195E+02 -0.44722171510E+02 -0.81358441049E+02  0.93911752967E+02  0.00000000000E+00 0.  1.
          4    1    5    5  502    0  0.22597800766E+03 -0.17498143404E+02 -0.11428444961E+03  0.25383691692E+03  0.00000000000E+00 0. -1.
          1    1    6    6  503    0 -0.34349362619E+03  0.60430462270E+02  0.79704571180E+02  0.35776043754E+03  0.00000000000E+00 0. -1.
         -4    1    5    5    0  502  0.23074554327E+03 -0.42220765660E+01 -0.21370509957E+02  0.23177150464E+03  0.00000000000E+00 0.  1.
         -1    1    6    6    0  503 -0.63096017399E+02  0.59145695606E+01 -0.24206634982E+02  0.67838416269E+02  0.00000000000E+00 0.  1.
<mgrwt>
<rscale>  0 0.10680874E+04</rscale>
<asrwt>0</asrwt>
<pdfrwt beam="1">  1        4 0.67163944E-01 0.10680874E+04</pdfrwt>
<pdfrwt beam="2">  1       -4 0.10050570E+00 0.10680874E+04</pdfrwt>
<totfact> 0.33123821E+00</totfact>
</mgrwt>
</event>
<event>
12    1  0.4820219E-008  0.1741660E+04  0.7818608E-02  0.8737954E-01
          2   -1    0    0  501    0  0.00000000000E+00  0.00000000000E+00  0.10647604846E+04  0.10647604846E+04  0.00000000000E+00 0. -1.
         -2   -1    0    0    0  501 -0.00000000000E+00 -0.00000000000E+00 -0.71222131371E+03  0.71222131371E+03  0.00000000000E+00 0.  1.
         23    2    1    2    0    0 -0.15966913361E+03  0.31589046552E+02  0.75785064506E+03  0.77867237113E+03  0.74168465438E+02 0.  0.
        254    2    1    2    0    0  0.15966913361E+03 -0.31589046552E+02 -0.40531147414E+03  0.99830942720E+03  0.89769272096E+03 0.  0.
         23    2    4    4    0    0  0.35260351706E+03  0.32271840357E+03 -0.13718890128E+03  0.50548163321E+03  0.90633760976E+02 0.  0.
         23    2    4    4    0    0 -0.19293438345E+03 -0.35430745012E+03 -0.26812257286E+03  0.49282779399E+03  0.90730782666E+02 0.  0.
         11    1    3    3    0    0 -0.80198002655E+02  0.42085546120E+02  0.51585538362E+03  0.52374582540E+03  0.00000000000E+00 0. -1.
        -11    1    3    3    0    0 -0.79471130956E+02 -0.10496499568E+02  0.24199526144E+03  0.25492654573E+03  0.00000000000E+00 0.  1.
          4    1    5    5  502    0  0.12401085492E+03  0.65537399125E+02 -0.61571357226E+02  0.15318248873E+03  0.00000000000E+00 0. -1.
          1    1    6    6  503    0 -0.83881116245E+02 -0.16438275802E+03 -0.69602583876E+02  0.19723653941E+03  0.00000000000E+00 0. -1.
         -4    1    5    5    0  502  0.22859266214E+03  0.25718100445E+03 -0.75617544056E+02  0.35229914448E+03  0.00000000000E+00 0.  1.
         -1    1    6    6    0  503 -0.10905326720E+03 -0.18992469211E+03 -0.19851998898E+03  0.29559125458E+03  0.00000000000E+00 0.  1.
<mgrwt>
<rscale>  0 0.17416603E+04</rscale>
<asrwt>0</asrwt>
<pdfrwt beam="1">  1        2 0.16380931E+00 0.17416603E+04</pdfrwt>
<pdfrwt beam="2">  1       -2 0.10957251E+00 0.17416603E+04</pdfrwt>
<totfact> 0.14416294E+01</totfact>
</mgrwt>
</event>
<event>
12    1  0.4820219E-008  0.1412511E+04  0.7818608E-02  0.8944812E-01
          1   -1    0    0  501    0  0.00000000000E+00  0.00000000000E+00  0.63373950159E+03  0.63373950159E+03  0.00000000000E+00 0. -1.
         -1   -1    0    0    0  501 -0.00000000000E+00 -0.00000000000E+00 -0.78706965530E+03  0.78706965530E+03  0.00000000000E+00 0.  1.
         23    2    1    2    0    0 -0.11170056635E+03  0.39148782334E+03  0.59953350365E+01  0.41711254004E+03  0.90593568551E+02 0.  0.
        254    2    1    2    0    0  0.11170056635E+03 -0.39148782334E+03 -0.15932548875E+03  0.10036966169E+04  0.90348356652E+03 0.  0.
         23    2    4    4    0    0 -0.13649761182E+03  0.23441591162E+03  0.57247738009E+02  0.29083722613E+03  0.87900915467E+02 0.  0.
         23    2    4    4    0    0  0.24819817817E+03 -0.62590373496E+03 -0.21657322676E+03  0.71285939073E+03  0.88919780204E+02 0.  0.
         13    1    3    3    0    0 -0.44876358096E+02  0.18979947961E+03 -0.41498358704E+02  0.19939870549E+03  0.00000000000E+00 0. -1.
        -13    1    3    3    0    0 -0.66824208257E+02  0.20168834373E+03  0.47493693741E+02  0.21771383454E+03  0.00000000000E+00 0.  1.
          4    1    5    5  502    0 -0.11484332118E+03  0.23525141589E+03  0.61111895248E+02  0.26882500040E+03  0.00000000000E+00 0. -1.
          1    1    6    6  503    0  0.19261755386E+03 -0.56041111443E+03 -0.17839777751E+03  0.61886016696E+03  0.00000000000E+00 0. -1.
         -4    1    5    5    0  502 -0.21654290640E+02 -0.83550426536E+00 -0.38641572389E+01  0.22012225732E+02  0.00000000000E+00 0.  1.
         -1    1    6    6    0  503  0.55580624314E+02 -0.65492620536E+02 -0.38175449253E+02  0.93999223770E+02  0.00000000000E+00 0.  1.
<mgrwt>
<rscale>  0 0.14125114E+04</rscale>
<asrwt>0</asrwt>
<pdfrwt beam="1">  1        1 0.97498385E-01 0.14125114E+04</pdfrwt>
<pdfrwt beam="2">  1       -1 0.12108764E+00 0.14125114E+04</pdfrwt>
<totfact> 0.18655974E+01</totfact>
</mgrwt>
</event>
<event>
12    1  0.4820219E-008  0.1976398E+04  0.7818608E-02  0.8617736E-01
          2   -1    0    0  501    0  0.00000000000E+00  0.00000000000E+00  0.28729421133E+04  0.28729421133E+04  0.00000000000E+00 0. -1.
         -2   -1    0    0    0  501 -0.00000000000E+00 -0.00000000000E+00 -0.33990840848E+03  0.33990840848E+03  0.00000000000E+00 0.  1.
         23    2    1    2    0    0 -0.26187395201E+03 -0.33055813787E+03 -0.58516922551E+02  0.43543877332E+03  0.91301948669E+02 0.  0.
        254    2    1    2    0    0  0.26187395201E+03  0.33055813787E+03  0.25915506273E+04  0.27774117484E+04  0.90555768289E+03 0.  0.
         23    2    4    4    0    0  0.36182413268E+03  0.59020264524E+03  0.19700799831E+04  0.20903325694E+04  0.94969708719E+02 0.  0.
         23    2    4    4    0    0 -0.99950180665E+02 -0.25964450737E+03  0.62147064425E+03  0.68707917902E+03  0.91906081137E+02 0.  0.
         13    1    3    3    0    0 -0.10823475546E+03 -0.14486583613E+03 -0.70594046978E+02  0.19412468219E+03  0.00000000000E+00 0.  1.
        -13    1    3    3    0    0 -0.15363919655E+03 -0.18569230174E+03  0.12077124427E+02  0.24131409113E+03  0.00000000000E+00 0. -1.
          1    1    5    5  502    0  0.22026820542E+02  0.13656709086E+02  0.41386324065E+02  0.48831489285E+02  0.00000000000E+00 0. -1.
          3    1    6    6  503    0 -0.53476396598E+02 -0.92971491112E+02  0.34157451115E+03  0.35801755519E+03  0.00000000000E+00 0. -1.
         -1    1    5    5    0  502  0.33979731213E+03  0.57654593616E+03  0.19286936590E+04  0.20415010801E+04  0.00000000000E+00 0.  1.
         -3    1    6    6    0  503 -0.46473784067E+02 -0.16667301626E+03  0.27989613310E+03  0.32906162383E+03  0.00000000000E+00 0.  1.
<mgrwt>
<rscale>  0 0.19763979E+04</rscale>
<asrwt>0</asrwt>
<pdfrwt beam="1">  1        2 0.44199108E+00 0.19763979E+04</pdfrwt>
<pdfrwt beam="2">  1       -2 0.52293603E-01 0.19763979E+04</pdfrwt>
<totfact> 0.67195643E+00</totfact>
</mgrwt>
</event>
<event>
12    1  0.4820219E-008  0.1898990E+04  0.7818608E-02  0.8655359E-01
         -2   -1    0    0    0  501 -0.00000000000E+00  0.00000000000E+00  0.41485257789E+03  0.41485257789E+03  0.00000000000E+00 0.  1.
          2   -1    0    0  501    0  0.00000000000E+00 -0.00000000000E+00 -0.21731595627E+04  0.21731595627E+04  0.00000000000E+00 0. -1.
         23    2    1    2    0    0 -0.24098011422E+02 -0.60932718091E+03 -0.13313820760E+03  0.63096383300E+03  0.92353931540E+02 0.  0.
        254    2    1    2    0    0  0.24098011422E+02  0.60932718091E+03 -0.16251687772E+04  0.19570483076E+04  0.90388284432E+03 0.  0.
         23    2    4    4    0    0  0.22322743948E+02  0.69927507324E+03 -0.16773202876E+04  0.18195397729E+04  0.88530814174E+02 0.  0.
         23    2    4    4    0    0  0.17752674739E+01 -0.89947892325E+02  0.52151510369E+02  0.13750853470E+03  0.89972452302E+02 0.  0.
         11    1    3    3    0    0 -0.61536147603E+01 -0.26034987635E+03 -0.10362238000E+03  0.28028114944E+03  0.00000000000E+00 0. -1.
        -11    1    3    3    0    0 -0.17944396661E+02 -0.34897730456E+03 -0.29515827597E+02  0.35068268356E+03  0.00000000000E+00 0.  1.
          2    1    5    5  502    0  0.31626928811E+02  0.68582504187E+03 -0.16559371464E+04  0.17926193359E+04  0.00000000000E+00 0.  1.
          3    1    6    6  503    0  0.19642328477E+02 -0.87241469259E+02  0.79766621501E+01  0.89780410812E+02  0.00000000000E+00 0. -1.
         -2    1    5    5    0  502 -0.93041848630E+01  0.13450031371E+02 -0.21383141134E+02  0.26920436932E+02  0.00000000000E+00 0. -1.
         -3    1    6    6    0  503 -0.17867061004E+02 -0.27064230661E+01  0.44174848218E+02  0.47728123888E+02  0.00000000000E+00 0.  1.
<mgrwt>
<rscale>  0 0.18989901E+04</rscale>
<asrwt>0</asrwt>
<pdfrwt beam="1">  1        2 0.33433225E+00 0.18989901E+04</pdfrwt>
<pdfrwt beam="2">  1       -2 0.63823473E-01 0.18989901E+04</pdfrwt>
<totfact> 0.11371252E+01</totfact>
</mgrwt>
</event>
<event>
12    1  0.4820219E-008  0.2044532E+04  0.7818608E-02  0.8586079E-01
          2   -1    0    0  501    0  0.00000000000E+00  0.00000000000E+00  0.13863660068E+04  0.13863660068E+04  0.00000000000E+00 0. -1.
         -2   -1    0    0    0  501 -0.00000000000E+00 -0.00000000000E+00 -0.75378956726E+03  0.75378956726E+03  0.00000000000E+00 0.  1.
         23    2    1    2    0    0  0.56930487616E+03  0.42421856943E+03 -0.20392881213E+03  0.74403567932E+03  0.89065678137E+02 0.  0.
        254    2    1    2    0    0 -0.56930487616E+03 -0.42421856943E+03  0.83650525163E+03  0.13961198947E+04  0.86333092597E+03 0.  0.
         23    2    4    4    0    0 -0.24556432584E+03 -0.49628306623E+03  0.88609842259E+03  0.10488152069E+04  0.90797597291E+02 0.  0.
         23    2    4    4    0    0 -0.32374055032E+03  0.72064496800E+02 -0.49593170959E+02  0.34730468785E+03  0.90331766144E+02 0.  0.
         11    1    3    3    0    0  0.50575613971E+03  0.34504421638E+03 -0.19289812697E+03  0.64191469177E+03  0.00000000000E+00 0.  1.
        -11    1    3    3    0    0  0.63548736448E+02  0.79174353049E+02 -0.11030685152E+02  0.10212098756E+03  0.00000000000E+00 0. -1.
          1    1    6    6  502    0 -0.35802596448E+02  0.43675152010E+01  0.22949167144E+02  0.42750033615E+02  0.00000000000E+00 0.  1.
          1    1    5    5  503    0 -0.24033340004E+03 -0.42080636100E+03  0.74570466950E+03  0.88933322818E+03  0.00000000000E+00 0. -1.
         -1    1    5    5    0  503 -0.52309258027E+01 -0.75476705238E+02  0.14039375309E+03  0.15948197868E+03  0.00000000000E+00 0.  1.
         -1    1    6    6    0  502 -0.28793795387E+03  0.67696981599E+02 -0.72542338103E+02  0.30455465423E+03  0.00000000000E+00 0. -1.
<mgrwt>
<rscale>  0 0.20445324E+04</rscale>
<asrwt>0</asrwt>
<pdfrwt beam="1">  1        2 0.21328708E+00 0.20445324E+04</pdfrwt>
<pdfrwt beam="2">  1       -2 0.11596763E+00 0.20445324E+04</pdfrwt>
<totfact> 0.78805521E+00</totfact>
</mgrwt>
</event>
<event>
12    1  0.4820219E-008  0.1524879E+04  0.7818608E-02  0.8868075E-01
         -1   -1    0    0    0  501 -0.00000000000E+00  0.00000000000E+00  0.37324212768E+03  0.37324212768E+03  0.00000000000E+00 0.  1.
          1   -1    0    0  501    0  0.00000000000E+00 -0.00000000000E+00 -0.15574707203E+04  0.15574707203E+04  0.00000000000E+00 0. -1.
         23    2    1    2    0    0  0.21620987961E+02  0.42200523840E+03 -0.84543445162E+02  0.44032351045E+03  0.90450601869E+02 0.  0.
        254    2    1    2    0    0 -0.21620987961E+02 -0.42200523840E+03 -0.10996851475E+04  0.14903893376E+04  0.91290583610E+03 0.  0.
         23    2    4    4    0    0 -0.40442129945E+02 -0.67867638783E+03 -0.55936854748E+03  0.88507401619E+03  0.90695297353E+02 0.  0.
         23    2    4    4    0    0  0.18821141984E+02  0.25667114943E+03 -0.54031660002E+03  0.60531532138E+03  0.90720977245E+02 0.  0.
         11    1    3    3    0    0  0.47123672988E+02  0.23936652170E+03 -0.76747227185E+02  0.25574813616E+03  0.00000000000E+00 0.  1.
        -11    1    3    3    0    0 -0.25502685027E+02  0.18263871670E+03 -0.77962179771E+01  0.18457537429E+03  0.00000000000E+00 0. -1.
          4    1    5    5  502    0 -0.13139410495E+02 -0.42494972487E+03 -0.29395351809E+03  0.51687869329E+03  0.00000000000E+00 0. -1.
          1    1    6    6  503    0 -0.35298255435E+02  0.12573491594E+03 -0.27935839073E+03  0.30837695503E+03  0.00000000000E+00 0. -1.
         -4    1    5    5    0  502 -0.27302719450E+02 -0.25372666296E+03 -0.26541502939E+03  0.36819532291E+03  0.00000000000E+00 0.  1.
         -1    1    6    6    0  503  0.54119397418E+02  0.13093623349E+03 -0.26095820929E+03  0.29693836635E+03  0.00000000000E+00 0.  1.
<mgrwt>
<rscale>  0 0.15248786E+04</rscale>
<asrwt>0</asrwt>
<pdfrwt beam="1">  1        1 0.23961088E+00 0.15248786E+04</pdfrwt>
<pdfrwt beam="2">  1       -1 0.57421867E-01 0.15248786E+04</pdfrwt>
<totfact> 0.17699473E+01</totfact>
</mgrwt>
</event>
<event>
12    1  0.4820219E-008  0.2210620E+04  0.7818608E-02  0.8514021E-01
          2   -1    0    0  501    0  0.00000000000E+00  0.00000000000E+00  0.18491813264E+04  0.18491813264E+04  0.00000000000E+00 0. -1.
         -2   -1    0    0    0  501 -0.00000000000E+00 -0.00000000000E+00 -0.66067655090E+03  0.66067655090E+03  0.00000000000E+00 0.  1.
         23    2    1    2    0    0 -0.45356513557E+03  0.34846394274E+03  0.13108331150E+04  0.14333367338E+04  0.94985711952E+02 0.  0.
        254    2    1    2    0    0  0.45356513557E+03 -0.34846394274E+03 -0.12232833950E+03  0.10765211435E+04  0.90376163792E+03 0.  0.
         23    2    4    4    0    0  0.38984133505E+03 -0.31466259564E+03  0.33180011693E+03  0.60767136259E+03  0.90467406844E+02 0.  0.
         23    2    4    4    0    0  0.63723800516E+02 -0.33801347094E+02 -0.45412845643E+03  0.46884978092E+03  0.91565322651E+02 0.  0.
         11    1    3    3    0    0 -0.11181546238E+03  0.11608199769E+03  0.28557367601E+03  0.32791775226E+03  0.00000000000E+00 0.  1.
        -11    1    3    3    0    0 -0.34174967319E+03  0.23238194505E+03  0.10252594390E+04  0.11054189815E+04  0.00000000000E+00 0. -1.
          1    1    5    5  502    0  0.29112797179E+03 -0.19732029499E+03  0.26526064450E+03  0.44051561186E+03  0.00000000000E+00 0. -1.
          3    1    6    6  503    0  0.69809340600E+01 -0.21988116621E+02 -0.19023827499E+02  0.29901784656E+02  0.00000000000E+00 0. -1.
         -1    1    5    5    0  502  0.98713363259E+02 -0.11734230065E+03  0.66539472431E+02  0.16715575072E+03  0.00000000000E+00 0.  1.
         -3    1    6    6    0  503  0.56742866456E+02 -0.11813230473E+02 -0.43510462893E+03  0.43894799626E+03  0.00000000000E+00 0.  1.
<mgrwt>
<rscale>  0 0.22106205E+04</rscale>
<asrwt>0</asrwt>
<pdfrwt beam="1">  1        2 0.28448943E+00 0.22106205E+04</pdfrwt>
<pdfrwt beam="2">  1       -2 0.10164255E+00 0.22106205E+04</pdfrwt>
<totfact> 0.58798660E+00</totfact>
</mgrwt>
</event>
<event>
12    1  0.4820219E-008  0.1678669E+04  0.7818608E-02  0.8773624E-01
         -2   -1    0    0    0  501 -0.00000000000E+00  0.00000000000E+00  0.10030436609E+04  0.10030436609E+04  0.00000000000E+00 0.  1.
          2   -1    0    0  501    0  0.00000000000E+00 -0.00000000000E+00 -0.70234512092E+03  0.70234512092E+03  0.00000000000E+00 0. -1.
         23    2    1    2    0    0 -0.11972910529E+03  0.12525050642E+03  0.68319336313E+03  0.71088653040E+03  0.92648473624E+02 0.  0.
        254    2    1    2    0    0  0.11972910529E+03 -0.12525050642E+03 -0.38249482319E+03  0.99450225138E+03  0.90150412657E+03 0.  0.
         23    2    4    4    0    0  0.10415154357E+03  0.17770460956E+03  0.21924254444E+03  0.31449048498E+03  0.91708775816E+02 0.  0.
         23    2    4    4    0    0  0.15577561723E+02 -0.30295511598E+03 -0.60173736763E+03  0.68001176641E+03  0.91124530808E+02 0.  0.
         11    1    3    3    0    0 -0.60983988502E+02  0.21623795911E+02  0.37371084146E+03  0.37927091693E+03  0.00000000000E+00 0. -1.
        -11    1    3    3    0    0 -0.58745116787E+02  0.10362671051E+03  0.30948252167E+03  0.33161561347E+03  0.00000000000E+00 0.  1.
          2    1    5    5  502    0  0.69107869088E+00 -0.63893322433E+01  0.30795094057E+02  0.31458527846E+02  0.00000000000E+00 0. -1.
          3    1    6    6  503    0 -0.24615801179E+01  0.50889143205E+01 -0.29123980449E+01  0.63591263559E+01  0.00000000000E+00 0. -1.
         -2    1    5    5    0  502  0.10346046488E+03  0.18409394180E+03  0.18844745038E+03  0.28303195713E+03  0.00000000000E+00 0.  1.
         -3    1    6    6    0  503  0.18039141841E+02 -0.30804403030E+03 -0.59882496959E+03  0.67365264005E+03  0.00000000000E+00 0.  1.
<mgrwt>
<rscale>  0 0.16786695E+04</rscale>
<asrwt>0</asrwt>
<pdfrwt beam="1">  1        2 0.10805310E+00 0.16786695E+04</pdfrwt>
<pdfrwt beam="2">  1       -2 0.15431441E+00 0.16786695E+04</pdfrwt>
<totfact> 0.10796643E+01</totfact>
</mgrwt>
</event>
<event>
12    1  0.4820219E-008  0.2275463E+04  0.7818608E-02  0.8487659E-01
          2   -1    0    0  501    0  0.00000000000E+00  0.00000000000E+00  0.28113169140E+04  0.28113169140E+04  0.00000000000E+00 0.  1.
         -2   -1    0    0    0  501 -0.00000000000E+00 -0.00000000000E+00 -0.46043651188E+03  0.46043651188E+03  0.00000000000E+00 0. -1.
         23    2    1    2    0    0 -0.78210636643E+03 -0.36761017606E+03  0.40769461845E+03  0.95982219215E+03  0.90642863405E+02 0.  0.
        254    2    1    2    0    0  0.78210636643E+03  0.36761017606E+03  0.19431857837E+04  0.23119312337E+04  0.90676757201E+03 0.  0.
         23    2    4    4    0    0  0.60026468531E+03  0.68023806583E+02  0.18362813353E+04  0.19354188178E+04  0.94720256907E+02 0.  0.
         23    2    4    4    0    0  0.18184168112E+03  0.29958636948E+03  0.10690444837E+03  0.37651241597E+03  0.86687072427E+02 0.  0.
         13    1    3    3    0    0 -0.96353860418E+02 -0.41743580843E+02  0.83947769937E+02  0.13443891191E+03  0.00000000000E+00 0.  1.
        -13    1    3    3    0    0 -0.68575250601E+03 -0.32586659522E+03  0.32374684851E+03  0.82538328024E+03  0.00000000000E+00 0. -1.
          4    1    5    5  502    0  0.29567785220E+03  0.71050428889E+02  0.10097335719E+04  0.10545309108E+04  0.00000000000E+00 0. -1.
          1    1    6    6  503    0  0.31128004346E+02  0.13200855601E+03  0.41212206451E+02  0.14175209866E+03  0.00000000000E+00 0.  1.
         -4    1    5    5    0  502  0.30458683311E+03 -0.30266223061E+01  0.82654776342E+03  0.88088790692E+03  0.00000000000E+00 0.  1.
         -1    1    6    6    0  503  0.15071367677E+03  0.16757781347E+03  0.65692241924E+02  0.23476031731E+03  0.00000000000E+00 0. -1.
<mgrwt>
<rscale>  0 0.22754630E+04</rscale>
<asrwt>0</asrwt>
<pdfrwt beam="1">  1        2 0.43251029E+00 0.22754630E+04</pdfrwt>
<pdfrwt beam="2">  1       -2 0.70836388E-01 0.22754630E+04</pdfrwt>
<totfact> 0.37467839E+00</totfact>
</mgrwt>
</event>
<event>
12    1  0.4820219E-008  0.1259457E+04  0.7818608E-02  0.9062349E-01
          1   -1    0    0  501    0  0.00000000000E+00  0.00000000000E+00  0.16384260628E+04  0.16384260628E+04  0.00000000000E+00 0. -1.
         -1   -1    0    0    0  501 -0.00000000000E+00 -0.00000000000E+00 -0.24203603974E+03  0.24203603974E+03  0.00000000000E+00 0.  1.
         23    2    1    2    0    0 -0.19501686907E+03 -0.72585569906E+02  0.29409618071E+02  0.22889933850E+03  0.90717899823E+02 0.  0.
        254    2    1    2    0    0  0.19501686907E+03  0.72585569906E+02  0.13669804050E+04  0.16515627640E+04  0.90317434184E+03 0.  0.
         23    2    4    4    0    0  0.81208240870E+02 -0.40166579837E+03  0.75171325545E+03  0.86093980830E+03  0.90633013510E+02 0.  0.
         23    2    4    4    0    0  0.11380862820E+03  0.47425136827E+03  0.61526714953E+03  0.79062295573E+03  0.93081838579E+02 0.  0.
         11    1    3    3    0    0 -0.43234422493E+02  0.16672613095E+02  0.25243989567E+02  0.52767891041E+02  0.00000000000E+00 0. -1.
        -11    1    3    3    0    0 -0.15178244658E+03 -0.89258183001E+02  0.41656285042E+01  0.17613144745E+03  0.00000000000E+00 0.  1.
          4    1    5    5  502    0  0.24638036064E+02 -0.16713468165E+02  0.68757717013E+02  0.74926607344E+02  0.00000000000E+00 0. -1.
          1    1    6    6  503    0  0.29084527361E+02  0.45646323228E+02  0.35741619715E+02  0.64861081828E+02  0.00000000000E+00 0. -1.
         -4    1    5    5    0  502  0.56570204806E+02 -0.38495233020E+03  0.68295553843E+03  0.78601320096E+03  0.00000000000E+00 0.  1.
         -1    1    6    6    0  503  0.84724100838E+02  0.42860504505E+03  0.57952552981E+03  0.72576187390E+03  0.00000000000E+00 0.  1.
<mgrwt>
<rscale>  0 0.12594573E+04</rscale>
<asrwt>0</asrwt>
<pdfrwt beam="1">  1        1 0.25206554E+00 0.12594573E+04</pdfrwt>
<pdfrwt beam="2">  1       -1 0.37236315E-01 0.12594573E+04</pdfrwt>
<totfact> 0.35915678E+01</totfact>
</mgrwt>
</event>
<event>
12    1  0.4820219E-008  0.1211769E+04  0.7818608E-02  0.9102617E-01
          1   -1    0    0  501    0  0.00000000000E+00  0.00000000000E+00  0.20236160132E+04  0.20236160132E+04  0.00000000000E+00 0. -1.
         -1   -1    0    0    0  501 -0.00000000000E+00 -0.00000000000E+00 -0.18140595854E+03  0.18140595854E+03  0.00000000000E+00 0.  1.
         23    2    1    2    0    0 -0.71564293216E+02  0.11159474034E+03  0.97298617028E+03  0.98588182131E+03  0.87670085552E+02 0.  0.
        254    2    1    2    0    0  0.71564293216E+02 -0.11159474034E+03  0.86922388436E+03  0.12191401504E+04  0.84449849677E+03 0.  0.
         23    2    4    4    0    0 -0.26027635611E+03 -0.32610900950E+03  0.58339974660E+03  0.72310457446E+03  0.91837321575E+02 0.  0.
         23    2    4    4    0    0  0.33184064932E+03  0.21451426916E+03  0.28582413776E+03  0.49603557595E+03  0.90671200825E+02 0.  0.
         13    1    3    3    0    0 -0.56317348579E+02  0.37871470828E+02  0.67999367747E+03  0.68337200224E+03  0.00000000000E+00 0. -1.
        -13    1    3    3    0    0 -0.15246944637E+02  0.73723269512E+02  0.29299249281E+03  0.30250981907E+03  0.00000000000E+00 0.  1.
          4    1    5    5  502    0  0.52528778053E+01 -0.21758636943E+02  0.42611342820E+02  0.48132707630E+02  0.00000000000E+00 0.  1.
          1    1    6    6  503    0  0.31970139369E+03  0.21198631643E+03  0.24936619254E+03  0.45752669591E+03  0.00000000000E+00 0. -1.
         -4    1    5    5    0  502 -0.26552923391E+03 -0.30435037256E+03  0.54078840378E+03  0.67497186683E+03  0.00000000000E+00 0. -1.
         -1    1    6    6    0  503  0.12139255630E+02  0.25279527306E+01  0.36457945220E+02  0.38508880040E+02  0.00000000000E+00 0.  1.
<mgrwt>
<rscale>  0 0.12117690E+04</rscale>
<asrwt>0</asrwt>
<pdfrwt beam="1">  1        1 0.31132553E+00 0.12117690E+04</pdfrwt>
<pdfrwt beam="2">  1       -1 0.27908610E-01 0.12117690E+04</pdfrwt>
<totfact> 0.32950535E+01</totfact>
</mgrwt>
</event>
<event>
12    1  0.4820219E-008  0.2201968E+04  0.7818608E-02  0.8517609E-01
         -2   -1    0    0    0  501 -0.00000000000E+00  0.00000000000E+00  0.72538304699E+03  0.72538304699E+03  0.00000000000E+00 0.  1.
          2   -1    0    0  501    0  0.00000000000E+00 -0.00000000000E+00 -0.16710700829E+04  0.16710700829E+04  0.00000000000E+00 0. -1.
         23    2    1    2    0    0  0.16932308512E+03  0.43453232201E+03 -0.12525388726E+04  0.13396715234E+04  0.91528778213E+02 0.  0.
        254    2    1    2    0    0 -0.16932308512E+03 -0.43453232201E+03  0.30685183664E+03  0.10567816065E+04  0.89729631015E+03 0.  0.
         23    2    4    4    0    0 -0.52838058121E+03 -0.19687846792E+03  0.16881903903E+03  0.59545090577E+03  0.90081871182E+02 0.  0.
         23    2    4    4    0    0  0.35905749610E+03 -0.23765385410E+03  0.13803279761E+03  0.46133070075E+03  0.91494930807E+02 0.  0.
         11    1    3    3    0    0  0.68325263254E+01  0.13951900565E+02 -0.11680220967E+02  0.19436216381E+02  0.00000000000E+00 0.  1.
        -11    1    3    3    0    0  0.16249055879E+03  0.42058042145E+03 -0.12408586516E+04  0.13202353070E+04  0.00000000000E+00 0. -1.
          2    1    5    5  502    0 -0.11903231969E+03 -0.71297686874E+01  0.46351238618E+02  0.12793734425E+03  0.00000000000E+00 0. -1.
          3    1    6    6  503    0  0.29896843700E+03 -0.15166343456E+03  0.10203316337E+03  0.35042073302E+03  0.00000000000E+00 0. -1.
         -2    1    5    5    0  502 -0.40934826153E+03 -0.18974869923E+03  0.12246780041E+03  0.46751356153E+03  0.00000000000E+00 0.  1.
         -3    1    6    6    0  503  0.60089059104E+02 -0.85990419535E+02  0.35999634246E+02  0.11090996773E+03  0.00000000000E+00 0.  1.
<mgrwt>
<rscale>  0 0.22019681E+04</rscale>
<asrwt>0</asrwt>
<pdfrwt beam="1">  1        2 0.25708770E+00 0.22019681E+04</pdfrwt>
<pdfrwt beam="2">  1       -2 0.11159739E+00 0.22019681E+04</pdfrwt>
<totfact> 0.59015554E+00</totfact>
</mgrwt>
</event>
<event>
12    1  0.4820219E-008  0.1550966E+04  0.7818608E-02  0.8851251E-01
         -2   -1    0    0    0  501 -0.00000000000E+00  0.00000000000E+00  0.40532353635E+03  0.40532353635E+03  0.00000000000E+00 0.  1.
          2   -1    0    0  501    0  0.00000000000E+00 -0.00000000000E+00 -0.14836876689E+04  0.14836876689E+04  0.00000000000E+00 0. -1.
         23    2    1    2    0    0 -0.29166637794E+02 -0.22924621091E+03  0.18836648885E+03  0.31160501484E+03  0.90615855003E+02 0.  0.
        254    2    1    2    0    0  0.29166637794E+02  0.22924621091E+03 -0.12667306214E+04  0.15774061905E+04  0.91115273387E+03 0.  0.
         23    2    4    4    0    0  0.16284124903E+03  0.31552238154E+03 -0.79153680425E+02  0.37582867108E+03  0.94394063597E+02 0.  0.
         23    2    4    4    0    0 -0.13367461123E+03 -0.86276170632E+02 -0.11875769410E+04  0.12015775194E+04  0.90205681343E+02 0.  0.
         13    1    3    3    0    0 -0.14686502573E+01 -0.21831314720E+03  0.16895540164E+03  0.27605925979E+03  0.00000000000E+00 0.  1.
        -13    1    3    3    0    0 -0.27697987537E+02 -0.10933063713E+02  0.19411087209E+02  0.35545755054E+02  0.00000000000E+00 0. -1.
          1    1    5    5  502    0  0.12651847459E+03  0.14418172657E+03 -0.50444056709E+02  0.19834287874E+03  0.00000000000E+00 0. -1.
          3    1    6    6  503    0 -0.68132464226E+02  0.73775646300E+01 -0.43141761246E+03  0.43682675912E+03  0.00000000000E+00 0. -1.
         -1    1    5    5    0  502  0.36322774440E+02  0.17134065497E+03 -0.28709623716E+02  0.17748579234E+03  0.00000000000E+00 0.  1.
         -3    1    6    6    0  503 -0.65542147009E+02 -0.93653735262E+02 -0.75615932855E+03  0.76475076026E+03  0.00000000000E+00 0.  1.
<mgrwt>
<rscale>  0 0.15509655E+04</rscale>
<asrwt>0</asrwt>
<pdfrwt beam="1">  1        2 0.22825964E+00 0.15509655E+04</pdfrwt>
<pdfrwt beam="2">  1       -2 0.62357468E-01 0.15509655E+04</pdfrwt>
<totfact> 0.29777655E+01</totfact>
</mgrwt>
</event>
<event>
12    1  0.4820219E-008  0.2095774E+04  0.7818608E-02  0.8563107E-01
          1   -1    0    0  501    0  0.00000000000E+00  0.00000000000E+00  0.10881259252E+04  0.10881259252E+04  0.00000000000E+00 0. -1.
         -1   -1    0    0    0  501 -0.00000000000E+00 -0.00000000000E+00 -0.10091357063E+04  0.10091357063E+04  0.00000000000E+00 0.  1.
         23    2    1    2    0    0  0.45204869420E+02 -0.57480530331E+02 -0.80878293490E+03  0.81752895946E+03  0.94213970280E+02 0.  0.
        254    2    1    2    0    0 -0.45204869420E+02  0.57480530331E+02  0.88777315377E+03  0.12797326721E+04  0.91881828879E+03 0.  0.
         23    2    4    4    0    0  0.37134058992E+03  0.10520307130E+03  0.14520442926E+03  0.42217107872E+03  0.90457578462E+02 0.  0.
         23    2    4    4    0    0 -0.41654545934E+03 -0.47722540965E+02  0.74256872451E+03  0.85756159334E+03  0.90642237120E+02 0.  0.
         13    1    3    3    0    0  0.16599108502E+02  0.16438302036E+02 -0.42527278199E+03  0.42591394351E+03  0.00000000000E+00 0.  1.
        -13    1    3    3    0    0  0.28605760918E+02 -0.73918832367E+02 -0.38351015291E+03  0.39161501595E+03  0.00000000000E+00 0. -1.
          4    1    5    5  502    0  0.37315384819E+03  0.10819239511E+03  0.14979667318E+03  0.41639936609E+03  0.00000000000E+00 0.  1.
          3    1    6    6  503    0 -0.23346178217E+03 -0.24942856086E+02  0.50374470332E+03  0.55577448298E+03  0.00000000000E+00 0. -1.
         -4    1    5    5    0  502 -0.18132582765E+01 -0.29893238176E+01 -0.45922439226E+01  0.57717126322E+01  0.00000000000E+00 0. -1.
         -3    1    6    6    0  503 -0.18308367716E+03 -0.22779684879E+02  0.23882402118E+03  0.30178711036E+03  0.00000000000E+00 0.  1.
<mgrwt>
<rscale>  0 0.20957736E+04</rscale>
<asrwt>0</asrwt>
<pdfrwt beam="1">  1        1 0.16740399E+00 0.20957736E+04</pdfrwt>
<pdfrwt beam="2">  1       -1 0.15525165E+00 0.20957736E+04</pdfrwt>
<totfact> 0.37835738E+00</totfact>
</mgrwt>
</event>
<event>
12    1  0.4820219E-008  0.3616204E+04  0.7818608E-02  0.8086790E-01
          2   -1    0    0  501    0  0.00000000000E+00  0.00000000000E+00  0.11206251814E+04  0.11206251814E+04  0.00000000000E+00 0. -1.
         -2   -1    0    0    0  501 -0.00000000000E+00 -0.00000000000E+00 -0.29173301785E+04  0.29173301785E+04  0.00000000000E+00 0.  1.
         23    2    1    2    0    0  0.33040006366E+03  0.16446154827E+04 -0.58511649908E+03  0.17792044828E+04  0.96348254249E+02 0.  0.
        254    2    1    2    0    0 -0.33040006366E+03 -0.16446154827E+04 -0.12115884981E+04  0.22587508771E+04  0.90558519634E+03 0.  0.
         23    2    4    4    0    0 -0.30069463126E+03 -0.17172893715E+04 -0.99335542411E+03  0.20087673630E+04  0.94293550028E+02 0.  0.
         23    2    4    4    0    0 -0.29705432400E+02  0.72673888732E+02 -0.21823307400E+03  0.24998351404E+03  0.93285453776E+02 0.  0.
         11    1    3    3    0    0  0.33664915519E+03  0.15970245606E+04 -0.57189722633E+03  0.17294179767E+04  0.00000000000E+00 0. -1.
        -11    1    3    3    0    0 -0.62490915224E+01  0.47590922173E+02 -0.13219272750E+02  0.49786506105E+02  0.00000000000E+00 0.  1.
          1    1    5    5  502    0 -0.10455522859E+02 -0.12750659890E+03 -0.98775162914E+02  0.16162853563E+03  0.00000000000E+00 0. -1.
          3    1    6    6  503    0 -0.35451625838E+01  0.40143125329E+02 -0.20070071178E+03  0.20470665450E+03  0.00000000000E+00 0. -1.
         -1    1    5    5    0  502 -0.29023910841E+03 -0.15897827726E+04 -0.89458026120E+03  0.18471388274E+04  0.00000000000E+00 0.  1.
         -3    1    6    6    0  503 -0.26160269816E+02  0.32530763403E+02 -0.17532362221E+02  0.45276859537E+02  0.00000000000E+00 0.  1.
<mgrwt>
<rscale>  0 0.36162045E+04</rscale>
<asrwt>0</asrwt>
<pdfrwt beam="1">  1        2 0.17240388E+00 0.36162045E+04</pdfrwt>
<pdfrwt beam="2">  1       -2 0.44882002E+00 0.36162045E+04</pdfrwt>
<totfact> 0.60805583E-02</totfact>
</mgrwt>
</event>
<event>
12    1  0.4820219E-008  0.1379387E+04  0.7818608E-02  0.8968876E-01
          2   -1    0    0  501    0  0.00000000000E+00  0.00000000000E+00  0.66329924608E+03  0.66329924608E+03  0.00000000000E+00 0. -1.
         -2   -1    0    0    0  501 -0.00000000000E+00 -0.00000000000E+00 -0.71713815470E+03  0.71713815470E+03  0.00000000000E+00 0.  1.
         23    2    1    2    0    0  0.73934789787E+02  0.22229766229E+03  0.28983128946E+03  0.38346370312E+03  0.90330678398E+02 0.  0.
        254    2    1    2    0    0 -0.73934789787E+02 -0.22229766229E+03 -0.34367019809E+03  0.99697369766E+03  0.90607104852E+03 0.  0.
         23    2    4    4    0    0 -0.27735322520E+03 -0.15532423517E+03 -0.57754069642E+03  0.66722506462E+03  0.10288635122E+03 0.  0.
         23    2    4    4    0    0  0.20341843541E+03 -0.66973427121E+02  0.23387049833E+03  0.32974863304E+03  0.90411565618E+02 0.  0.
         11    1    3    3    0    0  0.24685831992E+02  0.10616670398E+03  0.68577579078E+02  0.12877749682E+03  0.00000000000E+00 0.  1.
        -11    1    3    3    0    0  0.49248957794E+02  0.11613095831E+03  0.22125371039E+03  0.25468620631E+03  0.00000000000E+00 0. -1.
          1    1    5    5  502    0 -0.79444348264E+02  0.30066552503E+01 -0.16276554063E+03  0.18114377070E+03  0.00000000000E+00 0. -1.
          3    1    6    6  503    0  0.75907828999E+01 -0.29453627792E+02  0.49977806502E+02  0.58505703294E+02  0.00000000000E+00 0. -1.
         -1    1    5    5    0  502 -0.19790887694E+03 -0.15833089042E+03 -0.41477515579E+03  0.48608129391E+03  0.00000000000E+00 0.  1.
         -3    1    6    6    0  503  0.19582765251E+03 -0.37519799329E+02  0.18389269183E+03  0.27124292975E+03  0.00000000000E+00 0.  1.
<mgrwt>
<rscale>  0 0.13793871E+04</rscale>
<asrwt>0</asrwt>
<pdfrwt beam="1">  1        2 0.10204604E+00 0.13793871E+04</pdfrwt>
<pdfrwt beam="2">  1       -2 0.11032895E+00 0.13793871E+04</pdfrwt>
<totfact> 0.27877742E+01</totfact>
</mgrwt>
</event>
<event>
12    1  0.4820219E-008  0.3260975E+04  0.7818608E-02  0.8172897E-01
          2   -1    0    0  501    0  0.00000000000E+00  0.00000000000E+00  0.93348919414E+03  0.93348919414E+03  0.00000000000E+00 0. -1.
         -2   -1    0    0    0  501 -0.00000000000E+00 -0.00000000000E+00 -0.28479053984E+04  0.28479053984E+04  0.00000000000E+00 0.  1.
         23    2    1    2    0    0  0.40092147564E+03 -0.11022968850E+03 -0.24678027100E+04  0.25041632752E+04  0.88853134276E+02 0.  0.
        254    2    1    2    0    0 -0.40092147564E+03  0.11022968850E+03  0.55338650581E+03  0.12772313173E+04  0.10734032789E+04 0.  0.
         23    2    4    4    0    0 -0.63686751237E+03  0.93101173412E+02  0.72264124154E+03  0.97203109058E+03  0.91465951467E+02 0.  0.
         23    2    4    4    0    0  0.23594603673E+03  0.17128515088E+02 -0.16925473573E+03  0.30520022671E+03  0.92390987327E+02 0.  0.
         13    1    3    3    0    0  0.34188317511E+03 -0.10222582241E+03 -0.18978927208E+04  0.19311475873E+04  0.00000000000E+00 0.  1.
        -13    1    3    3    0    0  0.59038300535E+02 -0.80038660872E+01 -0.56990998918E+03  0.57301568789E+03  0.00000000000E+00 0. -1.
          2    1    5    5  502    0 -0.31706307373E+03  0.88653767049E+02  0.33900438548E+03  0.47255947404E+03  0.00000000000E+00 0.  1.
          4    1    6    6  503    0  0.10907320320E+03 -0.35671889523E+02 -0.95137861106E+02  0.14906595847E+03  0.00000000000E+00 0.  1.
         -2    1    5    5    0  502 -0.31980443864E+03  0.44474063634E+01  0.38363685606E+03  0.49947161654E+03  0.00000000000E+00 0. -1.
         -4    1    6    6    0  503  0.12687283353E+03  0.52800404612E+02 -0.74116874626E+02  0.15613426825E+03  0.00000000000E+00 0. -1.
<mgrwt>
<rscale>  0 0.32609746E+04</rscale>
<asrwt>0</asrwt>
<pdfrwt beam="1">  1        2 0.14361372E+00 0.32609746E+04</pdfrwt>
<pdfrwt beam="2">  1       -2 0.43813929E+00 0.32609746E+04</pdfrwt>
<totfact> 0.96887475E-02</totfact>
</mgrwt>
</event>
<event>
12    1  0.4820219E-008  0.1688274E+04  0.7818608E-02  0.8768080E-01
         -2   -1    0    0    0  501 -0.00000000000E+00  0.00000000000E+00  0.45316186992E+03  0.45316186992E+03  0.00000000000E+00 0.  1.
          2   -1    0    0  501    0  0.00000000000E+00 -0.00000000000E+00 -0.15724345547E+04  0.15724345547E+04  0.00000000000E+00 0. -1.
         23    2    1    2    0    0  0.78246852403E+02 -0.58550121437E+03 -0.51879790631E+03  0.79080236984E+03  0.85339783275E+02 0.  0.
        254    2    1    2    0    0 -0.78246852403E+02  0.58550121437E+03 -0.60047477844E+03  0.12347940548E+04  0.90289099905E+03 0.  0.
         23    2    4    4    0    0  0.13213571774E+03  0.59055878316E+03 -0.74469821577E+03  0.96382903909E+03  0.90396126947E+02 0.  0.
         23    2    4    4    0    0 -0.21038257014E+03 -0.50575687894E+01  0.14422343733E+03  0.27096501566E+03  0.91297508249E+02 0.  0.
         13    1    3    3    0    0  0.23058048507E+02 -0.31435893603E+02 -0.46374842980E+02  0.60584775885E+02  0.00000000000E+00 0. -1.
        -13    1    3    3    0    0  0.55188803896E+02 -0.55406532077E+03 -0.47242306333E+03  0.73021759395E+03  0.00000000000E+00 0.  1.
          2    1    5    5  502    0  0.19382399390E+02  0.21093801834E+03 -0.20830350838E+03  0.29708732149E+03  0.00000000000E+00 0.  1.
          4    1    6    6  503    0 -0.13327117456E+03  0.38718394077E+02  0.10489698329E+03  0.17396464328E+03  0.00000000000E+00 0. -1.
         -2    1    5    5    0  502  0.11275331835E+03  0.37962076482E+03 -0.53639470739E+03  0.66674171761E+03  0.00000000000E+00 0. -1.
         -4    1    6    6    0  503 -0.77111395581E+02 -0.43775962867E+02  0.39326454039E+02  0.97000372373E+02  0.00000000000E+00 0.  1.
<mgrwt>
<rscale>  0 0.16882741E+04</rscale>
<asrwt>0</asrwt>
<pdfrwt beam="1">  1        2 0.24191301E+00 0.16882741E+04</pdfrwt>
<pdfrwt beam="2">  1       -2 0.69717211E-01 0.16882741E+04</pdfrwt>
<totfact> 0.20639379E+01</totfact>
</mgrwt>
</event>
<event>
12    1  0.4820219E-008  0.3407298E+04  0.7818608E-02  0.8136117E-01
          2   -1    0    0  501    0  0.00000000000E+00  0.00000000000E+00  0.40305258790E+04  0.40305258790E+04  0.00000000000E+00 0. -1.
         -2   -1    0    0    0  501 -0.00000000000E+00 -0.00000000000E+00 -0.72010949076E+03  0.72010949076E+03  0.00000000000E+00 0.  1.
         23    2    1    2    0    0 -0.10222734989E+04  0.41821677491E+03  0.31390167196E+04  0.33287049544E+04  0.83080263577E+02 0.  0.
        254    2    1    2    0    0  0.10222734989E+04 -0.41821677491E+03  0.17139966863E+03  0.14219304154E+04  0.87895385683E+03 0.  0.
         23    2    4    4    0    0  0.13479084892E+01 -0.51849621728E+02 -0.23790345869E+03  0.25889869286E+03  0.87978846189E+02 0.  0.
         23    2    4    4    0    0  0.10209255904E+04 -0.36636715318E+03  0.40930312732E+03  0.11630317225E+04  0.92735028444E+02 0.  0.
         11    1    3    3    0    0 -0.27973952585E+03  0.90902467504E+02  0.92661324589E+03  0.97217774526E+03  0.00000000000E+00 0.  1.
        -11    1    3    3    0    0 -0.74253397301E+03  0.32731430740E+03  0.22124034738E+04  0.23565272092E+04  0.00000000000E+00 0. -1.
          1    1    6    6  502    0  0.70201451781E+03 -0.21108691955E+03  0.25405376900E+03  0.77583850663E+03  0.00000000000E+00 0. -1.
          1    1    5    5  503    0 -0.27574831182E+02 -0.56945265564E+02 -0.10336222456E+03  0.12118945519E+03  0.00000000000E+00 0. -1.
         -1    1    5    5    0  503  0.28922739671E+02  0.50956438358E+01 -0.13454123413E+03  0.13770923766E+03  0.00000000000E+00 0.  1.
         -1    1    6    6    0  502  0.31891107256E+03 -0.15528023363E+03  0.15524935833E+03  0.38719321587E+03  0.00000000000E+00 0.  1.
<mgrwt>
<rscale>  0 0.34072980E+04</rscale>
<asrwt>0</asrwt>
<pdfrwt beam="1">  1        2 0.62008089E+00 0.34072980E+04</pdfrwt>
<pdfrwt beam="2">  1       -2 0.11078608E+00 0.34072980E+04</pdfrwt>
<totfact> 0.17231059E-01</totfact>
</mgrwt>
</event>
<event>
12    1  0.4820219E-008  0.2985242E+04  0.7818608E-02  0.8247958E-01
          2   -1    0    0  501    0  0.00000000000E+00  0.00000000000E+00  0.21962319810E+04  0.21962319810E+04  0.00000000000E+00 0. -1.
         -2   -1    0    0    0  501 -0.00000000000E+00 -0.00000000000E+00 -0.10144269191E+04  0.10144269191E+04  0.00000000000E+00 0.  1.
         23    2    1    2    0    0  0.42622063924E+03  0.12726656570E+04  0.34626783020E+03  0.13890608346E+04  0.90811255483E+02 0.  0.
        254    2    1    2    0    0 -0.42622063924E+03 -0.12726656570E+04  0.83553723168E+03  0.18215980655E+04  0.90485089321E+03 0.  0.
         23    2    4    4    0    0 -0.33970487905E+03 -0.27127400932E+02  0.86078058504E+02  0.36295696873E+03  0.90515348203E+02 0.  0.
         23    2    4    4    0    0 -0.86515760195E+02 -0.12455382560E+04  0.74945917317E+03  0.14586410968E+04  0.84227506894E+02 0.  0.
         11    1    3    3    0    0  0.38131484090E+03  0.11570382752E+04  0.34024447426E+03  0.12648734642E+04  0.00000000000E+00 0.  1.
        -11    1    3    3    0    0  0.44905798347E+02  0.11562738175E+03  0.60233559367E+01  0.12418737034E+03  0.00000000000E+00 0. -1.
          1    1    5    5  502    0  0.77531398407E+00 -0.10219357470E+02 -0.28720036901E+01  0.10643532500E+02  0.00000000000E+00 0. -1.
          3    1    6    6  503    0  0.16492914228E+01 -0.11106447535E+03  0.93673693389E+02  0.14530243866E+03  0.00000000000E+00 0. -1.
         -1    1    5    5    0  502 -0.34048019303E+03 -0.16908043462E+02  0.88950062194E+02  0.35231343623E+03  0.00000000000E+00 0.  1.
         -3    1    6    6    0  503 -0.88165051618E+02 -0.11344737807E+04  0.65578547978E+03  0.13133386581E+04  0.00000000000E+00 0.  1.
<mgrwt>
<rscale>  0 0.29852416E+04</rscale>
<asrwt>0</asrwt>
<pdfrwt beam="1">  1        2 0.33788184E+00 0.29852416E+04</pdfrwt>
<pdfrwt beam="2">  1       -2 0.15606568E+00 0.29852416E+04</pdfrwt>
<totfact> 0.11985288E+00</totfact>
</mgrwt>
</event>
<event>
12    1  0.4820219E-008  0.2131923E+04  0.7818608E-02  0.8547310E-01
         -1   -1    0    0    0  501 -0.00000000000E+00  0.00000000000E+00  0.44795252064E+03  0.44795252064E+03  0.00000000000E+00 0.  1.
          1   -1    0    0  501    0  0.00000000000E+00 -0.00000000000E+00 -0.25365934093E+04  0.25365934093E+04  0.00000000000E+00 0. -1.
         23    2    1    2    0    0 -0.77938699737E+03  0.28657553139E+03 -0.12357942197E+04  0.14916892440E+04  0.91541359097E+02 0.  0.
        254    2    1    2    0    0  0.77938699737E+03 -0.28657553139E+03 -0.85284666897E+03  0.14928566859E+04  0.90094617881E+03 0.  0.
         23    2    4    4    0    0  0.74662260214E+02  0.18357192663E+03 -0.54390036317E+03  0.58650257678E+03  0.94257955489E+02 0.  0.
         23    2    4    4    0    0  0.70472473715E+03 -0.47014745802E+03 -0.30894630581E+03  0.90635410915E+03  0.91402209326E+02 0.  0.
         13    1    3    3    0    0 -0.93665402914E+02  0.66475092384E+02 -0.15455546739E+03  0.19256047910E+03  0.00000000000E+00 0.  1.
        -13    1    3    3    0    0 -0.68572159445E+03  0.22010043901E+03 -0.10812387523E+04  0.12991287649E+04  0.00000000000E+00 0. -1.
          4    1    5    5  502    0  0.16325256816E+02  0.24883367764E+02 -0.21140931550E+03  0.21349378137E+03  0.00000000000E+00 0.  1.
          3    1    6    6  503    0  0.24235653287E+03 -0.20351862714E+03 -0.86220863520E+02  0.32800999668E+03  0.00000000000E+00 0. -1.
         -4    1    5    5    0  502  0.58337003398E+02  0.15868855887E+03 -0.33249104767E+03  0.37300879542E+03  0.00000000000E+00 0. -1.
         -3    1    6    6    0  503  0.46236820428E+03 -0.26662883088E+03 -0.22272544228E+03  0.57834411247E+03  0.00000000000E+00 0.  1.
<mgrwt>
<rscale>  0 0.21319225E+04</rscale>
<asrwt>0</asrwt>
<pdfrwt beam="1">  1        1 0.39024514E+00 0.21319225E+04</pdfrwt>
<pdfrwt beam="2">  1       -1 0.68915773E-01 0.21319225E+04</pdfrwt>
<totfact> 0.24969550E+00</totfact>
</mgrwt>
</event>
<event>
12    1  0.4820219E-008  0.2920726E+04  0.7818608E-02  0.8266737E-01
         -2   -1    0    0    0  501 -0.00000000000E+00  0.00000000000E+00  0.87293809230E+03  0.87293809230E+03  0.00000000000E+00 0.  1.
          2   -1    0    0  501    0  0.00000000000E+00 -0.00000000000E+00 -0.24430835031E+04  0.24430835031E+04  0.00000000000E+00 0. -1.
         23    2    1    2    0    0 -0.11353338460E+03  0.23141558001E+03 -0.21823994574E+04  0.21993931717E+04  0.89554072754E+02 0.  0.
        254    2    1    2    0    0  0.11353338460E+03 -0.23141558001E+03  0.61225404661E+03  0.11166284237E+04  0.89753051143E+03 0.  0.
         23    2    4    4    0    0  0.27205980756E+03  0.86767834482E+02  0.68065562892E+03  0.74343627466E+03  0.88657843998E+02 0.  0.
         23    2    4    4    0    0 -0.15852642296E+03 -0.31818341450E+03 -0.68401582317E+02  0.37319214905E+03  0.90676852667E+02 0.  0.
         13    1    3    3    0    0 -0.10195149137E+03  0.21010431175E+03 -0.21132207449E+04  0.21260855686E+04  0.00000000000E+00 0. -1.
        -13    1    3    3    0    0 -0.11581893235E+02  0.21311268264E+02 -0.69178712512E+02  0.73307603089E+02  0.00000000000E+00 0.  1.
          1    1    5    5  502    0 -0.15570026485E+01  0.65713006419E+01  0.15879466524E+01  0.69374219955E+01  0.00000000000E+00 0. -1.
          1    1    6    6  503    0  0.87098242162E+01 -0.29477982172E+02  0.60840571869E+01  0.31334138295E+02  0.00000000000E+00 0. -1.
         -1    1    5    5    0  502  0.27361681021E+03  0.80196533840E+02  0.67906768227E+03  0.73649885266E+03  0.00000000000E+00 0.  1.
         -1    1    6    6    0  503 -0.16723624718E+03 -0.28870543232E+03 -0.74485639504E+02  0.34185801075E+03  0.00000000000E+00 0.  1.
<mgrwt>
<rscale>  0 0.29207264E+04</rscale>
<asrwt>0</asrwt>
<pdfrwt beam="1">  1        2 0.37585900E+00 0.29207264E+04</pdfrwt>
<pdfrwt beam="2">  1       -2 0.13429817E+00 0.29207264E+04</pdfrwt>
<totfact> 0.12933015E+00</totfact>
</mgrwt>
</event>
<event>
12    1  0.4820219E-008  0.1242865E+04  0.7818608E-02  0.9076143E-01
         -2   -1    0    0    0  501 -0.00000000000E+00  0.00000000000E+00  0.28636752115E+03  0.28636752115E+03  0.00000000000E+00 0. -1.
          2   -1    0    0  501    0  0.00000000000E+00 -0.00000000000E+00 -0.13485405366E+04  0.13485405366E+04  0.00000000000E+00 0.  1.
         23    2    1    2    0    0 -0.51847793532E+00 -0.17708517030E+03  0.38775196486E+02  0.20287762004E+03  0.91084501912E+02 0.  0.
        254    2    1    2    0    0  0.51847793532E+00  0.17708517030E+03 -0.11009482120E+04  0.14320304377E+04  0.89847914991E+03 0.  0.
         23    2    4    4    0    0  0.35991952737E+03 -0.15643938110E+03 -0.36679648877E+03  0.54490799229E+03  0.91486117749E+02 0.  0.
         23    2    4    4    0    0 -0.35940104944E+03  0.33352455140E+03 -0.73415172318E+03  0.88712244544E+03  0.87176486687E+02 0.  0.
         11    1    3    3    0    0  0.20018688429E+02 -0.54533051247E+02 -0.24957621441E+02  0.63225662770E+02  0.00000000000E+00 0.  1.
        -11    1    3    3    0    0 -0.20537166364E+02 -0.12255211906E+03  0.63732817927E+02  0.13965195727E+03  0.00000000000E+00 0. -1.
          2    1    5    5  502    0  0.95923365861E+02 -0.73824843741E+02 -0.15417715477E+03  0.19601529207E+03  0.00000000000E+00 0. -1.
          3    1    6    6  503    0 -0.13270688554E+03  0.16431276985E+03 -0.25976470191E+03  0.33479471944E+03  0.00000000000E+00 0. -1.
         -2    1    5    5    0  502  0.26399616151E+03 -0.82614537358E+02 -0.21261933401E+03  0.34889270022E+03  0.00000000000E+00 0.  1.
         -3    1    6    6    0  503 -0.22669416390E+03  0.16921178155E+03 -0.47438702127E+03  0.55232772600E+03  0.00000000000E+00 0.  1.
<mgrwt>
<rscale>  0 0.12428648E+04</rscale>
<asrwt>0</asrwt>
<pdfrwt beam="1">  1        2 0.20746777E+00 0.12428648E+04</pdfrwt>
<pdfrwt beam="2">  1       -2 0.44056542E-01 0.12428648E+04</pdfrwt>
<totfact> 0.74442684E+01</totfact>
</mgrwt>
</event>
<event>
12    1  0.4820219E-008  0.1157670E+04  0.7818608E-02  0.9150736E-01
         -1   -1    0    0    0  501 -0.00000000000E+00  0.00000000000E+00  0.47732824023E+03  0.47732824023E+03  0.00000000000E+00 0.  1.
          1   -1    0    0  501    0  0.00000000000E+00 -0.00000000000E+00 -0.70192833138E+03  0.70192833138E+03  0.00000000000E+00 0. -1.
         23    2    1    2    0    0 -0.80196243690E+02  0.28795700173E+02  0.15441973885E+03  0.19634006765E+03  0.86274773644E+02 0.  0.
        254    2    1    2    0    0  0.80196243690E+02 -0.28795700173E+02 -0.37901983000E+03  0.98291650396E+03  0.90288880399E+03 0.  0.
         23    2    4    4    0    0  0.38716783686E+03 -0.21903182119E+03 -0.40619053543E+03  0.60931345049E+03  0.91642006113E+02 0.  0.
         23    2    4    4    0    0 -0.30697159317E+03  0.19023612102E+03  0.27170705433E+02  0.37360305346E+03  0.91758670288E+02 0.  0.
         13    1    3    3    0    0  0.30381717491E+01  0.13289370805E+02 -0.60421140073E+01  0.14911237563E+02  0.00000000000E+00 0. -1.
        -13    1    3    3    0    0 -0.83234415439E+02  0.15506329368E+02  0.16046185286E+03  0.18142883008E+03  0.00000000000E+00 0.  1.
          1    1    5    5  502    0  0.38865258817E+03 -0.21000905929E+03 -0.38406255047E+03  0.58537055098E+03  0.00000000000E+00 0. -1.
          3    1    6    6  503    0 -0.28663929094E+03  0.18623931875E+03  0.31018468434E+01  0.34184322198E+03  0.00000000000E+00 0. -1.
         -1    1    5    5    0  502 -0.14847513132E+01 -0.90227618962E+01 -0.22127984961E+02  0.23942899514E+02  0.00000000000E+00 0.  1.
         -3    1    6    6    0  503 -0.20332302228E+02  0.39968022680E+01  0.24068858590E+02  0.31759831487E+02  0.00000000000E+00 0.  1.
<mgrwt>
<rscale>  0 0.11576704E+04</rscale>
<asrwt>0</asrwt>
<pdfrwt beam="1">  1        1 0.10798897E+00 0.11576704E+04</pdfrwt>
<pdfrwt beam="2">  1       -1 0.73435115E-01 0.11576704E+04</pdfrwt>
<totfact> 0.50339133E+01</totfact>
</mgrwt>
</event>
<event>
12    1  0.4820219E-008  0.1584864E+04  0.7818608E-02  0.8829901E-01
         -2   -1    0    0    0  501 -0.00000000000E+00  0.00000000000E+00  0.82379440921E+03  0.82379440921E+03  0.00000000000E+00 0. -1.
          2   -1    0    0  501    0  0.00000000000E+00 -0.00000000000E+00 -0.76226365783E+03  0.76226365783E+03  0.00000000000E+00 0.  1.
         23    2    1    2    0    0 -0.11595993855E+03 -0.43351226604E+03 -0.26621890065E+03  0.52988210297E+03  0.92319812737E+02 0.  0.
        254    2    1    2    0    0  0.11595993855E+03  0.43351226604E+03  0.32774965203E+03  0.10561759641E+04  0.89816938299E+03 0.  0.
         23    2    4    4    0    0 -0.29934805945E+02  0.39678915205E+03  0.60405267640E+03  0.72886669590E+03  0.89606365517E+02 0.  0.
         23    2    4    4    0    0  0.14589474449E+03  0.36723113996E+02 -0.27630302436E+03  0.32730926818E+03  0.90300233610E+02 0.  0.
         11    1    3    3    0    0 -0.11044195990E+03 -0.23676313326E+03 -0.14725136549E+03  0.29989526908E+03  0.00000000000E+00 0.  1.
        -11    1    3    3    0    0 -0.55179786462E+01 -0.19674913278E+03 -0.11896753516E+03  0.22998683389E+03  0.00000000000E+00 0. -1.
          4    1    5    5  502    0 -0.48326374155E+02  0.19880553291E+03  0.25256256130E+03  0.32503373014E+03  0.00000000000E+00 0. -1.
          1    1    6    6  503    0 -0.54455029884E+01 -0.15867731836E+01 -0.61540549981E+02  0.61801380599E+02  0.00000000000E+00 0. -1.
         -4    1    5    5    0  502  0.18391568210E+02  0.19798361913E+03  0.35149011510E+03  0.40383296576E+03  0.00000000000E+00 0.  1.
         -1    1    6    6    0  503  0.15134024748E+03  0.38309887180E+02 -0.21476247438E+03  0.26550788758E+03  0.00000000000E+00 0.  1.
<mgrwt>
<rscale>  0 0.15848641E+04</rscale>
<asrwt>0</asrwt>
<pdfrwt beam="1">  1        2 0.11727133E+00 0.15848641E+04</pdfrwt>
<pdfrwt beam="2">  1       -2 0.12673760E+00 0.15848641E+04</pdfrwt>
<totfact> 0.16320953E+01</totfact>
</mgrwt>
</event>
<event>
12    1  0.4820219E-008  0.1629936E+04  0.7818608E-02  0.8802365E-01
          1   -1    0    0  501    0  0.00000000000E+00  0.00000000000E+00  0.16000865127E+04  0.16000865127E+04  0.00000000000E+00 0. -1.
         -1   -1    0    0    0  501 -0.00000000000E+00 -0.00000000000E+00 -0.41508578719E+03  0.41508578719E+03  0.00000000000E+00 0.  1.
         23    2    1    2    0    0  0.29845813772E+03  0.25232429727E+03  0.91030037544E+03  0.99481516920E+03  0.90915545370E+02 0.  0.
        254    2    1    2    0    0 -0.29845813772E+03 -0.25232429727E+03  0.27470035004E+03  0.10203571306E+04  0.90162274859E+03 0.  0.
         23    2    4    4    0    0 -0.30683230150E+03 -0.44269491752E+03  0.47628402536E+03  0.72462304635E+03  0.90040186869E+02 0.  0.
         23    2    4    4    0    0  0.83741637808E+01  0.19037062025E+03 -0.20158367533E+03  0.29573408429E+03  0.10252595174E+03 0.  0.
         11    1    3    3    0    0  0.33624129014E+02  0.10361657386E+02  0.15094823727E+03  0.15499456871E+03  0.00000000000E+00 0.  1.
        -11    1    3    3    0    0  0.26483400871E+03  0.24196263989E+03  0.75935213817E+03  0.83982060049E+03  0.00000000000E+00 0. -1.
          4    1    5    5  502    0 -0.86789214966E+02 -0.10306511783E+03  0.72740017698E+02  0.15312052940E+03  0.00000000000E+00 0. -1.
          1    1    6    6  503    0 -0.28973283817E+02  0.17404392151E+02 -0.60985918297E+02  0.69725506609E+02  0.00000000000E+00 0. -1.
         -4    1    5    5    0  502 -0.22004308654E+03 -0.33962979969E+03  0.40354400766E+03  0.57150251696E+03  0.00000000000E+00 0.  1.
         -1    1    6    6    0  503  0.37347447597E+02  0.17296622809E+03 -0.14059775703E+03  0.22600857768E+03  0.00000000000E+00 0.  1.
<mgrwt>
<rscale>  0 0.16299364E+04</rscale>
<asrwt>0</asrwt>
<pdfrwt beam="1">  1        1 0.24616715E+00 0.16299364E+04</pdfrwt>
<pdfrwt beam="2">  1       -1 0.63859353E-01 0.16299364E+04</pdfrwt>
<totfact> 0.13280381E+01</totfact>
</mgrwt>
</event>
<event>
12    1  0.4820219E-008  0.1613070E+04  0.7818608E-02  0.8812559E-01
          1   -1    0    0  501    0  0.00000000000E+00  0.00000000000E+00  0.12242158356E+04  0.12242158356E+04  0.00000000000E+00 0. -1.
         -1   -1    0    0    0  501 -0.00000000000E+00 -0.00000000000E+00 -0.53135952106E+03  0.53135952106E+03  0.00000000000E+00 0.  1.
         23    2    1    2    0    0  0.37642364762E+03  0.34879378131E+03  0.51905204919E+03  0.73563950998E+03  0.91643846022E+02 0.  0.
        254    2    1    2    0    0 -0.37642364762E+03 -0.34879378131E+03  0.17380426539E+03  0.10199358467E+04  0.86412345437E+03 0.  0.
         23    2    4    4    0    0 -0.58623326058E+03 -0.16437472004E+02  0.41329988431E+02  0.59515684705E+03  0.92541225128E+02 0.  0.
         23    2    4    4    0    0  0.20980961297E+03 -0.33235630931E+03  0.13247427696E+03  0.42477899967E+03  0.91689554896E+02 0.  0.
         13    1    3    3    0    0  0.35304274244E+02  0.20402493300E+02  0.80543338107E+02  0.90276701458E+02  0.00000000000E+00 0.  1.
        -13    1    3    3    0    0  0.34111937337E+03  0.32839128801E+03  0.43850871109E+03  0.64536280853E+03  0.00000000000E+00 0. -1.
          2    1    5    5  502    0 -0.56809288234E+03 -0.23723615783E+02  0.24099941255E+02  0.56909853283E+03  0.00000000000E+00 0. -1.
          3    1    6    6  503    0  0.20291351113E+03 -0.30663287453E+03  0.14512412314E+03  0.39529561578E+03  0.00000000000E+00 0. -1.
         -2    1    5    5    0  502 -0.18140378249E+02  0.72861437791E+01  0.17230047176E+02  0.26058314218E+02  0.00000000000E+00 0.  1.
         -3    1    6    6    0  503  0.68961018401E+01 -0.25723434777E+02 -0.12649846177E+02  0.29483383890E+02  0.00000000000E+00 0.  1.
<mgrwt>
<rscale>  0 0.16130700E+04</rscale>
<asrwt>0</asrwt>
<pdfrwt beam="1">  1        1 0.18834090E+00 0.16130700E+04</pdfrwt>
<pdfrwt beam="2">  1       -1 0.81747619E-01 0.16130700E+04</pdfrwt>
<totfact> 0.14647588E+01</totfact>
</mgrwt>
</event>
<event>
12    1  0.4820219E-008  0.2609025E+04  0.7818608E-02  0.8365142E-01
         -2   -1    0    0    0  501 -0.00000000000E+00  0.00000000000E+00  0.52396399013E+03  0.52396399013E+03  0.00000000000E+00 0.  1.
          2   -1    0    0  501    0  0.00000000000E+00 -0.00000000000E+00 -0.32478423010E+04  0.32478423010E+04  0.00000000000E+00 0. -1.
         23    2    1    2    0    0 -0.50035924929E+02  0.15435155855E+03 -0.28455022638E+04  0.28515286895E+04  0.89469193485E+02 0.  0.
        254    2    1    2    0    0  0.50035924929E+02 -0.15435155855E+03  0.12162395283E+03  0.92027760168E+03  0.89765833191E+03 0.  0.
         23    2    4    4    0    0 -0.17108958953E+03  0.14782559904E+03  0.38337814372E+03  0.45418708451E+03  0.90460219324E+02 0.  0.
         23    2    4    4    0    0  0.22112551446E+03 -0.30217715759E+03 -0.26175419088E+03  0.46609051717E+03  0.92290768937E+02 0.  0.
         11    1    3    3    0    0 -0.22424478290E+02  0.81173651886E+02 -0.77741974801E+03  0.78196769983E+03  0.00000000000E+00 0.  1.
        -11    1    3    3    0    0 -0.27611446639E+02  0.73177906666E+02 -0.20680825157E+04  0.20695609897E+04  0.00000000000E+00 0. -1.
          2    1    5    5  502    0 -0.17025959901E+03  0.12896793948E+03  0.37863453433E+03  0.43472424714E+03  0.00000000000E+00 0. -1.
          3    1    6    6  503    0  0.60046679326E+02 -0.10421653254E+03 -0.13606180071E+03  0.18160259625E+03  0.00000000000E+00 0. -1.
         -2    1    5    5    0  502 -0.82999052269E+00  0.18857659563E+02  0.47436093891E+01  0.19462837370E+02  0.00000000000E+00 0.  1.
         -3    1    6    6    0  503  0.16107883514E+03 -0.19796062505E+03 -0.12569239018E+03  0.28448792091E+03  0.00000000000E+00 0.  1.
<mgrwt>
<rscale>  0 0.26090247E+04</rscale>
<asrwt>0</asrwt>
<pdfrwt beam="1">  1        2 0.49966805E+00 0.26090247E+04</pdfrwt>
<pdfrwt beam="2">  1       -2 0.80609844E-01 0.26090247E+04</pdfrwt>
<totfact> 0.14491243E+00</totfact>
</mgrwt>
</event>
<event>
12    1  0.4820219E-008  0.1813556E+04  0.7818608E-02  0.8699124E-01
          2   -1    0    0  501    0  0.00000000000E+00  0.00000000000E+00  0.53709761794E+03  0.53709761794E+03  0.00000000000E+00 0.  1.
         -2   -1    0    0    0  501 -0.00000000000E+00 -0.00000000000E+00 -0.15309066278E+04  0.15309066278E+04  0.00000000000E+00 0. -1.
         23    2    1    2    0    0  0.40775298438E+03 -0.38004296959E+03  0.38255033779E+02  0.56641937380E+03  0.93125208229E+02 0.  0.
        254    2    1    2    0    0 -0.40775298438E+03  0.38004296959E+03 -0.10320640437E+04  0.15015848720E+04  0.93749975065E+03 0.  0.
         23    2    4    4    0    0 -0.22332515515E+03 -0.23925410303E+03 -0.67681890886E+03  0.75849800216E+03  0.10059191390E+03 0.  0.
         23    2    4    4    0    0 -0.18442782923E+03  0.61929707262E+03 -0.35524513482E+03  0.74308686981E+03  0.91850432373E+02 0.  0.
         13    1    3    3    0    0  0.24713340689E+02 -0.62940312377E+02 -0.78940415266E+00  0.67622890274E+02  0.00000000000E+00 0. -1.
        -13    1    3    3    0    0  0.38303964369E+03 -0.31710265721E+03  0.39044437931E+02  0.49879648353E+03  0.00000000000E+00 0.  1.
          2    1    5    5  502    0 -0.22168296522E+03 -0.22079236809E+03 -0.57131218348E+03  0.65137563500E+03  0.00000000000E+00 0. -1.
          1    1    6    6  503    0 -0.19370109617E+03  0.60715824759E+03 -0.34872352255E+03  0.72647735509E+03  0.00000000000E+00 0. -1.
         -2    1    5    5    0  502 -0.16421899269E+01 -0.18461734941E+02 -0.10550672538E+03  0.10712236715E+03  0.00000000000E+00 0.  1.
         -1    1    6    6    0  503  0.92732669418E+01  0.12138825032E+02 -0.65216122686E+01  0.16609514729E+02  0.00000000000E+00 0.  1.
<mgrwt>
<rscale>  0 0.18135560E+04</rscale>
<asrwt>0</asrwt>
<pdfrwt beam="1">  1        2 0.82630402E-01 0.18135560E+04</pdfrwt>
<pdfrwt beam="2">  1       -2 0.23552410E+00 0.18135560E+04</pdfrwt>
<totfact> 0.42150099E+00</totfact>
</mgrwt>
</event>
<event>
12    1  0.4820219E-008  0.1695534E+04  0.7818608E-02  0.8763915E-01
         -1   -1    0    0    0  501 -0.00000000000E+00  0.00000000000E+00  0.58371185320E+03  0.58371185320E+03  0.00000000000E+00 0.  1.
          1   -1    0    0  501    0  0.00000000000E+00 -0.00000000000E+00 -0.12312738395E+04  0.12312738395E+04  0.00000000000E+00 0. -1.
         23    2    1    2    0    0  0.11095940750E+03  0.49117092035E+03 -0.57485559013E+03  0.76961314789E+03  0.91019694496E+02 0.  0.
        254    2    1    2    0    0 -0.11095940750E+03 -0.49117092035E+03 -0.72706396178E+02  0.10453725448E+04  0.91321228325E+03 0.  0.
         23    2    4    4    0    0  0.23662307924E+03 -0.59901305524E+03  0.43802078664E+02  0.65219672630E+03  0.92923762930E+02 0.  0.
         23    2    4    4    0    0 -0.34758248674E+03  0.10784213489E+03 -0.11650847484E+03  0.39317581851E+03  0.92571531278E+02 0.  0.
         13    1    3    3    0    0  0.12490623112E+03  0.46989981578E+03 -0.54868099601E+03  0.73311543349E+03  0.00000000000E+00 0. -1.
        -13    1    3    3    0    0 -0.13946823619E+02  0.21271104575E+02 -0.26174594122E+02  0.36497714399E+02  0.00000000000E+00 0.  1.
          4    1    5    5  502    0  0.62658279530E+02 -0.28371397624E+03  0.24186076949E+02  0.29155556353E+03  0.00000000000E+00 0. -1.
          3    1    6    6  503    0 -0.74314959318E+02  0.24571958160E+02 -0.67442379999E+02  0.10331974122E+03  0.00000000000E+00 0. -1.
         -4    1    5    5    0  502  0.17396479971E+03 -0.31529907901E+03  0.19616001715E+02  0.36064116277E+03  0.00000000000E+00 0.  1.
         -3    1    6    6    0  503 -0.27326752743E+03  0.83270176728E+02 -0.49066094843E+02  0.28985607729E+03  0.00000000000E+00 0.  1.
<mgrwt>
<rscale>  0 0.16955343E+04</rscale>
<asrwt>0</asrwt>
<pdfrwt beam="1">  1        1 0.18942674E+00 0.16955343E+04</pdfrwt>
<pdfrwt beam="2">  1       -1 0.89801824E-01 0.16955343E+04</pdfrwt>
<totfact> 0.11716885E+01</totfact>
</mgrwt>
</event>
<event>
12    1  0.4820219E-008  0.2689754E+04  0.7818608E-02  0.8338337E-01
         -2   -1    0    0    0  501 -0.00000000000E+00  0.00000000000E+00  0.11586446837E+04  0.11586446837E+04  0.00000000000E+00 0.  1.
          2   -1    0    0  501    0  0.00000000000E+00 -0.00000000000E+00 -0.15610424736E+04  0.15610424736E+04  0.00000000000E+00 0. -1.
         23    2    1    2    0    0  0.58345571599E+03 -0.95476168894E+03 -0.53654542890E+03  0.12443930353E+04  0.92965444165E+02 0.  0.
        254    2    1    2    0    0 -0.58345571599E+03  0.95476168894E+03  0.13414763897E+03  0.14752941220E+04  0.95210645526E+03 0.  0.
         23    2    4    4    0    0 -0.49390827317E+03  0.61784526905E+02 -0.15257808293E+03  0.52850335499E+03  0.90956114520E+02 0.  0.
         23    2    4    4    0    0 -0.89547442818E+02  0.89297716204E+03  0.28672572190E+03  0.94679076700E+03  0.93670488656E+02 0.  0.
         11    1    3    3    0    0  0.47665069404E+03 -0.80511826783E+03 -0.48275809970E+03  0.10528374481E+04  0.00000000000E+00 0. -1.
        -11    1    3    3    0    0  0.10680502196E+03 -0.14964342111E+03 -0.53787329203E+02  0.19155558718E+03  0.00000000000E+00 0.  1.
          1    1    6    6  502    0 -0.29499037569E+02  0.60790876153E+03  0.22582626689E+03  0.64916928330E+03  0.00000000000E+00 0. -1.
          1    1    5    5  503    0 -0.21331933127E+03  0.68086821699E+02 -0.87405134243E+02  0.24037597608E+03  0.00000000000E+00 0. -1.
         -1    1    5    5    0  503 -0.28058894190E+03 -0.63022947937E+01 -0.65172948690E+02  0.28812737891E+03  0.00000000000E+00 0.  1.
         -1    1    6    6    0  502 -0.60048405249E+02  0.28506840050E+03  0.60899455015E+02  0.29762148370E+03  0.00000000000E+00 0.  1.
<mgrwt>
<rscale>  0 0.26897536E+04</rscale>
<asrwt>0</asrwt>
<pdfrwt beam="1">  1        2 0.24016038E+00 0.26897536E+04</pdfrwt>
<pdfrwt beam="2">  1       -2 0.17825303E+00 0.26897536E+04</pdfrwt>
<totfact> 0.19202323E+00</totfact>
</mgrwt>
</event>
<event>
12    1  0.4820219E-008  0.2361385E+04  0.7818608E-02  0.8454104E-01
          2   -1    0    0  501    0  0.00000000000E+00  0.00000000000E+00  0.26533372406E+04  0.26533372406E+04  0.00000000000E+00 0. -1.
         -2   -1    0    0    0  501 -0.00000000000E+00 -0.00000000000E+00 -0.52538914178E+03  0.52538914178E+03  0.00000000000E+00 0.  1.
         23    2    1    2    0    0 -0.40456035349E+02  0.41068720361E+03  0.21676551926E+04  0.22084161420E+04  0.89845156531E+02 0.  0.
        254    2    1    2    0    0  0.40456035349E+02 -0.41068720361E+03 -0.39707093752E+02  0.97031024044E+03  0.87728253111E+03 0.  0.
         23    2    4    4    0    0 -0.18919736806E+03 -0.20303744171E+02 -0.35350152833E+03  0.41174020643E+03  0.91426369050E+02 0.  0.
         23    2    4    4    0    0  0.22965340341E+03 -0.39038345944E+03  0.31379443457E+03  0.55857003400E+03  0.91616617559E+02 0.  0.
         13    1    3    3    0    0 -0.54761148674E+02  0.40067562518E+03  0.20545566795E+04  0.20939777672E+04  0.00000000000E+00 0. -1.
        -13    1    3    3    0    0  0.14305113325E+02  0.10011578431E+02  0.11309851306E+03  0.11443837479E+03  0.00000000000E+00 0.  1.
          4    1    5    5  502    0 -0.13219346570E+03 -0.31322280875E+02 -0.16092309410E+03  0.21060018962E+03  0.00000000000E+00 0. -1.
          4    1    6    6  503    0  0.72634459881E+02 -0.12461889541E+03  0.15391404842E+03  0.21093877822E+03  0.00000000000E+00 0. -1.
         -4    1    5    5    0  502 -0.57003902359E+02  0.11018536704E+02 -0.19257843423E+03  0.20114001682E+03  0.00000000000E+00 0.  1.
         -4    1    6    6    0  503  0.15701894353E+03 -0.26576456403E+03  0.15988038616E+03  0.34763125578E+03  0.00000000000E+00 0.  1.
<mgrwt>
<rscale>  0 0.23613848E+04</rscale>
<asrwt>0</asrwt>
<pdfrwt beam="1">  1        2 0.40820572E+00 0.23613848E+04</pdfrwt>
<pdfrwt beam="2">  1       -2 0.80829100E-01 0.23613848E+04</pdfrwt>
<totfact> 0.34486045E+00</totfact>
</mgrwt>
</event>
<event>
12    1  0.4820219E-008  0.1655166E+04  0.7818608E-02  0.8787356E-01
         -1   -1    0    0    0  501 -0.00000000000E+00  0.00000000000E+00  0.10694923259E+04  0.10694923259E+04  0.00000000000E+00 0.  1.
          1   -1    0    0  501    0  0.00000000000E+00 -0.00000000000E+00 -0.64039113112E+03  0.64039113112E+03  0.00000000000E+00 0. -1.
         23    2    1    2    0    0  0.43823679356E+03 -0.33201498027E+03  0.33190144372E+03  0.64866960881E+03  0.91259293741E+02 0.  0.
        254    2    1    2    0    0 -0.43823679356E+03  0.33201498027E+03  0.97199751028E+02  0.10612138482E+04  0.90246418522E+03 0.  0.
         23    2    4    4    0    0 -0.96993688406E+02  0.47154265685E+02 -0.37836941793E+03  0.40382307926E+03  0.90985507359E+02 0.  0.
         23    2    4    4    0    0 -0.34124310516E+03  0.28486071458E+03  0.47556916896E+03  0.65739076892E+03  0.91673906102E+02 0.  0.
         11    1    3    3    0    0  0.32440530377E+02 -0.27046305936E+02  0.11101627688E+00  0.42236275884E+02  0.00000000000E+00 0. -1.
        -11    1    3    3    0    0  0.40579626319E+03 -0.30496867433E+03  0.33179042745E+03  0.60643333293E+03  0.00000000000E+00 0.  1.
          2    1    5    5  502    0 -0.30911378530E+02  0.62961955465E+02 -0.23356947306E+03  0.24387377864E+03  0.00000000000E+00 0. -1.
          1    1    6    6  503    0 -0.29375253568E+03  0.19779757946E+03  0.38465688239E+03  0.52285308819E+03  0.00000000000E+00 0. -1.
         -2    1    5    5    0  502 -0.66082309876E+02 -0.15807689780E+02 -0.14479994487E+03  0.15994930062E+03  0.00000000000E+00 0.  1.
         -1    1    6    6    0  503 -0.47490569483E+02  0.87063135117E+02  0.90912286574E+02  0.13453768073E+03  0.00000000000E+00 0.  1.
<mgrwt>
<rscale>  0 0.16551657E+04</rscale>
<asrwt>0</asrwt>
<pdfrwt beam="1">  1        1 0.98521712E-01 0.16551657E+04</pdfrwt>
<pdfrwt beam="2">  1       -1 0.16453728E+00 0.16551657E+04</pdfrwt>
<totfact> 0.80333811E+00</totfact>
</mgrwt>
</event>
<event>
12    1  0.4820219E-008  0.1555041E+04  0.7818608E-02  0.8848654E-01
         -2   -1    0    0    0  501 -0.00000000000E+00  0.00000000000E+00  0.35541853298E+03  0.35541853298E+03  0.00000000000E+00 0.  1.
          2   -1    0    0  501    0  0.00000000000E+00 -0.00000000000E+00 -0.17009195103E+04  0.17009195103E+04  0.00000000000E+00 0. -1.
         23    2    1    2    0    0 -0.63465246907E+02 -0.71293995905E+02  0.21622618044E+03  0.25355043682E+03  0.91779036197E+02 0.  0.
        254    2    1    2    0    0  0.63465246907E+02  0.71293995905E+02 -0.15617271577E+04  0.18027876064E+04  0.89551145573E+03 0.  0.
         23    2    4    4    0    0  0.42075080259E+03  0.47116232328E+02 -0.42249488268E+03  0.60516322624E+03  0.92029491304E+02 0.  0.
         23    2    4    4    0    0 -0.35728555569E+03  0.24177763577E+02 -0.11392322751E+04  0.11976243802E+04  0.90644619224E+02 0.  0.
         11    1    3    3    0    0  0.10657712619E+02  0.14201739586E+02  0.17885381678E+02  0.25202442804E+02  0.00000000000E+00 0. -1.
        -11    1    3    3    0    0 -0.74122959526E+02 -0.85495735491E+02  0.19834079876E+03  0.22834799401E+03  0.00000000000E+00 0.  1.
          4    1    6    6  502    0 -0.31486996534E+03 -0.75722918880E+01 -0.10094123956E+04  0.10574090122E+04  0.00000000000E+00 0.  1.
          4    1    5    5  503    0  0.54717368295E+02 -0.11295384195E+02 -0.96654683239E+02  0.11164095973E+03  0.00000000000E+00 0. -1.
         -4    1    5    5    0  503  0.36603343430E+03  0.58411616523E+02 -0.32584019944E+03  0.49352226651E+03  0.00000000000E+00 0.  1.
         -4    1    6    6    0  502 -0.42415590351E+02  0.31750055465E+02 -0.12981987947E+03  0.14021536803E+03  0.00000000000E+00 0. -1.
<mgrwt>
<rscale>  0 0.15550412E+04</rscale>
<asrwt>0</asrwt>
<pdfrwt beam="1">  1        2 0.26167992E+00 0.15550412E+04</pdfrwt>
<pdfrwt beam="2">  1       -2 0.54679775E-01 0.15550412E+04</pdfrwt>
<totfact> 0.29657168E+01</totfact>
</mgrwt>
</event>
<event>
12    1  0.4820219E-008  0.2787897E+04  0.7818608E-02  0.8307036E-01
          1   -1    0    0  501    0  0.00000000000E+00  0.00000000000E+00  0.27007695106E+04  0.27007695106E+04  0.00000000000E+00 0. -1.
         -1   -1    0    0    0  501 -0.00000000000E+00 -0.00000000000E+00 -0.71945895953E+03  0.71945895953E+03  0.00000000000E+00 0.  1.
         23    2    1    2    0    0 -0.70759725687E+03  0.10293014555E+04  0.94790625735E+03  0.15705029083E+04  0.88304858605E+02 0.  0.
        254    2    1    2    0    0  0.70759725687E+03 -0.10293014555E+04  0.10334042937E+04  0.18497255618E+04  0.89073276327E+03 0.  0.
         23    2    4    4    0    0 -0.95374575502E+02 -0.12744329493E+03 -0.84165509815E+02  0.20171746103E+03  0.90928532209E+02 0.  0.
         23    2    4    4    0    0  0.80297183238E+03 -0.90185816057E+03  0.11175698035E+04  0.16480081008E+04  0.94109134125E+02 0.  0.
         11    1    3    3    0    0 -0.64293916880E+03  0.88758834002E+03  0.81615949470E+03  0.13664919162E+04  0.00000000000E+00 0.  1.
        -11    1    3    3    0    0 -0.64658088071E+02  0.14171311548E+03  0.13174676265E+03  0.20401099215E+03  0.00000000000E+00 0. -1.
          2    1    5    5  502    0 -0.22428980420E+01 -0.25362374598E+02  0.16866122051E+02  0.30540902244E+02  0.00000000000E+00 0. -1.
          4    1    6    6  503    0  0.59107884195E+02 -0.10155381295E+03  0.88852054726E+02  0.14731465144E+03  0.00000000000E+00 0. -1.
         -2    1    5    5    0  502 -0.93131677460E+02 -0.10208092033E+03 -0.10103163187E+03  0.17117655879E+03  0.00000000000E+00 0.  1.
         -4    1    6    6    0  503  0.74386394818E+03 -0.80030434762E+03  0.10287177488E+04  0.15006934493E+04  0.00000000000E+00 0.  1.
<mgrwt>
<rscale>  0 0.27878973E+04</rscale>
<asrwt>0</asrwt>
<pdfrwt beam="1">  1        1 0.41550299E+00 0.27878973E+04</pdfrwt>
<pdfrwt beam="2">  1       -1 0.11068600E+00 0.27878973E+04</pdfrwt>
<totfact> 0.63843700E-01</totfact>
</mgrwt>
</event>
<event>
12    1  0.4820219E-008  0.1388644E+04  0.7818608E-02  0.8962080E-01
          2   -1    0    0  501    0  0.00000000000E+00  0.00000000000E+00  0.33950082970E+03  0.33950082970E+03  0.00000000000E+00 0. -1.
         -2   -1    0    0    0  501 -0.00000000000E+00 -0.00000000000E+00 -0.14199760999E+04  0.14199760999E+04  0.00000000000E+00 0.  1.
         23    2    1    2    0    0 -0.26576296889E+03  0.63399748327E+02 -0.67904999370E+03  0.73765961264E+03  0.91560507146E+02 0.  0.
        254    2    1    2    0    0  0.26576296889E+03 -0.63399748327E+02 -0.40142527654E+03  0.10218173170E+04  0.89906556653E+03 0.  0.
         23    2    4    4    0    0  0.86621792065E+02 -0.44915454738E+03 -0.65527945364E+02  0.47109014283E+03  0.91590767851E+02 0.  0.
         23    2    4    4    0    0  0.17914117682E+03  0.38575479906E+03 -0.33589733117E+03  0.55072717415E+03  0.97852322559E+02 0.  0.
         11    1    3    3    0    0 -0.96659925051E+02  0.61365109459E+02 -0.34024808742E+03  0.35899523501E+03  0.00000000000E+00 0. -1.
        -11    1    3    3    0    0 -0.16910304384E+03  0.20346388676E+01 -0.33880190627E+03  0.37866437763E+03  0.00000000000E+00 0.  1.
          1    1    5    5  502    0  0.99491686820E+02 -0.42574728148E+03 -0.73188922111E+02  0.44330120884E+03  0.00000000000E+00 0. -1.
          3    1    6    6  503    0  0.81943593527E+02  0.24426551576E+03 -0.24909749945E+03  0.35837125853E+03  0.00000000000E+00 0. -1.
         -1    1    5    5    0  502 -0.12869894756E+02 -0.23407265901E+02  0.76609767470E+01  0.27788933997E+02  0.00000000000E+00 0.  1.
         -3    1    6    6    0  503  0.97197583296E+02  0.14148928330E+03 -0.86799831723E+02  0.19235591562E+03  0.00000000000E+00 0.  1.
<mgrwt>
<rscale>  0 0.13886440E+04</rscale>
<asrwt>0</asrwt>
<pdfrwt beam="1">  1        2 0.52230897E-01 0.13886440E+04</pdfrwt>
<pdfrwt beam="2">  1       -2 0.21845786E+00 0.13886440E+04</pdfrwt>
<totfact> 0.94114884E+00</totfact>
</mgrwt>
</event>
<event>
12    1  0.4820219E-008  0.2453276E+04  0.7818608E-02  0.8419823E-01
          2   -1    0    0  501    0  0.00000000000E+00  0.00000000000E+00  0.12596003367E+04  0.12596003367E+04  0.00000000000E+00 0. -1.
         -2   -1    0    0    0  501 -0.00000000000E+00 -0.00000000000E+00 -0.11945384217E+04  0.11945384217E+04  0.00000000000E+00 0.  1.
         23    2    1    2    0    0 -0.53284601803E+03  0.72108852751E+03  0.59365624389E+03  0.10790912325E+04  0.90092223604E+02 0.  0.
        254    2    1    2    0    0  0.53284601803E+03 -0.72108852751E+03 -0.52859432883E+03  0.13750475259E+04  0.89858232267E+03 0.  0.
         23    2    4    4    0    0  0.20254209978E+01 -0.25329838175E+03  0.21547566928E+03  0.34426180752E+03  0.89007053268E+02 0.  0.
         23    2    4    4    0    0  0.53082059703E+03 -0.46779014575E+03 -0.74406999811E+03  0.10307857184E+04  0.90999497063E+02 0.  0.
         11    1    3    3    0    0 -0.27426162854E+03  0.40058445024E+03  0.27147640653E+03  0.55622547763E+03  0.00000000000E+00 0. -1.
        -11    1    3    3    0    0 -0.25858438949E+03  0.32050407727E+03  0.32217983735E+03  0.52286575489E+03  0.00000000000E+00 0.  1.
          2    1    5    5  502    0 -0.11332351052E+02 -0.12902384384E+03  0.54652611750E+02  0.14057909671E+03  0.00000000000E+00 0. -1.
          1    1    6    6  503    0  0.24033635408E+03 -0.16706003170E+03 -0.26401752971E+03  0.39417746419E+03  0.00000000000E+00 0. -1.
         -2    1    5    5    0  502  0.13357772050E+02 -0.12427453791E+03  0.16082305753E+03  0.20368271081E+03  0.00000000000E+00 0.  1.
         -1    1    6    6    0  503  0.29048424295E+03 -0.30073011405E+03 -0.48005246840E+03  0.63660825421E+03  0.00000000000E+00 0.  1.
<mgrwt>
<rscale>  0 0.24532762E+04</rscale>
<asrwt>0</asrwt>
<pdfrwt beam="1">  1        2 0.19378467E+00 0.24532762E+04</pdfrwt>
<pdfrwt beam="2">  1       -2 0.18377514E+00 0.24532762E+04</pdfrwt>
<totfact> 0.26699550E+00</totfact>
</mgrwt>
</event>
<event>
12    1  0.4820219E-008  0.2358438E+04  0.7818608E-02  0.8455230E-01
         -2   -1    0    0    0  501 -0.00000000000E+00  0.00000000000E+00  0.99249945341E+03  0.99249945341E+03  0.00000000000E+00 0. -1.
          2   -1    0    0  501    0  0.00000000000E+00 -0.00000000000E+00 -0.14010657034E+04  0.14010657034E+04  0.00000000000E+00 0.  1.
         23    2    1    2    0    0 -0.14400987391E+03  0.26254436626E+03  0.79895876762E+03  0.85812259152E+03  0.91492522473E+02 0.  0.
        254    2    1    2    0    0  0.14400987391E+03 -0.26254436626E+03 -0.12075250176E+04  0.15354425653E+04  0.89988822367E+03 0.  0.
         23    2    4    4    0    0  0.35552905412E+03 -0.16867702190E+03 -0.12213831932E+04  0.12860839867E+04  0.85920137384E+02 0.  0.
         23    2    4    4    0    0 -0.21151918020E+03 -0.93867344356E+02  0.13858175607E+02  0.24935857863E+03  0.91848841991E+02 0.  0.
         13    1    3    3    0    0 -0.13003564115E+03  0.24525914004E+03  0.78301838309E+03  0.83077018603E+03  0.00000000000E+00 0. -1.
        -13    1    3    3    0    0 -0.13974232761E+02  0.17285226217E+02  0.15940384534E+02  0.27352405483E+02  0.00000000000E+00 0.  1.
          1    1    5    5  502    0  0.18919652756E+03 -0.95286913070E+02 -0.51933640242E+03  0.56087897154E+03  0.00000000000E+00 0. -1.
          1    1    6    6  503    0 -0.17630438980E+03 -0.77519438260E+02 -0.25261034877E+02  0.19424371561E+03  0.00000000000E+00 0. -1.
         -1    1    5    5    0  502  0.16633252656E+03 -0.73390108830E+02 -0.70204679083E+03  0.72520501514E+03  0.00000000000E+00 0.  1.
         -1    1    6    6    0  503 -0.35214790403E+02 -0.16347906096E+02  0.39119210484E+02  0.55114863020E+02  0.00000000000E+00 0.  1.
<mgrwt>
<rscale>  0 0.23584376E+04</rscale>
<asrwt>0</asrwt>
<pdfrwt beam="1">  1        2 0.21554857E+00 0.23584376E+04</pdfrwt>
<pdfrwt beam="2">  1       -2 0.15269223E+00 0.23584376E+04</pdfrwt>
<totfact> 0.37265064E+00</totfact>
</mgrwt>
</event>
<event>
12    1  0.4820219E-008  0.1925729E+04  0.7818608E-02  0.8642154E-01
         -2   -1    0    0    0  501 -0.00000000000E+00  0.00000000000E+00  0.24820086354E+03  0.24820086354E+03  0.00000000000E+00 0.  1.
          2   -1    0    0  501    0  0.00000000000E+00 -0.00000000000E+00 -0.37353142647E+04  0.37353142647E+04  0.00000000000E+00 0. -1.
         23    2    1    2    0    0  0.54154695271E+03  0.42918594723E+03 -0.19446601767E+04  0.20656438364E+04  0.87792803568E+02 0.  0.
        254    2    1    2    0    0 -0.54154695271E+03 -0.42918594723E+03 -0.15424532244E+04  0.19178712919E+04  0.90641859175E+03 0.  0.
         23    2    4    4    0    0 -0.39834469951E+03  0.21322647370E+03 -0.48722103732E+03  0.67089683619E+03  0.92596959351E+02 0.  0.
         23    2    4    4    0    0 -0.14320225320E+03 -0.64241242093E+03 -0.10552321871E+04  0.12469744557E+04  0.90717807575E+02 0.  0.
         11    1    3    3    0    0  0.58017603414E+02  0.84335276420E+02 -0.26568704160E+03  0.28472457785E+03  0.00000000000E+00 0.  1.
        -11    1    3    3    0    0  0.48352934930E+03  0.34485067081E+03 -0.16789731351E+04  0.17809192585E+04  0.00000000000E+00 0. -1.
          1    1    5    5  502    0 -0.34186160662E+03  0.16701038286E+03 -0.44895619565E+03  0.58849255873E+03  0.00000000000E+00 0. -1.
          1    1    6    6  503    0 -0.98319728501E+02 -0.55690044772E+03 -0.86187962872E+03  0.10308449797E+04  0.00000000000E+00 0. -1.
         -1    1    5    5    0  502 -0.56483092892E+02  0.46216090847E+02 -0.38264841669E+02  0.82404277460E+02  0.00000000000E+00 0.  1.
         -1    1    6    6    0  503 -0.44882524699E+02 -0.85511973212E+02 -0.19335255840E+03  0.21612947606E+03  0.00000000000E+00 0.  1.
<mgrwt>
<rscale>  0 0.19257292E+04</rscale>
<asrwt>0</asrwt>
<pdfrwt beam="1">  1        2 0.57466370E+00 0.19257292E+04</pdfrwt>
<pdfrwt beam="2">  1       -2 0.38184751E-01 0.19257292E+04</pdfrwt>
<totfact> 0.33551777E+00</totfact>
</mgrwt>
</event>
<event>
12    1  0.4820219E-008  0.2626535E+04  0.7818608E-02  0.8359243E-01
          3   -1    0    0  501    0  0.00000000000E+00  0.00000000000E+00  0.16908977337E+04  0.16908977337E+04  0.00000000000E+00 0. -1.
         -3   -1    0    0    0  501 -0.00000000000E+00 -0.00000000000E+00 -0.10199741433E+04  0.10199741433E+04  0.00000000000E+00 0.  1.
         23    2    1    2    0    0  0.94258521597E+03  0.57931198453E+03 -0.54095973621E+02  0.11114372780E+04  0.91088878742E+02 0.  0.
        254    2    1    2    0    0 -0.94258521597E+03 -0.57931198453E+03  0.72501956403E+03  0.15994345990E+04  0.89914871048E+03 0.  0.
         23    2    4    4    0    0 -0.89948942409E+03 -0.16813065893E+03  0.73250450361E+03  0.11755947522E+04  0.90061263474E+02 0.  0.
         23    2    4    4    0    0 -0.43095791886E+02 -0.41118132560E+03 -0.74849395790E+01  0.42383984678E+03  0.93042257059E+02 0.  0.
         13    1    3    3    0    0  0.10386240203E+03  0.32627223413E+02 -0.10067512017E+01  0.10887124419E+03  0.00000000000E+00 0. -1.
        -13    1    3    3    0    0  0.83872281394E+03  0.54668476112E+03 -0.53089222420E+02  0.10025660338E+04  0.00000000000E+00 0.  1.
          4    1    5    5  502    0 -0.39545018494E+03 -0.52344168659E+02  0.26907296755E+03  0.48116631494E+03  0.00000000000E+00 0. -1.
          3    1    6    6  503    0 -0.57227418442E+01 -0.26703976262E+03  0.34012462111E+02  0.26925792871E+03  0.00000000000E+00 0. -1.
         -4    1    5    5    0  502 -0.50403923915E+03 -0.11578649027E+03  0.46343153606E+03  0.69442843731E+03  0.00000000000E+00 0.  1.
         -3    1    6    6    0  503 -0.37373050042E+02 -0.14414156299E+03 -0.41497401690E+02  0.15458191808E+03  0.00000000000E+00 0.  1.
<mgrwt>
<rscale>  0 0.26265353E+04</rscale>
<asrwt>0</asrwt>
<pdfrwt beam="1">  1        3 0.26013811E+00 0.26265353E+04</pdfrwt>
<pdfrwt beam="2">  1       -3 0.15691910E+00 0.26265353E+04</pdfrwt>
<totfact> 0.42550746E-02</totfact>
</mgrwt>
</event>
<event>
12    1  0.4820219E-008  0.1504323E+04  0.7818608E-02  0.8881583E-01
         -1   -1    0    0    0  501 -0.00000000000E+00  0.00000000000E+00  0.10533150992E+04  0.10533150992E+04  0.00000000000E+00 0.  1.
          1   -1    0    0  501    0  0.00000000000E+00 -0.00000000000E+00 -0.53711067306E+03  0.53711067306E+03  0.00000000000E+00 0. -1.
         23    2    1    2    0    0 -0.10404082532E+03  0.96146079454E+02 -0.30373208252E+03  0.34881893828E+03  0.96710453520E+02 0.  0.
        254    2    1    2    0    0  0.10404082532E+03 -0.96146079454E+02  0.81993650869E+03  0.12416068340E+04  0.92153301083E+03 0.  0.
         23    2    4    4    0    0  0.40283878191E+02  0.71143871965E+02  0.97724243505E+03  0.98487711450E+03  0.91081899659E+02 0.  0.
         23    2    4    4    0    0  0.63756947124E+02 -0.16728995142E+03 -0.15730592636E+03  0.25672971951E+03  0.95467891233E+02 0.  0.
         13    1    3    3    0    0 -0.92544847591E+02  0.58901278565E+02 -0.28537646824E+03  0.30573458761E+03  0.00000000000E+00 0. -1.
        -13    1    3    3    0    0 -0.11495977724E+02  0.37244800889E+02 -0.18355614281E+02  0.43084350671E+02  0.00000000000E+00 0.  1.
          4    1    5    5  502    0  0.44808678612E+02  0.49430102997E+02  0.30248675457E+03  0.30975698450E+03  0.00000000000E+00 0. -1.
          3    1    6    6  503    0  0.69622500751E+02 -0.14149376206E+03 -0.16592344136E+03  0.22890689310E+03  0.00000000000E+00 0. -1.
         -4    1    5    5    0  502 -0.45248004210E+01  0.21713768967E+02  0.67475568048E+03  0.67512013000E+03  0.00000000000E+00 0.  1.
         -3    1    6    6    0  503 -0.58655536275E+01 -0.25796189356E+02  0.86175149993E+01  0.27822826409E+02  0.00000000000E+00 0.  1.
<mgrwt>
<rscale>  0 0.15043228E+04</rscale>
<asrwt>0</asrwt>
<pdfrwt beam="1">  1        1 0.82632411E-01 0.15043228E+04</pdfrwt>
<pdfrwt beam="2">  1       -1 0.16204848E+00 0.15043228E+04</pdfrwt>
<totfact> 0.10937879E+01</totfact>
</mgrwt>
</event>
<event>
12    1  0.4820219E-008  0.1117808E+04  0.7818608E-02  0.9188007E-01
          2   -1    0    0  501    0  0.00000000000E+00  0.00000000000E+00  0.49330799370E+03  0.49330799370E+03  0.00000000000E+00 0. -1.
         -2   -1    0    0    0  501 -0.00000000000E+00 -0.00000000000E+00 -0.63322215244E+03  0.63322215244E+03  0.00000000000E+00 0.  1.
         23    2    1    2    0    0 -0.13153541205E+03 -0.13715253426E+02 -0.13927806817E+03  0.21243909924E+03  0.90787211745E+02 0.  0.
        254    2    1    2    0    0  0.13153541205E+03  0.13715253426E+02 -0.63609056947E+00  0.91409104689E+03  0.90447352897E+03 0.  0.
         23    2    4    4    0    0 -0.23648870852E+02 -0.61507910159E+02 -0.42902601755E+03  0.44367997101E+03  0.91902670450E+02 0.  0.
         23    2    4    4    0    0  0.15518428290E+03  0.75223163586E+02  0.42838992698E+03  0.47041107589E+03  0.89598910626E+02 0.  0.
         11    1    3    3    0    0 -0.13090955661E+03 -0.62682608488E+01 -0.81832407860E+02  0.15450937215E+03  0.00000000000E+00 0. -1.
        -11    1    3    3    0    0 -0.62585543946E+00 -0.74469925772E+01 -0.57445660305E+02  0.57929727096E+02  0.00000000000E+00 0.  1.
          2    1    5    5  502    0  0.69681594843E+01 -0.75755822002E+02 -0.34136427331E+03  0.34973856937E+03  0.00000000000E+00 0. -1.
          4    1    6    6  503    0  0.15216396583E+03  0.85709032322E+02  0.42416227470E+03  0.45870856325E+03  0.00000000000E+00 0. -1.
         -2    1    5    5    0  502 -0.30617030337E+02  0.14247911843E+02 -0.87661744235E+02  0.93941401634E+02  0.00000000000E+00 0.  1.
         -4    1    6    6    0  503  0.30203170693E+01 -0.10485868737E+02  0.42276522787E+01  0.11702512643E+02  0.00000000000E+00 0.  1.
<mgrwt>
<rscale>  0 0.11178078E+04</rscale>
<asrwt>0</asrwt>
<pdfrwt beam="1">  1        2 0.75893538E-01 0.11178078E+04</pdfrwt>
<pdfrwt beam="2">  1       -2 0.97418793E-01 0.11178078E+04</pdfrwt>
<totfact> 0.54527296E+01</totfact>
</mgrwt>
</event>
<event>
12    1  0.4820219E-008  0.2977379E+04  0.7818608E-02  0.8250220E-01
          1   -1    0    0  501    0  0.00000000000E+00  0.00000000000E+00  0.21706169735E+04  0.21706169735E+04  0.00000000000E+00 0. -1.
         -1   -1    0    0    0  501 -0.00000000000E+00 -0.00000000000E+00 -0.10209983907E+04  0.10209983907E+04  0.00000000000E+00 0.  1.
         23    2    1    2    0    0 -0.22917471940E+03 -0.20621194982E+03  0.19299160087E+04  0.19572043769E+04  0.10501786456E+03 0.  0.
        254    2    1    2    0    0  0.22917471940E+03  0.20621194982E+03 -0.78029742595E+03  0.12344109873E+04  0.90546230869E+03 0.  0.
         23    2    4    4    0    0  0.33117636706E+03  0.27083551002E+03 -0.92639535788E+03  0.10245244831E+04  0.91719124513E+02 0.  0.
         23    2    4    4    0    0 -0.10200164767E+03 -0.64623560205E+02  0.14609793193E+03  0.20988650423E+03  0.90150974935E+02 0.  0.
         11    1    3    3    0    0 -0.14761728262E+01 -0.30202355790E+02  0.90698061284E+02  0.95605960599E+02  0.00000000000E+00 0.  1.
        -11    1    3    3    0    0 -0.22769854657E+03 -0.17600959403E+03  0.18392179474E+04  0.18615984163E+04  0.00000000000E+00 0. -1.
          4    1    5    5  502    0  0.11344432644E+03  0.61197390539E+02 -0.20225745570E+03  0.23983914233E+03  0.00000000000E+00 0. -1.
          3    1    6    6  503    0 -0.61181992699E+02  0.13039612707E+02  0.53363357296E+02  0.82224787212E+02  0.00000000000E+00 0. -1.
         -4    1    5    5    0  502  0.21773204063E+03  0.20963811948E+03 -0.72413790218E+03  0.78468534077E+03  0.00000000000E+00 0.  1.
         -3    1    6    6    0  503 -0.40819654967E+02 -0.77663172912E+02  0.92734574633E+02  0.12766171701E+03  0.00000000000E+00 0.  1.
<mgrwt>
<rscale>  0 0.29773790E+04</rscale>
<asrwt>0</asrwt>
<pdfrwt beam="1">  1        1 0.33394107E+00 0.29773790E+04</pdfrwt>
<pdfrwt beam="2">  1       -1 0.15707668E+00 0.29773790E+04</pdfrwt>
<totfact> 0.59835058E-01</totfact>
</mgrwt>
</event>
<event>
12    1  0.4820219E-008  0.1192982E+04  0.7818608E-02  0.9119022E-01
          2   -1    0    0  501    0  0.00000000000E+00  0.00000000000E+00  0.17872667138E+04  0.17872667138E+04  0.00000000000E+00 0. -1.
         -2   -1    0    0    0  501 -0.00000000000E+00 -0.00000000000E+00 -0.19907567723E+03  0.19907567723E+03  0.00000000000E+00 0.  1.
         23    2    1    2    0    0 -0.14536200948E+03  0.52139121189E+02  0.67203255959E+03  0.69628113393E+03  0.96597383783E+02 0.  0.
        254    2    1    2    0    0  0.14536200948E+03 -0.52139121189E+02  0.91615847699E+03  0.12900612571E+04  0.89502127930E+03 0.  0.
         23    2    4    4    0    0  0.22999306402E+03  0.35323783116E+03  0.67772220782E+03  0.80347133958E+03  0.92655424513E+02 0.  0.
         23    2    4    4    0    0 -0.84631054543E+02 -0.40537695235E+03  0.23843626917E+03  0.48658991754E+03  0.91787823306E+02 0.  0.
         11    1    3    3    0    0 -0.57170101047E+02  0.24914437533E+02  0.10771666847E+03  0.12446698485E+03  0.00000000000E+00 0.  1.
        -11    1    3    3    0    0 -0.88191908434E+02  0.27224683656E+02  0.56431589112E+03  0.57181414908E+03  0.00000000000E+00 0. -1.
          1    1    5    5  502    0  0.14579198797E+03  0.27081354770E+03  0.42483082394E+03  0.52447736876E+03  0.00000000000E+00 0. -1.
          3    1    6    6  503    0 -0.79260273800E+02 -0.27769875310E+03  0.20604339451E+03  0.35475719711E+03  0.00000000000E+00 0. -1.
         -1    1    5    5    0  502  0.84201076049E+02  0.82424283464E+02  0.25289138387E+03  0.27899397081E+03  0.00000000000E+00 0.  1.
         -3    1    6    6    0  503 -0.53707807435E+01 -0.12767819925E+03  0.32392874664E+02  0.13183272044E+03  0.00000000000E+00 0.  1.
<mgrwt>
<rscale>  0 0.11929817E+04</rscale>
<asrwt>0</asrwt>
<pdfrwt beam="1">  1        2 0.27496410E+00 0.11929817E+04</pdfrwt>
<pdfrwt beam="2">  1       -2 0.30627028E-01 0.11929817E+04</pdfrwt>
<totfact> 0.85429146E+01</totfact>
</mgrwt>
</event>
<event>
12    1  0.4820219E-008  0.1896224E+04  0.7818608E-02  0.8656738E-01
         -2   -1    0    0    0  501 -0.00000000000E+00  0.00000000000E+00  0.89820467780E+03  0.89820467780E+03  0.00000000000E+00 0.  1.
          2   -1    0    0  501    0  0.00000000000E+00 -0.00000000000E+00 -0.10007924597E+04  0.10007924597E+04  0.00000000000E+00 0. -1.
         23    2    1    2    0    0 -0.63601891527E+03  0.44752787872E+02 -0.40111535037E+03  0.75878455105E+03  0.91310448501E+02 0.  0.
        254    2    1    2    0    0  0.63601891527E+03 -0.44752787872E+02  0.29852756846E+03  0.11402125865E+04  0.89690755412E+03 0.  0.
         23    2    4    4    0    0 -0.68456095275E+02 -0.98592763064E+02 -0.21483606175E+03  0.26210396512E+03  0.90206347847E+02 0.  0.
         23    2    4    4    0    0  0.70447501054E+03  0.53839975192E+02  0.51336363021E+03  0.87810862136E+03  0.91371498157E+02 0.  0.
         11    1    3    3    0    0 -0.62013282074E+03  0.35071526966E+02 -0.37130355305E+03  0.72364428822E+03  0.00000000000E+00 0. -1.
        -11    1    3    3    0    0 -0.15886094525E+02  0.96812609060E+01 -0.29811797326E+02  0.35140262831E+02  0.00000000000E+00 0.  1.
          2    1    5    5  502    0 -0.86347593693E+02 -0.57574778587E+02 -0.13157656117E+03  0.16758028975E+03  0.00000000000E+00 0. -1.
          1    1    6    6  503    0  0.32779699176E+03  0.75913596625E+01  0.18631187435E+03  0.37712148053E+03  0.00000000000E+00 0. -1.
         -2    1    5    5    0  502  0.17891498417E+02 -0.41017984477E+02 -0.83259500590E+02  0.94523675366E+02  0.00000000000E+00 0.  1.
         -1    1    6    6    0  503  0.37667801878E+03  0.46248615530E+02  0.32705175586E+03  0.50098714083E+03  0.00000000000E+00 0.  1.
<mgrwt>
<rscale>  0 0.18962241E+04</rscale>
<asrwt>0</asrwt>
<pdfrwt beam="1">  1        2 0.15396807E+00 0.18962241E+04</pdfrwt>
<pdfrwt beam="2">  1       -2 0.13818534E+00 0.18962241E+04</pdfrwt>
<totfact> 0.87566866E+00</totfact>
</mgrwt>
</event>
<event>
12    1  0.4820219E-008  0.1526414E+04  0.7818608E-02  0.8867076E-01
          1   -1    0    0  501    0  0.00000000000E+00  0.00000000000E+00  0.71572061638E+03  0.71572061638E+03  0.00000000000E+00 0. -1.
         -1   -1    0    0    0  501 -0.00000000000E+00 -0.00000000000E+00 -0.81384379873E+03  0.81384379873E+03  0.00000000000E+00 0.  1.
         23    2    1    2    0    0 -0.34856432574E+03 -0.76842267273E+02  0.31555163873E+03  0.48460580147E+03  0.88702440191E+02 0.  0.
        254    2    1    2    0    0  0.34856432574E+03  0.76842267273E+02 -0.41367482107E+03  0.10449586136E+04  0.89073555190E+03 0.  0.
         23    2    4    4    0    0  0.58630710826E+03  0.11460514970E+02 -0.49133055412E+03  0.77086407668E+03  0.94542808801E+02 0.  0.
         23    2    4    4    0    0 -0.23774278252E+03  0.65381752303E+02  0.77655733048E+02  0.27409453696E+03  0.91109813641E+02 0.  0.
         11    1    3    3    0    0 -0.31145360048E+03 -0.51879070663E+02  0.30424255116E+03  0.43847270515E+03  0.00000000000E+00 0. -1.
        -11    1    3    3    0    0 -0.37110725261E+02 -0.24963196610E+02  0.11309087565E+02  0.46133096319E+02  0.00000000000E+00 0.  1.
          4    1    5    5  502    0  0.28116371403E+03  0.29265735054E+02 -0.18327411391E+03  0.33689600497E+03  0.00000000000E+00 0. -1.
          1    1    6    6  503    0 -0.70549279459E+02  0.36932030186E+02 -0.14706939765E+02  0.80978205482E+02  0.00000000000E+00 0. -1.
         -4    1    5    5    0  502  0.30514339423E+03 -0.17805220084E+02 -0.30805644021E+03  0.43396807170E+03  0.00000000000E+00 0.  1.
         -1    1    6    6    0  503 -0.16719350306E+03  0.28449722117E+02  0.92362672813E+02  0.19311633148E+03  0.00000000000E+00 0.  1.
<mgrwt>
<rscale>  0 0.15264138E+04</rscale>
<asrwt>0</asrwt>
<pdfrwt beam="1">  1        1 0.11011086E+00 0.15264138E+04</pdfrwt>
<pdfrwt beam="2">  1       -1 0.12520674E+00 0.15264138E+04</pdfrwt>
<totfact> 0.14171084E+01</totfact>
</mgrwt>
</event>
<event>
12    1  0.4820219E-008  0.4217964E+04  0.7818608E-02  0.7961964E-01
         -1   -1    0    0    0  501 -0.00000000000E+00  0.00000000000E+00  0.14572534460E+04  0.14572534460E+04  0.00000000000E+00 0.  1.
          1   -1    0    0  501    0  0.00000000000E+00 -0.00000000000E+00 -0.30521831113E+04  0.30521831113E+04  0.00000000000E+00 0. -1.
         23    2    1    2    0    0 -0.14380099675E+04  0.30746123629E+03  0.70511478841E+03  0.16337873189E+04  0.98331380025E+02 0.  0.
        254    2    1    2    0    0  0.14380099675E+04 -0.30746123629E+03 -0.23000444537E+04  0.28756492384E+04  0.90374165286E+03 0.  0.
         23    2    4    4    0    0  0.15433547770E+04 -0.33650476030E+03 -0.21466444299E+04  0.26664413473E+04  0.81533605436E+02 0.  0.
         23    2    4    4    0    0 -0.10534480948E+03  0.29043524008E+02 -0.15340002380E+03  0.20920789115E+03  0.91078643188E+02 0.  0.
         13    1    3    3    0    0 -0.13893279748E+04  0.27811061975E+03  0.68073700406E+03  0.15719353063E+04  0.00000000000E+00 0.  1.
        -13    1    3    3    0    0 -0.48681992695E+02  0.29350616535E+02  0.24377784353E+02  0.61852012690E+02  0.00000000000E+00 0. -1.
          1    1    6    6  502    0 -0.11257373310E+03  0.18819220572E+01 -0.10933014054E+03  0.15693777954E+03  0.00000000000E+00 0. -1.
          1    1    5    5  503    0  0.11124442191E+04 -0.26493189793E+03 -0.15032990354E+04  0.18888168363E+04  0.00000000000E+00 0. -1.
         -1    1    5    5    0  503  0.43091055784E+03 -0.71572862367E+02 -0.64334539445E+03  0.77762451096E+03  0.00000000000E+00 0.  1.
         -1    1    6    6    0  502  0.72289236200E+01  0.27161601951E+02 -0.44069883265E+02  0.52270111615E+02  0.00000000000E+00 0.  1.
<mgrwt>
<rscale>  0 0.42179637E+04</rscale>
<asrwt>0</asrwt>
<pdfrwt beam="1">  1        1 0.46956663E+00 0.42179637E+04</pdfrwt>
<pdfrwt beam="2">  1       -1 0.22419284E+00 0.42179637E+04</pdfrwt>
<totfact> 0.43397758E-02</totfact>
</mgrwt>
</event>
<event>
12    1  0.4820219E-008  0.1027241E+04  0.7818608E-02  0.9279162E-01
         -2   -1    0    0    0  501 -0.00000000000E+00  0.00000000000E+00  0.14038122271E+04  0.14038122271E+04  0.00000000000E+00 0.  1.
          2   -1    0    0  501    0  0.00000000000E+00 -0.00000000000E+00 -0.18792118931E+03  0.18792118931E+03  0.00000000000E+00 0. -1.
         23    2    1    2    0    0 -0.33289500411E+02 -0.46988153248E+02  0.28926041861E+03  0.30881485597E+03  0.91536594394E+02 0.  0.
        254    2    1    2    0    0  0.33289500411E+02  0.46988153248E+02  0.92663061914E+03  0.12829185604E+04  0.88539237115E+03 0.  0.
         23    2    4    4    0    0 -0.18232667885E+03  0.25504433605E+03  0.91240836089E+03  0.96917622999E+03  0.92319643603E+02 0.  0.
         23    2    4    4    0    0  0.21561617926E+03 -0.20805618280E+03  0.14222258257E+02  0.31374233040E+03  0.91947078798E+02 0.  0.
         13    1    3    3    0    0  0.22361467823E+02 -0.32257975186E+02  0.54901766647E+02  0.67489378329E+02  0.00000000000E+00 0. -1.
        -13    1    3    3    0    0 -0.55650968234E+02 -0.14730178062E+02  0.23435865196E+03  0.24132547765E+03  0.00000000000E+00 0.  1.
          2    1    5    5  502    0 -0.14104492083E+03  0.15404683509E+03  0.69834637116E+03  0.72891134661E+03  0.00000000000E+00 0. -1.
          1    1    6    6  503    0  0.19171824043E+03 -0.21263343894E+03  0.15464100613E+01  0.28630622496E+03  0.00000000000E+00 0. -1.
         -2    1    5    5    0  502 -0.41281758013E+02  0.10099750095E+03  0.21406198972E+03  0.24026488338E+03  0.00000000000E+00 0.  1.
         -1    1    6    6    0  503  0.23897938831E+02  0.45772561461E+01  0.12675848196E+02  0.27436105440E+02  0.00000000000E+00 0.  1.
<mgrwt>
<rscale>  0 0.10272411E+04</rscale>
<asrwt>0</asrwt>
<pdfrwt beam="1">  1        2 0.28910953E-01 0.10272411E+04</pdfrwt>
<pdfrwt beam="2">  1       -2 0.21597110E+00 0.10272411E+04</pdfrwt>
<totfact> 0.19451821E+01</totfact>
</mgrwt>
</event>
<event>
12    1  0.4820219E-008  0.1171215E+04  0.7818608E-02  0.9138432E-01
          1   -1    0    0  501    0  0.00000000000E+00  0.00000000000E+00  0.21779620041E+04  0.21779620041E+04  0.00000000000E+00 0. -1.
         -1   -1    0    0    0  501 -0.00000000000E+00 -0.00000000000E+00 -0.15745739171E+03  0.15745739171E+03  0.00000000000E+00 0.  1.
         23    2    1    2    0    0  0.27599422446E+02  0.61934464253E+02  0.85890866701E+03  0.86646696318E+03  0.91887398720E+02 0.  0.
        254    2    1    2    0    0 -0.27599422446E+02 -0.61934464253E+02  0.11615959454E+04  0.14689524327E+04  0.89661502498E+03 0.  0.
         23    2    4    4    0    0 -0.42956290888E+03  0.10806282515E+03  0.62086842412E+03  0.76841968385E+03  0.93751499126E+02 0.  0.
         23    2    4    4    0    0  0.40196348644E+03 -0.16999728940E+03  0.54072752130E+03  0.70053274881E+03  0.88804037260E+02 0.  0.
         11    1    3    3    0    0  0.37442555494E+02  0.57429928808E+02  0.84908748375E+03  0.85185074793E+03  0.00000000000E+00 0. -1.
        -11    1    3    3    0    0 -0.98431330475E+01  0.45045354452E+01  0.98211832573E+01  0.14616215254E+02  0.00000000000E+00 0.  1.
          4    1    5    5  502    0 -0.28047459761E+03  0.40277467710E+02  0.44967415960E+03  0.53150270378E+03  0.00000000000E+00 0. -1.
          3    1    6    6  503    0  0.31578428869E+03 -0.15304701212E+03  0.37911492448E+03  0.51659580995E+03  0.00000000000E+00 0. -1.
         -4    1    5    5    0  502 -0.14908831127E+03  0.67785357441E+02  0.17119426452E+03  0.23691698007E+03  0.00000000000E+00 0.  1.
         -3    1    6    6    0  503  0.86179197746E+02 -0.16950277288E+02  0.16161259682E+03  0.18393693886E+03  0.00000000000E+00 0.  1.
<mgrwt>
<rscale>  0 0.11712151E+04</rscale>
<asrwt>0</asrwt>
<pdfrwt beam="1">  1        1 0.33507106E+00 0.11712151E+04</pdfrwt>
<pdfrwt beam="2">  1       -1 0.24224216E-01 0.11712151E+04</pdfrwt>
<totfact> 0.33187570E+01</totfact>
</mgrwt>
</event>
<event>
12    1  0.4820219E-008  0.1478164E+04  0.7818608E-02  0.8899105E-01
          1   -1    0    0  501    0  0.00000000000E+00  0.00000000000E+00  0.20429672265E+04  0.20429672265E+04  0.00000000000E+00 0. -1.
         -1   -1    0    0    0  501 -0.00000000000E+00 -0.00000000000E+00 -0.26737681418E+03  0.26737681418E+03  0.00000000000E+00 0.  1.
         23    2    1    2    0    0  0.19925218021E+03  0.38196523475E+03  0.80897037305E+03  0.92108281515E+03  0.91441872314E+02 0.  0.
        254    2    1    2    0    0 -0.19925218021E+03 -0.38196523475E+03  0.96662003930E+03  0.13892612256E+04  0.90005198770E+03 0.  0.
         23    2    4    4    0    0 -0.13339596809E+03 -0.66944214804E+03  0.64772533283E+03  0.94529327711E+03  0.89911062159E+02 0.  0.
         23    2    4    4    0    0 -0.65856212124E+02  0.28747691328E+03  0.31889470647E+03  0.44396794844E+03  0.91835118982E+02 0.  0.
         13    1    3    3    0    0  0.33476959385E+02  0.29304980217E+02  0.13991014680E+03  0.14681395660E+03  0.00000000000E+00 0.  1.
        -13    1    3    3    0    0  0.16577522083E+03  0.35266025454E+03  0.66906022626E+03  0.77426885856E+03  0.00000000000E+00 0. -1.
          1    1    5    5  502    0 -0.28070990081E+02 -0.14061596067E+03  0.18976934383E+03  0.23785128281E+03  0.00000000000E+00 0. -1.
          3    1    6    6  503    0 -0.82710801465E+02  0.15837185826E+03  0.18189663243E+03  0.25496883546E+03  0.00000000000E+00 0. -1.
         -1    1    5    5    0  502 -0.10532497801E+03 -0.52882618737E+03  0.45795598900E+03  0.70744199430E+03  0.00000000000E+00 0.  1.
         -3    1    6    6    0  503  0.16854589341E+02  0.12910505502E+03  0.13699807405E+03  0.18899911298E+03  0.00000000000E+00 0.  1.
<mgrwt>
<rscale>  0 0.14781638E+04</rscale>
<asrwt>0</asrwt>
<pdfrwt beam="1">  1        1 0.31430264E+00 0.14781638E+04</pdfrwt>
<pdfrwt beam="2">  1       -1 0.41134896E-01 0.14781638E+04</pdfrwt>
<totfact> 0.15634857E+01</totfact>
</mgrwt>
</event>
<event>
12    1  0.4820219E-008  0.1307158E+04  0.7818608E-02  0.9023908E-01
         -2   -1    0    0    0  501 -0.00000000000E+00  0.00000000000E+00  0.31507340627E+03  0.31507340627E+03  0.00000000000E+00 0.  1.
          2   -1    0    0  501    0  0.00000000000E+00 -0.00000000000E+00 -0.13557649766E+04  0.13557649766E+04  0.00000000000E+00 0. -1.
         23    2    1    2    0    0 -0.40066667366E+01  0.19565687440E+03  0.10599897716E+03  0.24045553073E+03  0.91024245253E+02 0.  0.
        254    2    1    2    0    0  0.40066667366E+01 -0.19565687440E+03 -0.11466905475E+04  0.14303828521E+04  0.83234501629E+03 0.  0.
         23    2    4    4    0    0  0.34901595155E+03  0.11567535765E+03 -0.55833276624E+03  0.67511865674E+03  0.94110573374E+02 0.  0.
         23    2    4    4    0    0 -0.34500928482E+03 -0.31133223204E+03 -0.58835778124E+03  0.75526419539E+03  0.91104120577E+02 0.  0.
         11    1    3    3    0    0 -0.18519243887E+02  0.37073532457E+02  0.63170526960E+02  0.75550808595E+02  0.00000000000E+00 0. -1.
        -11    1    3    3    0    0  0.14512577150E+02  0.15858334194E+03  0.42828450196E+02  0.16490472214E+03  0.00000000000E+00 0.  1.
          1    1    5    5  502    0  0.25520236431E+03  0.10809404027E+03 -0.47225032438E+03  0.54757002946E+03  0.00000000000E+00 0. -1.
          3    1    6    6  503    0 -0.34403278505E+03 -0.28671494797E+03 -0.54504286312E+03  0.70543301682E+03  0.00000000000E+00 0. -1.
         -1    1    5    5    0  502  0.93813587239E+02  0.75813173782E+01 -0.86082441864E+02  0.12754862728E+03  0.00000000000E+00 0.  1.
         -3    1    6    6    0  503 -0.97649976487E+00 -0.24617284074E+02 -0.43314918113E+02  0.49831178575E+02  0.00000000000E+00 0.  1.
<mgrwt>
<rscale>  0 0.13071580E+04</rscale>
<asrwt>0</asrwt>
<pdfrwt beam="1">  1        2 0.20857923E+00 0.13071580E+04</pdfrwt>
<pdfrwt beam="2">  1       -2 0.48472831E-01 0.13071580E+04</pdfrwt>
<totfact> 0.60577515E+01</totfact>
</mgrwt>
</event>
<event>
12    1  0.4820219E-008  0.1811897E+04  0.7818608E-02  0.8699998E-01
         -2   -1    0    0    0  501 -0.00000000000E+00  0.00000000000E+00  0.67514235972E+03  0.67514235972E+03  0.00000000000E+00 0. -1.
          2   -1    0    0  501    0  0.00000000000E+00 -0.00000000000E+00 -0.12156582964E+04  0.12156582964E+04  0.00000000000E+00 0.  1.
         23    2    1    2    0    0  0.11271525369E+03  0.29554943425E+03 -0.83370089091E+03  0.89681158294E+03  0.95706025413E+02 0.  0.
        254    2    1    2    0    0 -0.11271525369E+03 -0.29554943425E+03  0.29318495427E+03  0.99398907315E+03  0.89554601424E+03 0.  0.
         23    2    4    4    0    0  0.10559386871E+03 -0.32746902324E+03 -0.22658633885E+03  0.42196429078E+03  0.91249479142E+02 0.  0.
         23    2    4    4    0    0 -0.21830912240E+03  0.31919588997E+02  0.51977129311E+03  0.57202478237E+03  0.91500936681E+02 0.  0.
         13    1    3    3    0    0  0.84829973038E+02  0.15559070034E+03 -0.34719027492E+03  0.38980210025E+03  0.00000000000E+00 0. -1.
        -13    1    3    3    0    0  0.27885280654E+02  0.13995873390E+03 -0.48651061598E+03  0.50700948269E+03  0.00000000000E+00 0.  1.
          2    1    5    5  502    0  0.11708759297E+03 -0.32014712415E+03 -0.22451576976E+03  0.40818012740E+03  0.00000000000E+00 0. -1.
          3    1    6    6  503    0 -0.16988557895E+03 -0.13974927177E+02  0.40243286641E+03  0.43704533002E+03  0.00000000000E+00 0. -1.
         -2    1    5    5    0  502 -0.11493724262E+02 -0.73218990943E+01 -0.20705690875E+01  0.13784163380E+02  0.00000000000E+00 0.  1.
         -3    1    6    6    0  503 -0.48423543457E+02  0.45894516174E+02  0.11733842670E+03  0.13497945235E+03  0.00000000000E+00 0.  1.
<mgrwt>
<rscale>  0 0.18118967E+04</rscale>
<asrwt>0</asrwt>
<pdfrwt beam="1">  1        2 0.18702435E+00 0.18118967E+04</pdfrwt>
<pdfrwt beam="2">  1       -2 0.10386806E+00 0.18118967E+04</pdfrwt>
<totfact> 0.13193184E+01</totfact>
</mgrwt>
</event>
<event>
12    1  0.4820219E-008  0.1972317E+04  0.7818608E-02  0.8619674E-01
         -1   -1    0    0    0  501 -0.00000000000E+00  0.00000000000E+00  0.70988120211E+03  0.70988120211E+03  0.00000000000E+00 0.  1.
          1   -1    0    0  501    0  0.00000000000E+00 -0.00000000000E+00 -0.13699597895E+04  0.13699597895E+04  0.00000000000E+00 0. -1.
         23    2    1    2    0    0 -0.45559333350E+03 -0.70919552498E+02  0.39496806356E+03  0.61292746693E+03  0.84175055852E+02 0.  0.
        254    2    1    2    0    0  0.45559333350E+03  0.70919552498E+02 -0.10550466510E+04  0.14669135247E+04  0.90890977810E+03 0.  0.
         23    2    4    4    0    0  0.21750194813E+03 -0.34403729124E+03 -0.83262853990E+03  0.93141217728E+03  0.92680112926E+02 0.  0.
         23    2    4    4    0    0  0.23809138537E+03  0.41495684374E+03 -0.22241811106E+03  0.53550134739E+03  0.91734328246E+02 0.  0.
         13    1    3    3    0    0 -0.12387594133E+02 -0.15280034302E+02  0.58404026774E+01  0.20519313831E+02  0.00000000000E+00 0. -1.
        -13    1    3    3    0    0 -0.44320573937E+03 -0.55639518196E+02  0.38912766089E+03  0.59240815310E+03  0.00000000000E+00 0.  1.
          4    1    5    5  502    0  0.20655334197E+03 -0.27271828546E+03 -0.63974475984E+03  0.72547426146E+03  0.00000000000E+00 0. -1.
          1    1    6    6  503    0  0.56374847777E+02  0.57812440434E+02 -0.69701830861E+02  0.10667120959E+03  0.00000000000E+00 0. -1.
         -4    1    5    5    0  502  0.10948606162E+02 -0.71319005777E+02 -0.19288378006E+03  0.20593791582E+03  0.00000000000E+00 0.  1.
         -1    1    6    6    0  503  0.18171653759E+03  0.35714440330E+03 -0.15271628020E+03  0.42883013780E+03  0.00000000000E+00 0.  1.
<mgrwt>
<rscale>  0 0.19723171E+04</rscale>
<asrwt>0</asrwt>
<pdfrwt beam="1">  1        1 0.21076304E+00 0.19723171E+04</pdfrwt>
<pdfrwt beam="2">  1       -1 0.10921249E+00 0.19723171E+04</pdfrwt>
<totfact> 0.58227967E+00</totfact>
</mgrwt>
</event>
<event>
12    1  0.4820219E-008  0.2555661E+04  0.7818608E-02  0.8383420E-01
         -1   -1    0    0    0  501 -0.00000000000E+00  0.00000000000E+00  0.21171833861E+04  0.21171833861E+04  0.00000000000E+00 0.  1.
          1   -1    0    0  501    0  0.00000000000E+00 -0.00000000000E+00 -0.77123757877E+03  0.77123757877E+03  0.00000000000E+00 0. -1.
         23    2    1    2    0    0 -0.47744791783E+01 -0.10439124898E+04  0.10851747753E+04  0.15086489282E+04  0.92958128224E+02 0.  0.
        254    2    1    2    0    0  0.47744791783E+01  0.10439124898E+04  0.26077103206E+03  0.13797720367E+04  0.86370901350E+03 0.  0.
         23    2    4    4    0    0 -0.14145442500E+03  0.10361338239E+04 -0.20003144866E+02  0.10499698584E+04  0.91945213805E+02 0.  0.
         23    2    4    4    0    0  0.14622890418E+03  0.77786659412E+01  0.28077417693E+03  0.32980217831E+03  0.92151713663E+02 0.  0.
         11    1    3    3    0    0  0.34456849780E+02 -0.64142360097E+03  0.62891484326E+03  0.89896907091E+03  0.00000000000E+00 0.  1.
        -11    1    3    3    0    0 -0.39231328958E+02 -0.40248888885E+03  0.45625993203E+03  0.60967985730E+03  0.00000000000E+00 0. -1.
          1    1    6    6  502    0  0.52124467572E+01  0.18157909415E+02  0.92136664341E+02  0.94053411376E+02  0.00000000000E+00 0. -1.
          1    1    5    5  503    0 -0.12192053588E+03  0.69409484820E+03  0.20281586060E+02  0.70501320420E+03  0.00000000000E+00 0. -1.
         -1    1    5    5    0  503 -0.19533889115E+02  0.34203897568E+03 -0.40284730926E+02  0.34495665417E+03  0.00000000000E+00 0.  1.
         -1    1    6    6    0  502  0.14101645742E+03 -0.10379243474E+02  0.18863751258E+03  0.23574876694E+03  0.00000000000E+00 0.  1.
<mgrwt>
<rscale>  0 0.25556615E+04</rscale>
<asrwt>0</asrwt>
<pdfrwt beam="1">  1        1 0.11865194E+00 0.25556615E+04</pdfrwt>
<pdfrwt beam="2">  1       -1 0.32572052E+00 0.25556615E+04</pdfrwt>
<totfact> 0.46544115E-01</totfact>
</mgrwt>
</event>
<event>
12    1  0.4820219E-008  0.1289792E+04  0.7818608E-02  0.9037699E-01
          1   -1    0    0  501    0  0.00000000000E+00  0.00000000000E+00  0.16974256013E+04  0.16974256013E+04  0.00000000000E+00 0. -1.
         -1   -1    0    0    0  501 -0.00000000000E+00 -0.00000000000E+00 -0.24501277365E+03  0.24501277365E+03  0.00000000000E+00 0.  1.
         23    2    1    2    0    0  0.66409982429E+02 -0.18809651058E+03  0.10144702479E+03  0.24174028252E+03  0.91412703146E+02 0.  0.
        254    2    1    2    0    0 -0.66409982429E+02  0.18809651058E+03  0.13509658029E+04  0.17006980925E+04  0.10136443252E+04 0.  0.
         23    2    4    4    0    0 -0.29604441319E+03 -0.31975669038E+03  0.77609034114E+03  0.89465101473E+03  0.90540515354E+02 0.  0.
         23    2    4    4    0    0  0.22963443076E+03  0.50785320096E+03  0.57487546177E+03  0.80604707774E+03  0.92645828207E+02 0.  0.
         11    1    3    3    0    0  0.52917300442E+02 -0.32857309758E+02  0.41164973497E+02  0.74661894790E+02  0.00000000000E+00 0. -1.
        -11    1    3    3    0    0  0.13492681987E+02 -0.15523920082E+03  0.60282051290E+02  0.16707838773E+03  0.00000000000E+00 0.  1.
          4    1    5    5  502    0 -0.15887765065E+03 -0.22252469337E+03  0.53361066110E+03  0.59958292560E+03  0.00000000000E+00 0. -1.
          3    1    6    6  503    0 -0.49785968535E+01  0.51425218845E+02  0.57934544895E+02  0.77625711282E+02  0.00000000000E+00 0. -1.
         -4    1    5    5    0  502 -0.13716676253E+03 -0.97231997012E+02  0.24247968004E+03  0.29506808912E+03  0.00000000000E+00 0.  1.
         -3    1    6    6    0  503  0.23461302761E+03  0.45642798211E+03  0.51694091687E+03  0.72842136646E+03  0.00000000000E+00 0.  1.
<mgrwt>
<rscale>  0 0.12897922E+04</rscale>
<asrwt>0</asrwt>
<pdfrwt beam="1">  1        1 0.26114239E+00 0.12897922E+04</pdfrwt>
<pdfrwt beam="2">  1       -1 0.37694274E-01 0.12897922E+04</pdfrwt>
<totfact> 0.31943533E+01</totfact>
</mgrwt>
</event>
<event>
12    1  0.4820219E-008  0.1800033E+04  0.7818608E-02  0.8706282E-01
         -2   -1    0    0    0  501 -0.00000000000E+00  0.00000000000E+00  0.22868489685E+03  0.22868489685E+03  0.00000000000E+00 0.  1.
          2   -1    0    0  501    0  0.00000000000E+00 -0.00000000000E+00 -0.35421197703E+04  0.35421197703E+04  0.00000000000E+00 0. -1.
         23    2    1    2    0    0  0.54964598541E+03 -0.12607710010E+03 -0.48113577881E+03  0.74700333376E+03  0.92283251739E+02 0.  0.
        254    2    1    2    0    0 -0.54964598541E+03  0.12607710010E+03 -0.28322990947E+04  0.30238013334E+04  0.89635383519E+03 0.  0.
         23    2    4    4    0    0  0.35201628969E+02  0.29207580361E+03 -0.35003394443E+03  0.46658802729E+03  0.92914989247E+02 0.  0.
         23    2    4    4    0    0 -0.58484761437E+03 -0.16599870351E+03 -0.24822651502E+04  0.25572133061E+04  0.89985083833E+02 0.  0.
         11    1    3    3    0    0  0.21155674597E+03 -0.34692415414E+02 -0.23993326397E+03  0.32175734896E+03  0.00000000000E+00 0.  1.
        -11    1    3    3    0    0  0.33808923944E+03 -0.91384684685E+02 -0.24120251484E+03  0.42524598479E+03  0.00000000000E+00 0. -1.
          1    1    6    6  502    0 -0.12817707507E+03 -0.57108799113E+02 -0.44723010757E+03  0.46872758253E+03  0.00000000000E+00 0. -1.
          1    1    5    5  503    0 -0.97324458323E+01  0.91890296334E+02 -0.17063883548E+03  0.19405194984E+03  0.00000000000E+00 0. -1.
         -1    1    5    5    0  503  0.44934074801E+02  0.20018550727E+03 -0.17939510895E+03  0.27253607746E+03  0.00000000000E+00 0.  1.
         -1    1    6    6    0  502 -0.45667053930E+03 -0.10888990439E+03 -0.20350350427E+04  0.20884857236E+04  0.00000000000E+00 0.  1.
<mgrwt>
<rscale>  0 0.18000325E+04</rscale>
<asrwt>0</asrwt>
<pdfrwt beam="1">  1        2 0.54494147E+00 0.18000325E+04</pdfrwt>
<pdfrwt beam="2">  1       -2 0.35182294E-01 0.18000325E+04</pdfrwt>
<totfact> 0.54845756E+00</totfact>
</mgrwt>
</event>
<event>
12    1  0.4820219E-008  0.1783097E+04  0.7818608E-02  0.8715340E-01
          1   -1    0    0  501    0  0.00000000000E+00  0.00000000000E+00  0.18522887155E+04  0.18522887155E+04  0.00000000000E+00 0. -1.
         -1   -1    0    0    0  501 -0.00000000000E+00 -0.00000000000E+00 -0.42912260947E+03  0.42912260947E+03  0.00000000000E+00 0.  1.
         23    2    1    2    0    0 -0.61126515918E+02  0.87170930305E+02  0.13766223827E+04  0.13838000171E+04  0.92076494272E+02 0.  0.
        254    2    1    2    0    0  0.61126515918E+02 -0.87170930305E+02  0.46543723304E+02  0.89761130781E+03  0.89005871699E+03 0.  0.
         23    2    4    4    0    0 -0.37470140413E+03  0.35456816071E+02 -0.12121845486E+03  0.40597999151E+03  0.92019083027E+02 0.  0.
         23    2    4    4    0    0  0.43582792005E+03 -0.12262774638E+03  0.16776217816E+03  0.49163131631E+03  0.92594074722E+02 0.  0.
         11    1    3    3    0    0 -0.29784486912E+01  0.32880448097E+01  0.65298244797E+03  0.65299751895E+03  0.00000000000E+00 0.  1.
        -11    1    3    3    0    0 -0.58148067227E+02  0.83882885495E+02  0.72363993472E+03  0.73080249817E+03  0.00000000000E+00 0. -1.
          4    1    5    5  502    0 -0.15935451953E+03  0.60475889918E+02 -0.60172744372E+02  0.18075385285E+03  0.00000000000E+00 0. -1.
          4    1    6    6  503    0  0.31777839008E+03 -0.13037138018E+03  0.13292503269E+03  0.36830539812E+03  0.00000000000E+00 0. -1.
         -4    1    5    5    0  502 -0.21534688460E+03 -0.25019073847E+02 -0.61045710484E+02  0.22522613865E+03  0.00000000000E+00 0.  1.
         -4    1    6    6    0  503  0.11804952998E+03  0.77436338001E+01  0.34837145466E+02  0.12332591818E+03  0.00000000000E+00 0.  1.
<mgrwt>
<rscale>  0 0.17830973E+04</rscale>
<asrwt>0</asrwt>
<pdfrwt beam="1">  1        1 0.28496749E+00 0.17830973E+04</pdfrwt>
<pdfrwt beam="2">  1       -1 0.66018864E-01 0.17830973E+04</pdfrwt>
<totfact> 0.82487799E+00</totfact>
</mgrwt>
</event>
<event>
12    1  0.4820219E-008  0.2507423E+04  0.7818608E-02  0.8400346E-01
         -2   -1    0    0    0  501 -0.00000000000E+00  0.00000000000E+00  0.34245793456E+03  0.34245793456E+03  0.00000000000E+00 0.  1.
          2   -1    0    0  501    0  0.00000000000E+00 -0.00000000000E+00 -0.45897371651E+04  0.45897371651E+04  0.00000000000E+00 0. -1.
         23    2    1    2    0    0  0.41441408605E+03  0.94048336972E+03 -0.11377854984E+04  0.15359125088E+04  0.90682913666E+02 0.  0.
        254    2    1    2    0    0 -0.41441408605E+03 -0.94048336972E+03 -0.31094937321E+04  0.33962825909E+04  0.89974227610E+03 0.  0.
         23    2    4    4    0    0 -0.27648578145E+03 -0.37039264140E+03 -0.25054516102E+04  0.25494170520E+04  0.92760110602E+02 0.  0.
         23    2    4    4    0    0 -0.13792830460E+03 -0.57009072832E+03 -0.60404212196E+03  0.84686553883E+03  0.91031313479E+02 0.  0.
         13    1    3    3    0    0  0.28126353965E+02  0.98507401688E+02 -0.15068208246E+03  0.18220836959E+03  0.00000000000E+00 0.  1.
        -13    1    3    3    0    0  0.38628773209E+03  0.84197596804E+03 -0.98710341591E+03  0.13537041392E+04  0.00000000000E+00 0. -1.
          1    1    5    5  502    0 -0.21464740340E+02 -0.28208873576E+01 -0.18234028558E+03  0.18362100160E+03  0.00000000000E+00 0. -1.
          3    1    6    6  503    0  0.92802472078E+01 -0.64150899754E+02 -0.46808837735E+02  0.79953287722E+02  0.00000000000E+00 0. -1.
         -1    1    5    5    0  502 -0.25502104111E+03 -0.36757175404E+03 -0.23231113246E+04  0.23657960504E+04  0.00000000000E+00 0.  1.
         -3    1    6    6    0  503 -0.14720855181E+03 -0.50593982857E+03 -0.55723328423E+03  0.76691225111E+03  0.00000000000E+00 0.  1.
<mgrwt>
<rscale>  0 0.25074225E+04</rscale>
<asrwt>0</asrwt>
<pdfrwt beam="1">  1        2 0.70611340E+00 0.25074225E+04</pdfrwt>
<pdfrwt beam="2">  1       -2 0.52685837E-01 0.25074225E+04</pdfrwt>
<totfact> 0.30521648E-01</totfact>
</mgrwt>
</event>
<event>
12    1  0.4820219E-008  0.1371108E+04  0.7818608E-02  0.8975002E-01
         -2   -1    0    0    0  501 -0.00000000000E+00  0.00000000000E+00  0.18298238165E+03  0.18298238165E+03  0.00000000000E+00 0.  1.
          2   -1    0    0  501    0  0.00000000000E+00 -0.00000000000E+00 -0.25684678225E+04  0.25684678225E+04  0.00000000000E+00 0. -1.
         23    2    1    2    0    0  0.13736425536E+03 -0.37104301053E+03 -0.56963335563E+03  0.69963459403E+03  0.92002994548E+02 0.  0.
        254    2    1    2    0    0 -0.13736425536E+03  0.37104301053E+03 -0.18158520852E+04  0.20518156101E+04  0.86953243080E+03 0.  0.
         23    2    4    4    0    0 -0.26912404497E+03  0.11804305494E+03 -0.17007509341E+04  0.17284927065E+04  0.93655657169E+02 0.  0.
         23    2    4    4    0    0  0.13175978960E+03  0.25299995559E+03 -0.11510115113E+03  0.32332290365E+03  0.99598219597E+02 0.  0.
         11    1    3    3    0    0  0.44173624888E+01 -0.97350985549E+02 -0.18602236251E+03  0.21000249245E+03  0.00000000000E+00 0.  1.
        -11    1    3    3    0    0  0.13294689288E+03 -0.27369202498E+03 -0.38361099312E+03  0.48963210159E+03  0.00000000000E+00 0. -1.
          1    1    5    5  502    0 -0.10692527021E+03  0.77824613470E+02 -0.96388521863E+03  0.97291541183E+03  0.00000000000E+00 0. -1.
          3    1    6    6  503    0  0.32353649206E+02  0.11637303560E+02  0.70916972420E+01  0.35106660634E+02  0.00000000000E+00 0. -1.
         -1    1    5    5    0  502 -0.16219877476E+03  0.40218441472E+02 -0.73686571546E+03  0.75557729465E+03  0.00000000000E+00 0.  1.
         -3    1    6    6    0  503  0.99406140398E+02  0.24136265203E+03 -0.12219284837E+03  0.28821624302E+03  0.00000000000E+00 0.  1.
<mgrwt>
<rscale>  0 0.13711081E+04</rscale>
<asrwt>0</asrwt>
<pdfrwt beam="1">  1        2 0.39514888E+00 0.13711081E+04</pdfrwt>
<pdfrwt beam="2">  1       -2 0.28151136E-01 0.13711081E+04</pdfrwt>
<totfact> 0.35912208E+01</totfact>
</mgrwt>
</event>
<event>
12    1  0.4820219E-008  0.2291019E+04  0.7818608E-02  0.8481471E-01
          1   -1    0    0  501    0  0.00000000000E+00  0.00000000000E+00  0.31609616526E+04  0.31609616526E+04  0.00000000000E+00 0. -1.
         -1   -1    0    0    0  501 -0.00000000000E+00 -0.00000000000E+00 -0.41512419917E+03  0.41512419917E+03  0.00000000000E+00 0.  1.
         23    2    1    2    0    0  0.51260818279E+02 -0.52801030021E+03  0.24267090379E+04  0.24857168164E+04  0.91917291123E+02 0.  0.
        254    2    1    2    0    0 -0.51260818279E+02  0.52801030021E+03  0.31912841561E+03  0.10903690354E+04  0.89757402986E+03 0.  0.
         23    2    4    4    0    0 -0.38869735599E+03  0.43830839141E+03  0.40601226021E+03  0.71855323681E+03  0.90955583425E+02 0.  0.
         23    2    4    4    0    0  0.33743653771E+03  0.89701908804E+02 -0.86883844603E+02  0.37181579858E+03  0.93746126308E+02 0.  0.
         13    1    3    3    0    0 -0.17163036413E+02 -0.51846623908E+02  0.33346771346E+03  0.33791028122E+03  0.00000000000E+00 0.  1.
        -13    1    3    3    0    0  0.68423854692E+02 -0.47616367630E+03  0.20932413244E+04  0.21478065352E+04  0.00000000000E+00 0. -1.
          1    1    5    5  502    0 -0.22953359804E+03  0.27681359632E+03  0.19626619919E+03  0.40967287033E+03  0.00000000000E+00 0. -1.
          3    1    6    6  503    0  0.31346337093E+03  0.85399041706E+02 -0.10502951669E+03  0.34144323191E+03  0.00000000000E+00 0. -1.
         -1    1    5    5    0  502 -0.15916375795E+03  0.16149479509E+03  0.20974606102E+03  0.30888036648E+03  0.00000000000E+00 0.  1.
         -3    1    6    6    0  503  0.23973166775E+02  0.43028670975E+01  0.18145672090E+02  0.30372566669E+02  0.00000000000E+00 0.  1.
<mgrwt>
<rscale>  0 0.22910187E+04</rscale>
<asrwt>0</asrwt>
<pdfrwt beam="1">  1        1 0.48630178E+00 0.22910187E+04</pdfrwt>
<pdfrwt beam="2">  1       -1 0.63865264E-01 0.22910187E+04</pdfrwt>
<totfact> 0.10236171E+00</totfact>
</mgrwt>
</event>
<event>
12    1  0.4820219E-008  0.3234579E+04  0.7818608E-02  0.8179744E-01
          1   -1    0    0  501    0  0.00000000000E+00  0.00000000000E+00  0.26796412564E+04  0.26796412564E+04  0.00000000000E+00 0. -1.
         -1   -1    0    0    0  501 -0.00000000000E+00 -0.00000000000E+00 -0.97611033057E+03  0.97611033057E+03  0.00000000000E+00 0.  1.
         23    2    1    2    0    0 -0.14337869471E+04 -0.19169074518E+03  0.39557571705E+03  0.15025023634E+04  0.92427552530E+02 0.  0.
        254    2    1    2    0    0  0.14337869471E+04  0.19169074518E+03  0.13079552088E+04  0.21532492236E+04  0.91282256731E+03 0.  0.
         23    2    4    4    0    0  0.10533917205E+04 -0.12084425466E+03  0.44046155700E+03  0.11515886022E+04  0.88952092462E+02 0.  0.
         23    2    4    4    0    0  0.38039522658E+03  0.31253499984E+03  0.86749365178E+03  0.10016606214E+04  0.91652114641E+02 0.  0.
         11    1    3    3    0    0 -0.11307742017E+03  0.79845667823E+01  0.21360985152E+02  0.11535401140E+03  0.00000000000E+00 0. -1.
        -11    1    3    3    0    0 -0.13207095269E+04 -0.19967531196E+03  0.37421473190E+03  0.13871483519E+04  0.00000000000E+00 0.  1.
          2    1    5    5  502    0  0.74374224869E+03 -0.12529205012E+03  0.32015423755E+03  0.81935911915E+03  0.00000000000E+00 0. -1.
          3    1    6    6  503    0  0.24617599651E+03  0.25444200693E+03  0.63365104515E+03  0.72584916006E+03  0.00000000000E+00 0. -1.
         -2    1    5    5    0  502  0.30964947184E+03  0.44477954563E+01  0.12030731945E+03  0.33222948305E+03  0.00000000000E+00 0.  1.
         -3    1    6    6    0  503  0.13421923006E+03  0.58092992910E+02  0.23384260663E+03  0.27581146136E+03  0.00000000000E+00 0.  1.
<mgrwt>
<rscale>  0 0.32345791E+04</rscale>
<asrwt>0</asrwt>
<pdfrwt beam="1">  1        1 0.41225250E+00 0.32345791E+04</pdfrwt>
<pdfrwt beam="2">  1       -1 0.15017082E+00 0.32345791E+04</pdfrwt>
<totfact> 0.29418562E-01</totfact>
</mgrwt>
</event>
<event>
12    1  0.4820219E-008  0.1408228E+04  0.7818608E-02  0.8947884E-01
          4   -1    0    0  501    0  0.00000000000E+00  0.00000000000E+00  0.52461909817E+03  0.52461909817E+03  0.00000000000E+00 0. -1.
         -4   -1    0    0    0  501 -0.00000000000E+00 -0.00000000000E+00 -0.94502149408E+03  0.94502149408E+03  0.00000000000E+00 0.  1.
         23    2    1    2    0    0  0.19458552856E+03  0.25231775588E+03 -0.38194400559E+03  0.50817009637E+03  0.10405693433E+03 0.  0.
        254    2    1    2    0    0 -0.19458552856E+03 -0.25231775588E+03 -0.38458390320E+02  0.96147049588E+03  0.90632151513E+03 0.  0.
         23    2    4    4    0    0 -0.28317295161E+03  0.16813513622E+03  0.26135967568E+03  0.42954997760E+03  0.88022489355E+02 0.  0.
         23    2    4    4    0    0  0.88587423051E+02 -0.42045289210E+03 -0.29981806600E+03  0.53192051827E+03  0.91761642652E+02 0.  0.
         13    1    3    3    0    0  0.95986687285E+02  0.67590376665E+02 -0.19424086980E+03  0.22696127126E+03  0.00000000000E+00 0.  1.
        -13    1    3    3    0    0  0.98598841278E+02  0.18472737921E+03 -0.18770313580E+03  0.28120882511E+03  0.00000000000E+00 0. -1.
          4    1    5    5  502    0 -0.19073794160E+02  0.18595893267E+02 -0.33292820389E+01  0.26845874711E+02  0.00000000000E+00 0. -1.
          1    1    6    6  503    0  0.90312033834E+02 -0.35019454379E+03 -0.21115775168E+03  0.41878404704E+03  0.00000000000E+00 0. -1.
         -4    1    5    5    0  502 -0.26409915745E+03  0.14953924295E+03  0.26468895771E+03  0.40270410289E+03  0.00000000000E+00 0.  1.
         -1    1    6    6    0  503 -0.17246107834E+01 -0.70258348307E+02 -0.88660314311E+02  0.11313647123E+03  0.00000000000E+00 0.  1.
<mgrwt>
<rscale>  0 0.14082277E+04</rscale>
<asrwt>0</asrwt>
<pdfrwt beam="1">  1        4 0.80710631E-01 0.14082277E+04</pdfrwt>
<pdfrwt beam="2">  1       -4 0.14538792E+00 0.14082277E+04</pdfrwt>
<totfact> 0.85544962E-01</totfact>
</mgrwt>
</event>
<event>
12    1  0.4820219E-008  0.1904250E+04  0.7818608E-02  0.8652744E-01
         -1   -1    0    0    0  501 -0.00000000000E+00  0.00000000000E+00  0.83869661810E+03  0.83869661810E+03  0.00000000000E+00 0. -1.
          1   -1    0    0  501    0  0.00000000000E+00 -0.00000000000E+00 -0.10808936849E+04  0.10808936849E+04  0.00000000000E+00 0.  1.
         23    2    1    2    0    0 -0.50091422963E+03 -0.51772423558E+03 -0.23177563480E+03  0.76229450600E+03  0.91757939387E+02 0.  0.
        254    2    1    2    0    0  0.50091422963E+03  0.51772423558E+03 -0.10421432025E+02  0.11572957970E+04  0.90568841554E+03 0.  0.
         23    2    4    4    0    0  0.41373728503E+03 -0.79875108516E+02  0.24457367832E+03  0.49555526511E+03  0.90554749555E+02 0.  0.
         23    2    4    4    0    0  0.87176944600E+02  0.59759934409E+03 -0.25499511034E+03  0.66174053192E+03  0.90295235557E+02 0.  0.
         13    1    3    3    0    0 -0.24261014994E+03 -0.27309230693E+03 -0.72088222811E+02  0.37233829353E+03  0.00000000000E+00 0.  1.
        -13    1    3    3    0    0 -0.25830407969E+03 -0.24463192864E+03 -0.15968741199E+03  0.38995621247E+03  0.00000000000E+00 0. -1.
          2    1    5    5  502    0  0.38066326216E+03 -0.93105228416E+02  0.20483683517E+03  0.44218913573E+03  0.00000000000E+00 0. -1.
          3    1    6    6  503    0  0.61693805992E+02  0.49676949189E+03 -0.17414949348E+03  0.53001330158E+03  0.00000000000E+00 0. -1.
         -2    1    5    5    0  502  0.33074022871E+02  0.13230119900E+02  0.39736843149E+02  0.53366129379E+02  0.00000000000E+00 0.  1.
         -3    1    6    6    0  503  0.25483138608E+02  0.10082985220E+03 -0.80845616867E+02  0.13172723034E+03  0.00000000000E+00 0.  1.
<mgrwt>
<rscale>  0 0.19042499E+04</rscale>
<asrwt>0</asrwt>
<pdfrwt beam="1">  1        1 0.16629133E+00 0.19042499E+04</pdfrwt>
<pdfrwt beam="2">  1       -1 0.12903025E+00 0.19042499E+04</pdfrwt>
<totfact> 0.63368341E+00</totfact>
</mgrwt>
</event>
<event>
12    1  0.4820219E-008  0.2820660E+04  0.7818608E-02  0.8296883E-01
          2   -1    0    0  501    0  0.00000000000E+00  0.00000000000E+00  0.21693336003E+04  0.21693336003E+04  0.00000000000E+00 0. -1.
         -2   -1    0    0    0  501 -0.00000000000E+00 -0.00000000000E+00 -0.91688531305E+03  0.91688531305E+03  0.00000000000E+00 0.  1.
         23    2    1    2    0    0 -0.22972270910E+03 -0.40511036731E+03  0.18527962120E+04  0.19123932147E+04  0.86643360727E+02 0.  0.
        254    2    1    2    0    0  0.22972270910E+03  0.40511036731E+03 -0.60034792466E+03  0.11738256987E+04  0.89474141931E+03 0.  0.
         23    2    4    4    0    0  0.21997403402E+03  0.29626438712E+03  0.15092069467E+03  0.40904909658E+03  0.91558421886E+02 0.  0.
         23    2    4    4    0    0  0.97486750758E+01  0.10884598020E+03 -0.75126861933E+03  0.76477660208E+03  0.92391712949E+02 0.  0.
         11    1    3    3    0    0 -0.16014219370E+03 -0.30454421522E+03  0.12053803429E+04  0.12535288079E+04  0.00000000000E+00 0. -1.
        -11    1    3    3    0    0 -0.69580515394E+02 -0.10056615209E+03  0.64741586908E+03  0.65886440684E+03  0.00000000000E+00 0.  1.
          2    1    5    5  502    0  0.17226439212E+03  0.24052820346E+03  0.78793605179E+02  0.30616542860E+03  0.00000000000E+00 0. -1.
          1    1    6    6  503    0  0.25445484471E+02  0.53718571095E+02 -0.60124641527E+03  0.60417746519E+03  0.00000000000E+00 0. -1.
         -2    1    5    5    0  502  0.47709641904E+02  0.55736183655E+02  0.72127089496E+02  0.10288366799E+03  0.00000000000E+00 0.  1.
         -1    1    6    6    0  503 -0.15696809395E+02  0.55127409103E+02 -0.15002220406E+03  0.16059913689E+03  0.00000000000E+00 0.  1.
<mgrwt>
<rscale>  0 0.28206596E+04</rscale>
<asrwt>0</asrwt>
<pdfrwt beam="1">  1        2 0.33374363E+00 0.28206596E+04</pdfrwt>
<pdfrwt beam="2">  1       -2 0.14105928E+00 0.28206596E+04</pdfrwt>
<totfact> 0.16437386E+00</totfact>
</mgrwt>
</event>
<event>
12    1  0.4820219E-008  0.2134759E+04  0.7818608E-02  0.8546084E-01
         -1   -1    0    0    0  501 -0.00000000000E+00  0.00000000000E+00  0.58670476800E+03  0.58670476800E+03  0.00000000000E+00 0.  1.
          1   -1    0    0  501    0  0.00000000000E+00 -0.00000000000E+00 -0.19418607197E+04  0.19418607197E+04  0.00000000000E+00 0. -1.
         23    2    1    2    0    0  0.74433642928E+03  0.45663939476E+03 -0.54715178134E+03  0.10340163641E+04  0.85196904558E+02 0.  0.
        254    2    1    2    0    0 -0.74433642928E+03 -0.45663939476E+03 -0.80800417038E+03  0.14945491236E+04  0.90457176985E+03 0.  0.
         23    2    4    4    0    0 -0.52207656836E+03  0.82730085889E+02 -0.71988669993E+03  0.89746363175E+03  0.88294389547E+02 0.  0.
         23    2    4    4    0    0 -0.22225986092E+03 -0.53936948065E+03 -0.88117470446E+02  0.59708549189E+03  0.91801490144E+02 0.  0.
         11    1    3    3    0    0  0.43434714152E+02  0.11692446567E+02 -0.45694642713E+02  0.64119326827E+02  0.00000000000E+00 0. -1.
        -11    1    3    3    0    0  0.70090171513E+03  0.44494694820E+03 -0.50145713862E+03  0.96989703725E+03  0.00000000000E+00 0.  1.
          1    1    5    5  502    0 -0.20974191523E+03  0.38500232348E+01 -0.33851611675E+03  0.39824572186E+03  0.00000000000E+00 0. -1.
          3    1    6    6  503    0 -0.10426507115E+03 -0.14816970823E+03 -0.41105618358E+02  0.18578250552E+03  0.00000000000E+00 0. -1.
         -1    1    5    5    0  502 -0.31233465313E+03  0.78880062654E+02 -0.38137058318E+03  0.49921790989E+03  0.00000000000E+00 0.  1.
         -3    1    6    6    0  503 -0.11799478977E+03 -0.39119977242E+03 -0.47011852087E+02  0.41130298637E+03  0.00000000000E+00 0.  1.
<mgrwt>
<rscale>  0 0.21347589E+04</rscale>
<asrwt>0</asrwt>
<pdfrwt beam="1">  1        1 0.29874780E+00 0.21347589E+04</pdfrwt>
<pdfrwt beam="2">  1       -1 0.90262273E-01 0.21347589E+04</pdfrwt>
<totfact> 0.35908153E+00</totfact>
</mgrwt>
</event>
<event>
12    1  0.4820219E-008  0.2136070E+04  0.7818608E-02  0.8545518E-01
         -1   -1    0    0    0  501 -0.00000000000E+00  0.00000000000E+00  0.55319372644E+03  0.55319372644E+03  0.00000000000E+00 0.  1.
          1   -1    0    0  501    0  0.00000000000E+00 -0.00000000000E+00 -0.20620248219E+04  0.20620248219E+04  0.00000000000E+00 0. -1.
         23    2    1    2    0    0  0.10395254235E+03  0.16597985848E+03  0.42497062895E+03  0.47620552063E+03  0.88409376927E+02 0.  0.
        254    2    1    2    0    0 -0.10395254235E+03 -0.16597985848E+03 -0.19338017244E+04  0.21390130277E+04  0.89299058160E+03 0.  0.
         23    2    4    4    0    0  0.28349297133E+03 -0.22808218166E+03 -0.38005553970E+03  0.53390698671E+03  0.90690191393E+02 0.  0.
         23    2    4    4    0    0 -0.38744551368E+03  0.62102323174E+02 -0.15537461847E+04  0.16051060410E+04  0.90925638353E+02 0.  0.
         13    1    3    3    0    0  0.12158552280E+01 -0.96674813981E+01  0.35084610591E+02  0.36412475895E+02  0.00000000000E+00 0. -1.
        -13    1    3    3    0    0  0.10273668712E+03  0.17564733988E+03  0.38988601836E+03  0.43979304474E+03  0.00000000000E+00 0.  1.
          2    1    5    5  502    0  0.17729081288E+03 -0.11170877129E+03 -0.16188551701E+03  0.26479766338E+03  0.00000000000E+00 0. -1.
          1    1    6    6  503    0 -0.22870677891E+03  0.80662238244E+01 -0.10322676520E+04  0.10573307713E+04  0.00000000000E+00 0. -1.
         -2    1    5    5    0  502  0.10620215845E+03 -0.11637341037E+03 -0.21817002269E+03  0.26910932333E+03  0.00000000000E+00 0.  1.
         -1    1    6    6    0  503 -0.15873873477E+03  0.54036099350E+02 -0.52147853272E+03  0.54777526965E+03  0.00000000000E+00 0.  1.
<mgrwt>
<rscale>  0 0.21360704E+04</rscale>
<asrwt>0</asrwt>
<pdfrwt beam="1">  1        1 0.31723459E+00 0.21360704E+04</pdfrwt>
<pdfrwt beam="2">  1       -1 0.85106727E-01 0.21360704E+04</pdfrwt>
<totfact> 0.33849914E+00</totfact>
</mgrwt>
</event>
<event>
12    1  0.4820219E-008  0.1229068E+04  0.7818608E-02  0.9087787E-01
         -2   -1    0    0    0  501 -0.00000000000E+00  0.00000000000E+00  0.98009301973E+03  0.98009301973E+03  0.00000000000E+00 0.  1.
          2   -1    0    0  501    0  0.00000000000E+00 -0.00000000000E+00 -0.38532273207E+03  0.38532273207E+03  0.00000000000E+00 0. -1.
         23    2    1    2    0    0  0.10939402372E+03 -0.26244011712E+03  0.15759476367E+03  0.33665523928E+03  0.87514416503E+02 0.  0.
        254    2    1    2    0    0 -0.10939402372E+03  0.26244011712E+03  0.43717552399E+03  0.10287605125E+04  0.88678288541E+03 0.  0.
         23    2    4    4    0    0  0.14775025611E+03  0.51434792509E+03  0.35962788252E+03  0.65100850430E+03  0.89977400292E+02 0.  0.
         23    2    4    4    0    0 -0.25714427983E+03 -0.25190780797E+03  0.77547641469E+02  0.37775200822E+03  0.84274661990E+02 0.  0.
         13    1    3    3    0    0  0.12402759143E+03 -0.24349261703E+03  0.14881960737E+03  0.31115715245E+03  0.00000000000E+00 0.  1.
        -13    1    3    3    0    0 -0.14633567710E+02 -0.18947500091E+02  0.87751562994E+01  0.25498086825E+02  0.00000000000E+00 0. -1.
          2    1    5    5  502    0 -0.79544976480E+01  0.60900566034E+02  0.24839654881E+02  0.66250746643E+02  0.00000000000E+00 0. -1.
          1    1    6    6  503    0 -0.94433343080E+02 -0.12108786895E+03  0.70201688842E+02  0.16884373073E+03  0.00000000000E+00 0. -1.
         -2    1    5    5    0  502  0.15570475376E+03  0.45344735906E+03  0.33478822764E+03  0.58475775766E+03  0.00000000000E+00 0.  1.
         -1    1    6    6    0  503 -0.16271093675E+03 -0.13081993902E+03  0.73459526274E+01  0.20890827749E+03  0.00000000000E+00 0.  1.
<mgrwt>
<rscale>  0 0.12290681E+04</rscale>
<asrwt>0</asrwt>
<pdfrwt beam="1">  1        2 0.59280421E-01 0.12290681E+04</pdfrwt>
<pdfrwt beam="2">  1       -2 0.15078354E+00 0.12290681E+04</pdfrwt>
<totfact> 0.24113773E+01</totfact>
</mgrwt>
</event>
<event>
12    1  0.4820219E-008  0.1861199E+04  0.7818608E-02  0.8674415E-01
         -1   -1    0    0    0  501 -0.00000000000E+00  0.00000000000E+00  0.58002249799E+03  0.58002249799E+03  0.00000000000E+00 0.  1.
          1   -1    0    0  501    0  0.00000000000E+00 -0.00000000000E+00 -0.14930728234E+04  0.14930728234E+04  0.00000000000E+00 0. -1.
         23    2    1    2    0    0  0.27167843133E+03  0.36509580955E+03 -0.95946139222E+03  0.10658787431E+04  0.91799845289E+02 0.  0.
        254    2    1    2    0    0 -0.27167843133E+03 -0.36509580955E+03  0.46411066800E+02  0.10072165783E+04  0.89734448699E+03 0.  0.
         23    2    4    4    0    0 -0.16972381422E+03  0.10526682087E+03 -0.32497409975E+03  0.39253207395E+03  0.92660600473E+02 0.  0.
         23    2    4    4    0    0 -0.10195461710E+03 -0.47036263042E+03  0.37138516655E+03  0.61468450437E+03  0.90963453890E+02 0.  0.
         13    1    3    3    0    0  0.11071417474E+03  0.17295767846E+03 -0.53326303935E+03  0.57143805978E+03  0.00000000000E+00 0. -1.
        -13    1    3    3    0    0  0.16096425658E+03  0.19213813109E+03 -0.42619835287E+03  0.49444068330E+03  0.00000000000E+00 0.  1.
          1    1    5    5  502    0 -0.57070999284E+02  0.86046360355E+02 -0.18467144498E+03  0.21157650551E+03  0.00000000000E+00 0. -1.
          3    1    6    6  503    0 -0.10487604438E+03 -0.47348226546E+03  0.36485587300E+03  0.60688075307E+03  0.00000000000E+00 0. -1.
         -1    1    5    5    0  502 -0.11265281494E+03  0.19220460514E+02 -0.14030265476E+03  0.18095556844E+03  0.00000000000E+00 0.  1.
         -3    1    6    6    0  503  0.29214272719E+01  0.31196350427E+01  0.65292935512E+01  0.78037513019E+01  0.00000000000E+00 0.  1.
<mgrwt>
<rscale>  0 0.18611994E+04</rscale>
<asrwt>0</asrwt>
<pdfrwt beam="1">  1        1 0.22970351E+00 0.18611994E+04</pdfrwt>
<pdfrwt beam="2">  1       -1 0.89234230E-01 0.18611994E+04</pdfrwt>
<totfact> 0.76426789E+00</totfact>
</mgrwt>
</event>
<event>
12    1  0.4820219E-008  0.3382842E+04  0.7818608E-02  0.8142130E-01
         -1   -1    0    0    0  501 -0.00000000000E+00  0.00000000000E+00  0.19766986242E+04  0.19766986242E+04  0.00000000000E+00 0.  1.
          1   -1    0    0  501    0  0.00000000000E+00 -0.00000000000E+00 -0.14473143113E+04  0.14473143113E+04  0.00000000000E+00 0. -1.
         23    2    1    2    0    0 -0.14486038844E+04  0.27984859515E+03 -0.29878129949E+03  0.15081627227E+04  0.92282626399E+02 0.  0.
        254    2    1    2    0    0  0.14486038844E+04 -0.27984859515E+03  0.82816561231E+03  0.19158502128E+04  0.89880771394E+03 0.  0.
         23    2    4    4    0    0  0.22553526966E+03  0.23513425338E+03  0.38771537232E+03  0.51456287001E+03  0.91090407211E+02 0.  0.
         23    2    4    4    0    0  0.12230686147E+04 -0.51498284853E+03  0.44045023999E+03  0.14012873428E+04  0.92225987214E+02 0.  0.
         11    1    3    3    0    0 -0.66954417435E+03  0.90847894001E+02 -0.16336432576E+03  0.69514792972E+03  0.00000000000E+00 0.  1.
        -11    1    3    3    0    0 -0.77905971001E+03  0.18900070114E+03 -0.13541697373E+03  0.81301479296E+03  0.00000000000E+00 0. -1.
          2    1    5    5  502    0  0.12795157302E+03  0.68970660392E+02  0.15692892915E+03  0.21390475880E+03  0.00000000000E+00 0. -1.
          1    1    6    6  503    0  0.11168947877E+03 -0.56442532254E+02  0.15307006183E+02  0.12607380201E+03  0.00000000000E+00 0. -1.
         -2    1    5    5    0  502  0.97583696637E+02  0.16616359299E+03  0.23078644317E+03  0.30065811121E+03  0.00000000000E+00 0.  1.
         -1    1    6    6    0  503  0.11113791359E+04 -0.45854031627E+03  0.42514323381E+03  0.12752135408E+04  0.00000000000E+00 0.  1.
<mgrwt>
<rscale>  0 0.33828415E+04</rscale>
<asrwt>0</asrwt>
<pdfrwt beam="1">  1        1 0.22266374E+00 0.33828415E+04</pdfrwt>
<pdfrwt beam="2">  1       -1 0.30410748E+00 0.33828415E+04</pdfrwt>
<totfact> 0.18211401E-01</totfact>
</mgrwt>
</event>
<event>
12    1  0.4820219E-008  0.2395174E+04  0.7818608E-02  0.8441312E-01
          2   -1    0    0  501    0  0.00000000000E+00  0.00000000000E+00  0.29708259610E+04  0.29708259610E+04  0.00000000000E+00 0. -1.
         -2   -1    0    0    0  501 -0.00000000000E+00 -0.00000000000E+00 -0.48276634042E+03  0.48276634042E+03  0.00000000000E+00 0.  1.
         23    2    1    2    0    0  0.89067843573E+03 -0.32093520233E+03  0.50458218323E+03  0.10771326341E+04  0.96457512583E+02 0.  0.
        254    2    1    2    0    0 -0.89067843573E+03  0.32093520233E+03  0.19834774374E+04  0.23764596674E+04  0.90391942462E+03 0.  0.
         23    2    4    4    0    0 -0.91127875736E+03  0.40267899239E+03  0.11106249044E+04  0.14948704466E+04  0.92577693644E+02 0.  0.
         23    2    4    4    0    0  0.20600321631E+02 -0.81743790062E+02  0.87285253294E+03  0.88158922075E+03  0.90672980652E+02 0.  0.
         11    1    3    3    0    0  0.51301817913E+03 -0.18625890202E+03  0.34442174643E+03  0.64537304725E+03  0.00000000000E+00 0. -1.
        -11    1    3    3    0    0  0.37766025660E+03 -0.13467630031E+03  0.16016043680E+03  0.43175958680E+03  0.00000000000E+00 0.  1.
          2    1    5    5  502    0 -0.16112779193E+03  0.10232280864E+03  0.17952169898E+03  0.26203084342E+03  0.00000000000E+00 0. -1.
          4    1    6    6  503    0 -0.34567729092E+02 -0.47577221112E+02  0.43321561690E+03  0.43718907876E+03  0.00000000000E+00 0. -1.
         -2    1    5    5    0  502 -0.75015096544E+03  0.30035618375E+03  0.93110320544E+03  0.12328396032E+04  0.00000000000E+00 0.  1.
         -4    1    6    6    0  503  0.55168050723E+02 -0.34166568949E+02  0.43963691605E+03  0.44440014200E+03  0.00000000000E+00 0.  1.
<mgrwt>
<rscale>  0 0.23951741E+04</rscale>
<asrwt>0</asrwt>
<pdfrwt beam="1">  1        2 0.45705014E+00 0.23951741E+04</pdfrwt>
<pdfrwt beam="2">  1       -2 0.74271746E-01 0.23951741E+04</pdfrwt>
<totfact> 0.26666312E+00</totfact>
</mgrwt>
</event>
<event>
12    1  0.4820219E-008  0.1429216E+04  0.7818608E-02  0.8932938E-01
         -1   -1    0    0    0  501 -0.00000000000E+00  0.00000000000E+00  0.18524226115E+04  0.18524226115E+04  0.00000000000E+00 0.  1.
          1   -1    0    0  501    0  0.00000000000E+00 -0.00000000000E+00 -0.27567397804E+03  0.27567397804E+03  0.00000000000E+00 0. -1.
         23    2    1    2    0    0 -0.47588946364E+01 -0.39379062256E+03  0.35687055185E+03  0.53903013830E+03  0.90017763379E+02 0.  0.
        254    2    1    2    0    0  0.47588946364E+01  0.39379062256E+03  0.12198780816E+04  0.15890664512E+04  0.93911445041E+03 0.  0.
         23    2    4    4    0    0  0.32286805738E+03  0.29350388827E+03  0.11546534664E+04  0.12376154003E+04  0.89882904731E+02 0.  0.
         23    2    4    4    0    0 -0.31810916275E+03  0.10028673430E+03  0.65224615156E+02  0.35145105094E+03  0.89513810583E+02 0.  0.
         11    1    3    3    0    0 -0.38997921464E+02 -0.32053617482E+03  0.27824008507E+03  0.42624150688E+03  0.00000000000E+00 0. -1.
        -11    1    3    3    0    0  0.34239026828E+02 -0.73254447741E+02  0.78630466782E+02  0.11278863142E+03  0.00000000000E+00 0.  1.
          1    1    5    5  502    0  0.24203953327E+03  0.17406235176E+03  0.84427531070E+03  0.89536676185E+03  0.00000000000E+00 0. -1.
          3    1    6    6  503    0 -0.16073229845E+03  0.54596695016E+02  0.78530438823E+02  0.18703662928E+03  0.00000000000E+00 0. -1.
         -1    1    5    5    0  502  0.80828524117E+02  0.11944153650E+03  0.31037815573E+03  0.34224863843E+03  0.00000000000E+00 0.  1.
         -3    1    6    6    0  503 -0.15737686430E+03  0.45690039281E+02 -0.13305823667E+02  0.16441442166E+03  0.00000000000E+00 0.  1.
<mgrwt>
<rscale>  0 0.14292162E+04</rscale>
<asrwt>0</asrwt>
<pdfrwt beam="1">  1        1 0.42411382E-01 0.14292162E+04</pdfrwt>
<pdfrwt beam="2">  1       -1 0.28498809E+00 0.14292162E+04</pdfrwt>
<totfact> 0.39447679E+00</totfact>
</mgrwt>
</event>
<event>
12    1  0.4820219E-008  0.2241580E+04  0.7818608E-02  0.8501318E-01
         -1   -1    0    0    0  501 -0.00000000000E+00  0.00000000000E+00  0.38310929047E+03  0.38310929047E+03  0.00000000000E+00 0.  1.
          1   -1    0    0  501    0  0.00000000000E+00 -0.00000000000E+00 -0.32788825607E+04  0.32788825607E+04  0.00000000000E+00 0. -1.
         23    2    1    2    0    0 -0.51443939895E+03 -0.69283887744E+03 -0.12850817240E+04  0.15506431397E+04  0.91572398511E+02 0.  0.
        254    2    1    2    0    0  0.51443939895E+03  0.69283887744E+03 -0.16106915462E+04  0.21113487114E+04  0.10577298894E+04 0.  0.
         23    2    4    4    0    0  0.74187849493E+03  0.18356526897E+03 -0.11423667993E+04  0.13776008608E+04  0.93286217393E+02 0.  0.
         23    2    4    4    0    0 -0.22743909598E+03  0.50927360847E+03 -0.46832474691E+03  0.73374785061E+03  0.89273114866E+02 0.  0.
         13    1    3    3    0    0 -0.29511579724E+03 -0.44168736142E+03 -0.72422191794E+03  0.89815279627E+03  0.00000000000E+00 0.  1.
        -13    1    3    3    0    0 -0.21932360171E+03 -0.25115151602E+03 -0.56085980606E+03  0.65249034346E+03  0.00000000000E+00 0. -1.
          2    1    5    5  502    0  0.51283299233E+03  0.14386973811E+03 -0.72152001581E+03  0.89682066924E+03  0.00000000000E+00 0. -1.
          1    1    6    6  503    0 -0.17473992736E+03  0.38952375231E+03 -0.30599582911E+03  0.52525826339E+03  0.00000000000E+00 0. -1.
         -2    1    5    5    0  502  0.22904550260E+03  0.39695530862E+02 -0.42084678350E+03  0.48078019158E+03  0.00000000000E+00 0.  1.
         -1    1    6    6    0  503 -0.52699168621E+02  0.11974985616E+03 -0.16232891780E+03  0.20848958722E+03  0.00000000000E+00 0.  1.
<mgrwt>
<rscale>  0 0.22415801E+04</rscale>
<asrwt>0</asrwt>
<pdfrwt beam="1">  1        1 0.50444347E+00 0.22415801E+04</pdfrwt>
<pdfrwt beam="2">  1       -1 0.58939891E-01 0.22415801E+04</pdfrwt>
<totfact> 0.98379163E-01</totfact>
</mgrwt>
</event>
<event>
12    1  0.4820219E-008  0.1540728E+04  0.7818608E-02  0.8857812E-01
          1   -1    0    0  501    0  0.00000000000E+00  0.00000000000E+00  0.14878913631E+04  0.14878913631E+04  0.00000000000E+00 0. -1.
         -1   -1    0    0    0  501 -0.00000000000E+00 -0.00000000000E+00 -0.39886006701E+03  0.39886006701E+03  0.00000000000E+00 0.  1.
         23    2    1    2    0    0  0.15610708611E+03 -0.19463710583E+03  0.90457237164E+03  0.94289349723E+03  0.92433469506E+02 0.  0.
        254    2    1    2    0    0 -0.15610708611E+03  0.19463710583E+03  0.18445892449E+03  0.94385793291E+03  0.89139759782E+03 0.  0.
         23    2    4    4    0    0  0.16734400314E+03  0.45851442703E+03  0.96433780079E+02  0.50745845804E+03  0.99875510111E+02 0.  0.
         23    2    4    4    0    0 -0.32345108925E+03 -0.26387732120E+03  0.88025144408E+02  0.43639947487E+03  0.91892479760E+02 0.  0.
         13    1    3    3    0    0  0.96195374929E+02 -0.18044488764E+03  0.70039959456E+03  0.72963929424E+03  0.00000000000E+00 0. -1.
        -13    1    3    3    0    0  0.59911711185E+02 -0.14192218188E+02  0.20417277708E+03  0.21325420300E+03  0.00000000000E+00 0.  1.
          4    1    6    6  502    0 -0.13483118923E+03 -0.12795709198E+03 -0.50971216805E+01  0.18595281021E+03  0.00000000000E+00 0. -1.
          4    1    5    5  503    0 -0.99511899535E+00  0.94095964637E+02 -0.20863093314E+01  0.94124351309E+02  0.00000000000E+00 0. -1.
         -4    1    5    5    0  503  0.16833912213E+03  0.36441846239E+03  0.98520089410E+02  0.41333410674E+03  0.00000000000E+00 0.  1.
         -4    1    6    6    0  502 -0.18861990002E+03 -0.13592022922E+03  0.93122266088E+02  0.25044666465E+03  0.00000000000E+00 0.  1.
<mgrwt>
<rscale>  0 0.15407277E+04</rscale>
<asrwt>0</asrwt>
<pdfrwt beam="1">  1        1 0.22890636E+00 0.15407277E+04</pdfrwt>
<pdfrwt beam="2">  1       -1 0.61363088E-01 0.15407277E+04</pdfrwt>
<totfact> 0.17320004E+01</totfact>
</mgrwt>
</event>
<event>
12    1  0.4820219E-008  0.1406655E+04  0.7818608E-02  0.8949016E-01
          2   -1    0    0  501    0  0.00000000000E+00  0.00000000000E+00  0.79253322589E+03  0.79253322589E+03  0.00000000000E+00 0. -1.
         -2   -1    0    0    0  501 -0.00000000000E+00 -0.00000000000E+00 -0.62416239219E+03  0.62416239219E+03  0.00000000000E+00 0.  1.
         23    2    1    2    0    0 -0.33556984093E+03 -0.98229116613E+02  0.21650830930E+03  0.42061102878E+03  0.88214012738E+02 0.  0.
        254    2    1    2    0    0  0.33556984093E+03  0.98229116613E+02 -0.48137475595E+02  0.99608458930E+03  0.93145650194E+03 0.  0.
         23    2    4    4    0    0  0.10108304466E+03  0.36857632827E+03 -0.34327909462E+03  0.52322959100E+03  0.99309498090E+02 0.  0.
         23    2    4    4    0    0  0.23448679627E+03 -0.27034721166E+03  0.29514161902E+03  0.47285499831E+03  0.91714784344E+02 0.  0.
         13    1    3    3    0    0 -0.14548803119E+02  0.36268153589E+01 -0.68500655859E+01  0.16484685632E+02  0.00000000000E+00 0.  1.
        -13    1    3    3    0    0 -0.32102103781E+03 -0.10185593197E+03  0.22335837488E+03  0.40412634314E+03  0.00000000000E+00 0. -1.
          4    1    5    5  502    0  0.32823484748E+02  0.21581896314E+02 -0.51388648353E+02  0.64683479955E+02  0.00000000000E+00 0. -1.
          1    1    6    6  503    0  0.29295736483E+02  0.90146064859E+00  0.24379864496E+02  0.38123884904E+02  0.00000000000E+00 0. -1.
         -4    1    5    5    0  502  0.68259559909E+02  0.34699443196E+03 -0.29189044627E+03  0.45854611104E+03  0.00000000000E+00 0.  1.
         -1    1    6    6    0  503  0.20519105979E+03 -0.27124867231E+03  0.27076175453E+03  0.43473111340E+03  0.00000000000E+00 0.  1.
<mgrwt>
<rscale>  0 0.14066548E+04</rscale>
<asrwt>0</asrwt>
<pdfrwt beam="1">  1        2 0.12192819E+00 0.14066548E+04</pdfrwt>
<pdfrwt beam="2">  1       -2 0.96024983E-01 0.14066548E+04</pdfrwt>
<totfact> 0.30847779E+01</totfact>
</mgrwt>
</event>
<event>
12    1  0.4820219E-008  0.1855842E+04  0.7818608E-02  0.8677155E-01
          2   -1    0    0  501    0  0.00000000000E+00  0.00000000000E+00  0.20128504328E+04  0.20128504328E+04  0.00000000000E+00 0. -1.
         -2   -1    0    0    0  501 -0.00000000000E+00 -0.00000000000E+00 -0.42776996146E+03  0.42776996146E+03  0.00000000000E+00 0.  1.
         23    2    1    2    0    0 -0.22549988158E+02  0.16414375771E+03 -0.29323068849E+03  0.34880726968E+03  0.90722651803E+02 0.  0.
        254    2    1    2    0    0  0.22549988158E+02 -0.16414375771E+03  0.18783111598E+04  0.20918131246E+04  0.90563660474E+03 0.  0.
         23    2    4    4    0    0  0.12796353903E+03 -0.37671551102E+03  0.33595938140E+03  0.52840770165E+03  0.89759398672E+02 0.  0.
         23    2    4    4    0    0 -0.10541355087E+03  0.21257175331E+03  0.15423517784E+04  0.15634054229E+04  0.95334888588E+02 0.  0.
         13    1    3    3    0    0 -0.22787600025E+02  0.17552827060E+03 -0.28096780352E+03  0.33207281597E+03  0.00000000000E+00 0.  1.
        -13    1    3    3    0    0  0.23761186681E+00 -0.11384512890E+02 -0.12262884970E+02  0.16734453709E+02  0.00000000000E+00 0. -1.
          4    1    5    5  502    0  0.94940440100E+02 -0.31476798316E+03  0.22975101672E+03  0.40109612323E+03  0.00000000000E+00 0. -1.
          3    1    6    6  503    0 -0.23411340906E+02  0.30510853196E+02  0.53945773109E+03  0.54082681764E+03  0.00000000000E+00 0. -1.
         -4    1    5    5    0  502  0.33023098932E+02 -0.61947527859E+02  0.10620836469E+03  0.12731157842E+03  0.00000000000E+00 0.  1.
         -3    1    6    6    0  503 -0.82002209969E+02  0.18206090012E+03  0.10028940473E+04  0.10225786053E+04  0.00000000000E+00 0.  1.
<mgrwt>
<rscale>  0 0.18558415E+04</rscale>
<asrwt>0</asrwt>
<pdfrwt beam="1">  1        2 0.30966929E+00 0.18558415E+04</pdfrwt>
<pdfrwt beam="2">  1       -2 0.65810765E-01 0.18558415E+04</pdfrwt>
<totfact> 0.13129041E+01</totfact>
</mgrwt>
</event>
<event>
12    1  0.4820219E-008  0.1993588E+04  0.7818608E-02  0.8609624E-01
         -1   -1    0    0    0  501 -0.00000000000E+00  0.00000000000E+00  0.86694863534E+03  0.86694863534E+03  0.00000000000E+00 0.  1.
          1   -1    0    0  501    0  0.00000000000E+00 -0.00000000000E+00 -0.11460866619E+04  0.11460866619E+04  0.00000000000E+00 0. -1.
         23    2    1    2    0    0 -0.40448091628E+03 -0.66394384867E+03 -0.72193721907E+02  0.78596071864E+03  0.89978174788E+02 0.  0.
        254    2    1    2    0    0  0.40448091628E+03  0.66394384867E+03 -0.20694430462E+03  0.12270745786E+04  0.92653107357E+03 0.  0.
         23    2    4    4    0    0  0.55698059594E+03  0.25556199538E+03  0.17111419636E+03  0.64282443532E+03  0.91672616986E+02 0.  0.
         23    2    4    4    0    0 -0.15249967966E+03  0.40838185329E+03 -0.37805850098E+03  0.58425014324E+03  0.91586621939E+02 0.  0.
         11    1    3    3    0    0 -0.36593924821E+03 -0.55721863442E+03 -0.39190790240E+02  0.66778743471E+03  0.00000000000E+00 0. -1.
        -11    1    3    3    0    0 -0.38541668072E+02 -0.10672521426E+03 -0.33002931666E+02  0.11817328393E+03  0.00000000000E+00 0.  1.
          4    1    5    5  502    0  0.49286473362E+03  0.20525280450E+03  0.17324064330E+03  0.56129910021E+03  0.00000000000E+00 0. -1.
          1    1    6    6  503    0 -0.14298678045E+03  0.39212124103E+03 -0.32823058854E+03  0.53097985489E+03  0.00000000000E+00 0. -1.
         -4    1    5    5    0  502  0.64115862315E+02  0.50309190885E+02 -0.21264469321E+01  0.81525335108E+02  0.00000000000E+00 0.  1.
         -1    1    6    6    0  503 -0.95128992121E+01  0.16260612266E+02 -0.49827912439E+02  0.53270288348E+02  0.00000000000E+00 0.  1.
<mgrwt>
<rscale>  0 0.19935880E+04</rscale>
<asrwt>0</asrwt>
<pdfrwt beam="1">  1        1 0.17632103E+00 0.19935880E+04</pdfrwt>
<pdfrwt beam="2">  1       -1 0.13337671E+00 0.19935880E+04</pdfrwt>
<totfact> 0.51648793E+00</totfact>
</mgrwt>
</event>
<event>
12    1  0.4820219E-008  0.1310981E+04  0.7818608E-02  0.9020902E-01
          2   -1    0    0  501    0  0.00000000000E+00  0.00000000000E+00  0.26762294603E+04  0.26762294603E+04  0.00000000000E+00 0.  1.
         -2   -1    0    0    0  501 -0.00000000000E+00 -0.00000000000E+00 -0.16054976491E+03  0.16054976491E+03  0.00000000000E+00 0. -1.
         23    2    1    2    0    0  0.10156496053E+03  0.30698105825E+03  0.51956908095E+03  0.61874598086E+03  0.91333168244E+02 0.  0.
        254    2    1    2    0    0 -0.10156496053E+03 -0.30698105825E+03  0.19961106145E+04  0.22180332444E+04  0.91140609865E+03 0.  0.
         23    2    4    4    0    0 -0.19784699944E+03  0.18649362323E+03  0.19767892899E+03  0.34845308022E+03  0.91756653451E+02 0.  0.
         23    2    4    4    0    0  0.96282038909E+02 -0.49347468148E+03  0.17984316855E+04  0.18695801642E+04  0.90476354012E+02 0.  0.
         11    1    3    3    0    0  0.68960853719E+02  0.28944360656E+03  0.44234413536E+03  0.53310555691E+03  0.00000000000E+00 0. -1.
        -11    1    3    3    0    0  0.32604106810E+02  0.17537451689E+02  0.77224945590E+02  0.85640423948E+02  0.00000000000E+00 0.  1.
          2    1    5    5  502    0 -0.34576853504E+02  0.66020176014E+02  0.16282427712E+02  0.76284597995E+02  0.00000000000E+00 0. -1.
          4    1    6    6  503    0  0.41964473074E+02 -0.22240828063E+03  0.97706240894E+03  0.10029344003E+04  0.00000000000E+00 0. -1.
         -2    1    5    5    0  502 -0.16327014593E+03  0.12047344722E+03  0.18139650128E+03  0.27216848222E+03  0.00000000000E+00 0.  1.
         -4    1    6    6    0  503  0.54317565835E+02 -0.27106640085E+03  0.82136927652E+03  0.86664576388E+03  0.00000000000E+00 0.  1.
<mgrwt>
<rscale>  0 0.13109813E+04</rscale>
<asrwt>0</asrwt>
<pdfrwt beam="1">  1        2 0.41172758E+00 0.13109813E+04</pdfrwt>
<pdfrwt beam="2">  1       -2 0.24699966E-01 0.13109813E+04</pdfrwt>
<totfact> 0.39663876E+01</totfact>
</mgrwt>
</event>
<event>
12    1  0.4820219E-008  0.1374135E+04  0.7818608E-02  0.8972757E-01
          2   -1    0    0  501    0  0.00000000000E+00  0.00000000000E+00  0.49065299617E+03  0.49065299617E+03  0.00000000000E+00 0. -1.
         -2   -1    0    0    0  501 -0.00000000000E+00 -0.00000000000E+00 -0.96210935428E+03  0.96210935428E+03  0.00000000000E+00 0.  1.
         23    2    1    2    0    0  0.30789896593E+03 -0.12338132227E+03 -0.34149246323E+03  0.48458306227E+03  0.90437370001E+02 0.  0.
        254    2    1    2    0    0 -0.30789896593E+03  0.12338132227E+03 -0.12996389488E+03  0.96817928817E+03  0.90025318448E+03 0.  0.
         23    2    4    4    0    0 -0.58623469704E+03  0.24472306038E+03 -0.92777154187E+02  0.64901407469E+03  0.95137650332E+02 0.  0.
         23    2    4    4    0    0  0.27833573111E+03 -0.12134173811E+03 -0.37186740694E+02  0.31916521348E+03  0.91043853131E+02 0.  0.
         13    1    3    3    0    0 -0.62886197503E+01 -0.40328150087E+00 -0.80002363133E+01  0.10183965603E+02  0.00000000000E+00 0. -1.
        -13    1    3    3    0    0  0.31418758568E+03 -0.12297804077E+03 -0.33349222691E+03  0.47439909667E+03  0.00000000000E+00 0.  1.
          2    1    5    5  502    0 -0.46039234535E+03  0.19101049519E+03 -0.11192316627E+03  0.51085508325E+03  0.00000000000E+00 0. -1.
          3    1    6    6  503    0  0.27744120080E+03 -0.98914834537E+02 -0.34540163100E+02  0.29656497983E+03  0.00000000000E+00 0. -1.
         -2    1    5    5    0  502 -0.12584235169E+03  0.53712565183E+02  0.19146012084E+02  0.13815899144E+03  0.00000000000E+00 0.  1.
         -3    1    6    6    0  503  0.89453030937E+00 -0.22426903569E+02 -0.26465775943E+01  0.22600233652E+02  0.00000000000E+00 0.  1.
<mgrwt>
<rscale>  0 0.13741351E+04</rscale>
<asrwt>0</asrwt>
<pdfrwt beam="1">  1        2 0.75485077E-01 0.13741351E+04</pdfrwt>
<pdfrwt beam="2">  1       -2 0.14801682E+00 0.13741351E+04</pdfrwt>
<totfact> 0.19033538E+01</totfact>
</mgrwt>
</event>
<event>
12    1  0.4820219E-008  0.1407644E+04  0.7818608E-02  0.8948304E-01
         -1   -1    0    0    0  501 -0.00000000000E+00  0.00000000000E+00  0.56160764487E+03  0.56160764487E+03  0.00000000000E+00 0.  1.
          1   -1    0    0  501    0  0.00000000000E+00 -0.00000000000E+00 -0.88204887303E+03  0.88204887303E+03  0.00000000000E+00 0. -1.
         23    2    1    2    0    0  0.28560892422E+03  0.56983101300E+02  0.16858645404E+03  0.34879617059E+03  0.91748813076E+02 0.  0.
        254    2    1    2    0    0 -0.28560892422E+03 -0.56983101300E+02 -0.48902768220E+03  0.10948603473E+04  0.93528154837E+03 0.  0.
         23    2    4    4    0    0 -0.53939455490E+03 -0.27251350454E+03 -0.42203505486E+03  0.74289544958E+03  0.92574107939E+02 0.  0.
         23    2    4    4    0    0  0.25378563068E+03  0.21553040324E+03 -0.66992627340E+02  0.35196489773E+03  0.92362200375E+02 0.  0.
         11    1    3    3    0    0  0.15494873589E+02 -0.12154530003E+02 -0.50470905730E+01  0.20329703156E+02  0.00000000000E+00 0. -1.
        -11    1    3    3    0    0  0.27011405064E+03  0.69137631304E+02  0.17363354461E+03  0.32846646743E+03  0.00000000000E+00 0.  1.
          4    1    5    5  502    0 -0.37281739671E+03 -0.22898922151E+03 -0.32714683540E+03  0.54630936910E+03  0.00000000000E+00 0. -1.
          3    1    6    6  503    0  0.80661726638E+02  0.12859969347E+03 -0.28626439974E+02  0.15447869876E+03  0.00000000000E+00 0. -1.
         -4    1    5    5    0  502 -0.16657715819E+03 -0.43524283026E+02 -0.94888219460E+02  0.19658608048E+03  0.00000000000E+00 0.  1.
         -3    1    6    6    0  503  0.17312390404E+03  0.86930709765E+02 -0.38366187367E+02  0.19748619897E+03  0.00000000000E+00 0.  1.
<mgrwt>
<rscale>  0 0.14076440E+04</rscale>
<asrwt>0</asrwt>
<pdfrwt beam="1">  1        1 0.13569983E+00 0.14076440E+04</pdfrwt>
<pdfrwt beam="2">  1       -1 0.86401176E-01 0.14076440E+04</pdfrwt>
<totfact> 0.24249491E+01</totfact>
</mgrwt>
</event>
<event>
12    1  0.4820219E-008  0.2577770E+04  0.7818608E-02  0.8375792E-01
         -2   -1    0    0    0  501 -0.00000000000E+00  0.00000000000E+00  0.12498880046E+04  0.12498880046E+04  0.00000000000E+00 0.  1.
          2   -1    0    0  501    0  0.00000000000E+00 -0.00000000000E+00 -0.13290986375E+04  0.13290986375E+04  0.00000000000E+00 0. -1.
         23    2    1    2    0    0  0.72643464034E+03 -0.33884907969E+03  0.75066117395E+03  0.11021673156E+04  0.93566062231E+02 0.  0.
        254    2    1    2    0    0 -0.72643464034E+03  0.33884907969E+03 -0.82987180684E+03  0.14768193264E+04  0.92183627705E+03 0.  0.
         23    2    4    4    0    0  0.19192966096E+03 -0.26439085297E+02 -0.24564981590E+03  0.32536673414E+03  0.89351327051E+02 0.  0.
         23    2    4    4    0    0 -0.91836430131E+03  0.36528816498E+03 -0.58422199094E+03  0.11514525923E+04  0.87745679335E+02 0.  0.
         11    1    3    3    0    0  0.44003624845E+02 -0.87300458734E+01  0.71178067129E+02  0.84135901616E+02  0.00000000000E+00 0. -1.
        -11    1    3    3    0    0  0.68243101550E+03 -0.33011903381E+03  0.67948310682E+03  0.10180314140E+04  0.00000000000E+00 0.  1.
          4    1    5    5  502    0  0.16400283643E+03 -0.33621284785E+02 -0.14767973238E+03  0.22324118012E+03  0.00000000000E+00 0.  1.
          3    1    6    6  503    0 -0.29471035094E+02  0.60827062482E+01 -0.36470513386E+02  0.47282550390E+02  0.00000000000E+00 0. -1.
         -4    1    5    5    0  502  0.27926824531E+02  0.71821994874E+01 -0.97970083526E+02  0.10212555402E+03  0.00000000000E+00 0. -1.
         -3    1    6    6    0  503 -0.88889326621E+03  0.35920545873E+03 -0.54775147755E+03  0.11041700419E+04  0.00000000000E+00 0.  1.
<mgrwt>
<rscale>  0 0.25777699E+04</rscale>
<asrwt>0</asrwt>
<pdfrwt beam="1">  1        2 0.20447671E+00 0.25777699E+04</pdfrwt>
<pdfrwt beam="2">  1       -2 0.19229046E+00 0.25777699E+04</pdfrwt>
<totfact> 0.21081899E+00</totfact>
</mgrwt>
</event>
<event>
12    1  0.4820219E-008  0.1304384E+04  0.7818608E-02  0.9026096E-01
          1   -1    0    0  501    0  0.00000000000E+00  0.00000000000E+00  0.33656197908E+03  0.33656197908E+03  0.00000000000E+00 0. -1.
         -1   -1    0    0    0  501 -0.00000000000E+00 -0.00000000000E+00 -0.12638218942E+04  0.12638218942E+04  0.00000000000E+00 0.  1.
         23    2    1    2    0    0 -0.21892564598E+03 -0.22740265395E+03 -0.19870292056E+03  0.38409930760E+03  0.91700719589E+02 0.  0.
        254    2    1    2    0    0  0.21892564598E+03  0.22740265395E+03 -0.72855699460E+03  0.12162845657E+04  0.92136444738E+03 0.  0.
         23    2    4    4    0    0 -0.11984381457E+03  0.41665287511E+03 -0.68061072078E+03  0.81225856623E+03  0.92578976807E+02 0.  0.
         23    2    4    4    0    0  0.33876946055E+03 -0.18925022116E+03 -0.47946273821E+02  0.40402599948E+03  0.10177312747E+03 0.  0.
         13    1    3    3    0    0 -0.40167868714E+02 -0.30069728609E+02 -0.75654074269E+02  0.90780973827E+02  0.00000000000E+00 0. -1.
        -13    1    3    3    0    0 -0.17875777726E+03 -0.19733292534E+03 -0.12304884629E+03  0.29331833378E+03  0.00000000000E+00 0.  1.
          4    1    5    5  502    0 -0.29683189901E+02  0.20872937134E+03 -0.26255672035E+03  0.33672700162E+03  0.00000000000E+00 0. -1.
          1    1    6    6  503    0  0.11067023478E+03 -0.11445596874E+03 -0.38457825210E+02  0.16378972485E+03  0.00000000000E+00 0. -1.
         -4    1    5    5    0  502 -0.90160624667E+02  0.20792350377E+03 -0.41805400044E+03  0.47553156461E+03  0.00000000000E+00 0.  1.
         -1    1    6    6    0  503  0.22809922577E+03 -0.74794252413E+02 -0.94884486108E+01  0.24023627463E+03  0.00000000000E+00 0.  1.
<mgrwt>
<rscale>  0 0.13043840E+04</rscale>
<asrwt>0</asrwt>
<pdfrwt beam="1">  1        1 0.51778765E-01 0.13043840E+04</pdfrwt>
<pdfrwt beam="2">  1       -1 0.19443414E+00 0.13043840E+04</pdfrwt>
<totfact> 0.12184170E+01</totfact>
</mgrwt>
</event>
<event>
12    1  0.4820219E-008  0.2062647E+04  0.7818608E-02  0.8577879E-01
         -2   -1    0    0    0  501 -0.00000000000E+00  0.00000000000E+00  0.49781055391E+03  0.49781055391E+03  0.00000000000E+00 0.  1.
          2   -1    0    0  501    0  0.00000000000E+00 -0.00000000000E+00 -0.21366116487E+04  0.21366116487E+04  0.00000000000E+00 0. -1.
         23    2    1    2    0    0 -0.37461718973E+03 -0.39500525014E+03 -0.14694095628E+04  0.15696230448E+04  0.90470178085E+02 0.  0.
        254    2    1    2    0    0  0.37461718973E+03  0.39500525014E+03 -0.16939153207E+03  0.10647991579E+04  0.89929781996E+03 0.  0.
         23    2    4    4    0    0  0.48708730114E+03  0.55163360972E+03 -0.31567087269E+03  0.80569388968E+03  0.89111535199E+02 0.  0.
         23    2    4    4    0    0 -0.11247011141E+03 -0.15662835958E+03  0.14627934061E+03  0.25910526819E+03  0.92498246075E+02 0.  0.
         13    1    3    3    0    0 -0.62941613717E+02 -0.44031226332E+02 -0.13862261825E+03  0.15848225743E+03  0.00000000000E+00 0.  1.
        -13    1    3    3    0    0 -0.31167557601E+03 -0.35097402381E+03 -0.13307869445E+04  0.14111407873E+04  0.00000000000E+00 0. -1.
          2    1    5    5  502    0  0.41629097542E+03  0.42662759244E+03 -0.27451975890E+03  0.65625481093E+03  0.00000000000E+00 0. -1.
          1    1    6    6  503    0 -0.81365339517E+02 -0.99337991879E+02  0.14529986431E+03  0.19390824034E+03  0.00000000000E+00 0. -1.
         -2    1    5    5    0  502  0.70796325719E+02  0.12500601728E+03 -0.41151113791E+02  0.14943907875E+03  0.00000000000E+00 0.  1.
         -1    1    6    6    0  503 -0.31104771894E+02 -0.57290367704E+02  0.97947630652E+00  0.65197027847E+02  0.00000000000E+00 0.  1.
<mgrwt>
<rscale>  0 0.20626467E+04</rscale>
<asrwt>0</asrwt>
<pdfrwt beam="1">  1        2 0.32870949E+00 0.20626467E+04</pdfrwt>
<pdfrwt beam="2">  1       -2 0.76586238E-01 0.20626467E+04</pdfrwt>
<totfact> 0.78962160E+00</totfact>
</mgrwt>
</event>
<event>
12    1  0.4820219E-008  0.1831537E+04  0.7818608E-02  0.8689706E-01
          2   -1    0    0  501    0  0.00000000000E+00  0.00000000000E+00  0.18068290707E+04  0.18068290707E+04  0.00000000000E+00 0. -1.
         -2   -1    0    0    0  501 -0.00000000000E+00 -0.00000000000E+00 -0.46414558369E+03  0.46414558369E+03  0.00000000000E+00 0.  1.
         23    2    1    2    0    0 -0.41173822841E+03 -0.17524682495E+03  0.11653945942E+04  0.12519079232E+04  0.94281862006E+02 0.  0.
        254    2    1    2    0    0  0.41173822841E+03  0.17524682495E+03  0.17728889274E+03  0.10190667312E+04  0.89823484271E+03 0.  0.
         23    2    4    4    0    0 -0.19216196814E+03  0.30854726407E+03  0.11748631990E+03  0.39217401084E+03  0.88711798834E+02 0.  0.
         23    2    4    4    0    0  0.60390019655E+03 -0.13330043912E+03  0.59802572836E+02  0.62689272031E+03  0.83388731800E+02 0.  0.
         11    1    3    3    0    0 -0.36760725305E+03 -0.17983074402E+03  0.10917616239E+04  0.11659406642E+04  0.00000000000E+00 0. -1.
        -11    1    3    3    0    0 -0.44130975364E+02  0.45839190654E+01  0.73632970279E+02  0.85967258958E+02  0.00000000000E+00 0.  1.
          2    1    5    5  502    0 -0.82118111499E+02  0.20928048917E+03  0.85747888879E+02  0.24061256790E+03  0.00000000000E+00 0. -1.
          1    1    6    6  503    0  0.28469246861E+03 -0.73748858161E+02 -0.11997138198E+02  0.29433420985E+03  0.00000000000E+00 0. -1.
         -2    1    5    5    0  502 -0.11004385664E+03  0.99266774896E+02  0.31738431023E+02  0.15156144294E+03  0.00000000000E+00 0.  1.
         -1    1    6    6    0  503  0.31920772794E+03 -0.59551580958E+02  0.71799711034E+02  0.33255851046E+03  0.00000000000E+00 0.  1.
<mgrwt>
<rscale>  0 0.18315368E+04</rscale>
<asrwt>0</asrwt>
<pdfrwt beam="1">  1        2 0.27797370E+00 0.18315368E+04</pdfrwt>
<pdfrwt beam="2">  1       -2 0.71407014E-01 0.18315368E+04</pdfrwt>
<totfact> 0.14333201E+01</totfact>
</mgrwt>
</event>
<event>
12    1  0.4820219E-008  0.2171805E+04  0.7818608E-02  0.8530256E-01
          1   -1    0    0  501    0  0.00000000000E+00  0.00000000000E+00  0.26324720751E+04  0.26324720751E+04  0.00000000000E+00 0. -1.
         -1   -1    0    0    0  501 -0.00000000000E+00 -0.00000000000E+00 -0.44793812611E+03  0.44793812611E+03  0.00000000000E+00 0.  1.
         23    2    1    2    0    0 -0.47004158798E+03  0.28921145884E+03  0.19123223809E+04  0.19931297194E+04  0.10491342711E+03 0.  0.
        254    2    1    2    0    0  0.47004158798E+03 -0.28921145884E+03  0.27221156800E+03  0.10872804818E+04  0.89638013476E+03 0.  0.
         23    2    4    4    0    0  0.63458826692E+03  0.70469035840E+02  0.13774329244E+03  0.65972407045E+03  0.92706423679E+02 0.  0.
         23    2    4    4    0    0 -0.16454667894E+03 -0.35968049468E+03  0.13446827556E+03  0.42755641135E+03  0.90978568626E+02 0.  0.
         13    1    3    3    0    0 -0.85407824641E+02  0.51924388522E+02  0.22256777304E+03  0.24398166372E+03  0.00000000000E+00 0.  1.
        -13    1    3    3    0    0 -0.38463376334E+03  0.23728707032E+03  0.16897546079E+04  0.17491480556E+04  0.00000000000E+00 0. -1.
          4    1    5    5  502    0  0.29297187573E+03  0.24583507049E+02  0.16960523262E+02  0.29449028530E+03  0.00000000000E+00 0. -1.
          3    1    6    6  503    0 -0.72734447381E+02 -0.12869336203E+03  0.95410319113E+02  0.17594149670E+03  0.00000000000E+00 0. -1.
         -4    1    5    5    0  502  0.34161639119E+03  0.45885528791E+02  0.12078276918E+03  0.36523378515E+03  0.00000000000E+00 0.  1.
         -3    1    6    6    0  503 -0.91812231560E+02 -0.23098713265E+03  0.39057956448E+02  0.25161491465E+03  0.00000000000E+00 0.  1.
<mgrwt>
<rscale>  0 0.21718053E+04</rscale>
<asrwt>0</asrwt>
<pdfrwt beam="1">  1        1 0.40499569E+00 0.21718053E+04</pdfrwt>
<pdfrwt beam="2">  1       -1 0.68913560E-01 0.21718053E+04</pdfrwt>
<totfact> 0.21326825E+00</totfact>
</mgrwt>
</event>
<event>
12    1  0.4820219E-008  0.1608413E+04  0.7818608E-02  0.8815396E-01
         -2   -1    0    0    0  501 -0.00000000000E+00  0.00000000000E+00  0.30216722782E+03  0.30216722782E+03  0.00000000000E+00 0.  1.
          2   -1    0    0  501    0  0.00000000000E+00 -0.00000000000E+00 -0.21403649375E+04  0.21403649375E+04  0.00000000000E+00 0. -1.
         23    2    1    2    0    0 -0.27257625228E+03 -0.31351905014E+03 -0.95047891456E+02  0.43901154946E+03  0.10538040984E+03 0.  0.
        254    2    1    2    0    0  0.27257625228E+03  0.31351905014E+03 -0.17431498182E+04  0.20035206159E+04  0.89606448500E+03 0.  0.
         23    2    4    4    0    0  0.52155982201E+03  0.44470981689E+03 -0.12050067520E+04  0.13893863774E+04  0.92529801209E+02 0.  0.
         23    2    4    4    0    0 -0.24898356973E+03 -0.13119076675E+03 -0.53814306621E+03  0.61413423847E+03  0.91427938093E+02 0.  0.
         11    1    3    3    0    0 -0.22065087247E+03 -0.29923203650E+03 -0.65276391808E+02  0.37747533233E+03  0.00000000000E+00 0.  1.
        -11    1    3    3    0    0 -0.51925379809E+02 -0.14287013642E+02 -0.29771499648E+02  0.61536217128E+02  0.00000000000E+00 0. -1.
          4    1    5    5  502    0  0.28198204944E+03  0.24209163902E+03 -0.55989116556E+03  0.67201216891E+03  0.00000000000E+00 0. -1.
          1    1    6    6  503    0 -0.10325304520E+03 -0.64697389451E+02 -0.32800219052E+03  0.34990338742E+03  0.00000000000E+00 0. -1.
         -4    1    5    5    0  502  0.23957777258E+03  0.20261817788E+03 -0.64511558646E+03  0.71737420849E+03  0.00000000000E+00 0.  1.
         -1    1    6    6    0  503 -0.14573052453E+03 -0.66493377301E+02 -0.21014087570E+03  0.26423085104E+03  0.00000000000E+00 0.  1.
<mgrwt>
<rscale>  0 0.16084131E+04</rscale>
<asrwt>0</asrwt>
<pdfrwt beam="1">  1        2 0.32928692E+00 0.16084131E+04</pdfrwt>
<pdfrwt beam="2">  1       -2 0.46487265E-01 0.16084131E+04</pdfrwt>
<totfact> 0.23463581E+01</totfact>
</mgrwt>
</event>
<event>
12    1  0.4820219E-008  0.1224416E+04  0.7818608E-02  0.9091749E-01
         -2   -1    0    0    0  501 -0.00000000000E+00  0.00000000000E+00  0.56790937749E+03  0.56790937749E+03  0.00000000000E+00 0.  1.
          2   -1    0    0  501    0  0.00000000000E+00 -0.00000000000E+00 -0.65996228475E+03  0.65996228475E+03  0.00000000000E+00 0. -1.
         23    2    1    2    0    0  0.11469607220E+03 -0.24123092128E+03  0.73327269979E+01  0.28261202589E+03  0.92023051105E+02 0.  0.
        254    2    1    2    0    0 -0.11469607220E+03  0.24123092128E+03 -0.99385634263E+02  0.94525963635E+03  0.90127172898E+03 0.  0.
         23    2    4    4    0    0 -0.42612018534E+03 -0.22971481712E+02  0.14560800603E+03  0.46023104002E+03  0.92221567157E+02 0.  0.
         23    2    4    4    0    0  0.31142411314E+03  0.26420240299E+03 -0.24499364030E+03  0.48502859633E+03  0.91885621759E+02 0.  0.
         11    1    3    3    0    0  0.74838297679E+02 -0.10993012299E+03  0.44871746952E+02  0.14035268581E+03  0.00000000000E+00 0.  1.
        -11    1    3    3    0    0  0.39857774523E+02 -0.13130079829E+03 -0.37539019954E+02  0.14225934008E+03  0.00000000000E+00 0. -1.
          1    1    5    5  502    0 -0.29480176109E+03 -0.23620875694E+02  0.55343157351E+02  0.30088019073E+03  0.00000000000E+00 0. -1.
          3    1    6    6  503    0  0.21293137626E+03  0.21783492749E+03 -0.14563177913E+03  0.33763951445E+03  0.00000000000E+00 0. -1.
         -1    1    5    5    0  502 -0.13131842425E+03  0.64939398176E+00  0.90264848682E+02  0.15935084928E+03  0.00000000000E+00 0.  1.
         -3    1    6    6    0  503  0.98492736882E+02  0.46367475504E+02 -0.99361861168E+02  0.14738908188E+03  0.00000000000E+00 0.  1.
<mgrwt>
<rscale>  0 0.12244162E+04</rscale>
<asrwt>0</asrwt>
<pdfrwt beam="1">  1        2 0.10153266E+00 0.12244162E+04</pdfrwt>
<pdfrwt beam="2">  1       -2 0.87370674E-01 0.12244162E+04</pdfrwt>
<totfact> 0.49202600E+01</totfact>
</mgrwt>
</event>
<event>
12    1  0.4820219E-008  0.1506678E+04  0.7818608E-02  0.8880024E-01
          1   -1    0    0  501    0  0.00000000000E+00  0.00000000000E+00  0.35871323554E+03  0.35871323554E+03  0.00000000000E+00 0. -1.
         -1   -1    0    0    0  501 -0.00000000000E+00 -0.00000000000E+00 -0.15820992770E+04  0.15820992770E+04  0.00000000000E+00 0.  1.
         23    2    1    2    0    0  0.21680726412E+03  0.70738121181E+02  0.14642310627E+03  0.28546251912E+03  0.89665222940E+02 0.  0.
        254    2    1    2    0    0 -0.21680726412E+03 -0.70738121181E+02 -0.13698091478E+04  0.16553499935E+04  0.90099790676E+03 0.  0.
         23    2    4    4    0    0 -0.53168031205E+03 -0.19460721465E+03 -0.91040152766E+03  0.10759649238E+04  0.91179237881E+02 0.  0.
         23    2    4    4    0    0  0.31487304793E+03  0.12386909347E+03 -0.45940762010E+03  0.57938506968E+03  0.10071300277E+03 0.  0.
         13    1    3    3    0    0  0.96684930157E+01  0.94844673047E+01 -0.11594116222E+02  0.17828584022E+02  0.00000000000E+00 0.  1.
        -13    1    3    3    0    0  0.20713877111E+03  0.61253653877E+02  0.15801722250E+03  0.26763393509E+03  0.00000000000E+00 0. -1.
          4    1    5    5  502    0 -0.32705504640E+03 -0.11440669462E+03 -0.47161593254E+03  0.58521404885E+03  0.00000000000E+00 0. -1.
          1    1    6    6  503    0  0.56287359078E+02  0.32990889155E+02 -0.16352026657E+03  0.17605551152E+03  0.00000000000E+00 0. -1.
         -4    1    5    5    0  502 -0.20462526565E+03 -0.80200520037E+02 -0.43878559512E+03  0.49075087493E+03  0.00000000000E+00 0.  1.
         -1    1    6    6    0  503  0.25858568885E+03  0.90878204317E+02 -0.29588735354E+03  0.40332955816E+03  0.00000000000E+00 0.  1.
<mgrwt>
<rscale>  0 0.15066784E+04</rscale>
<asrwt>0</asrwt>
<pdfrwt beam="1">  1        1 0.55186652E-01 0.15066784E+04</pdfrwt>
<pdfrwt beam="2">  1       -1 0.24339989E+00 0.15066784E+04</pdfrwt>
<totfact> 0.51645714E+00</totfact>
</mgrwt>
</event>
<event>
12    1  0.4820219E-008  0.1957150E+04  0.7818608E-02  0.8626921E-01
          2   -1    0    0  501    0  0.00000000000E+00  0.00000000000E+00  0.12010198584E+04  0.12010198584E+04  0.00000000000E+00 0. -1.
         -2   -1    0    0    0  501 -0.00000000000E+00 -0.00000000000E+00 -0.79732980440E+03  0.79732980440E+03  0.00000000000E+00 0.  1.
         23    2    1    2    0    0 -0.42159622679E+03  0.37174198299E+02 -0.49225699037E+03  0.65545801741E+03  0.90459762065E+02 0.  0.
        254    2    1    2    0    0  0.42159622679E+03 -0.37174198299E+02  0.89594704434E+03  0.13428916454E+04  0.90637275193E+03 0.  0.
         23    2    4    4    0    0  0.27168712806E+03 -0.33179697646E+03  0.89851379666E+03  0.99994748386E+03  0.93084899735E+02 0.  0.
         23    2    4    4    0    0  0.14990909873E+03  0.29462277816E+03 -0.25667523132E+01  0.34294416149E+03  0.91262206799E+02 0.  0.
         11    1    3    3    0    0 -0.91340673967E+01  0.12582996693E+02 -0.44501110351E+01  0.16173017072E+02  0.00000000000E+00 0. -1.
        -11    1    3    3    0    0 -0.41246215939E+03  0.24591201606E+02 -0.48780687934E+03  0.63928500034E+03  0.00000000000E+00 0.  1.
          2    1    5    5  502    0  0.13324563785E+03 -0.10090079620E+03  0.39683022119E+03  0.43059214477E+03  0.00000000000E+00 0. -1.
          3    1    6    6  503    0  0.36542939318E+02  0.13126548664E+02  0.63589363790E+01  0.39346267494E+02  0.00000000000E+00 0. -1.
         -2    1    5    5    0  502  0.13844149021E+03 -0.23089618026E+03  0.50168357546E+03  0.56935533910E+03  0.00000000000E+00 0.  1.
         -3    1    6    6    0  503  0.11336615941E+03  0.28149622950E+03 -0.89256886922E+01  0.30359789400E+03  0.00000000000E+00 0.  1.
<mgrwt>
<rscale>  0 0.19571499E+04</rscale>
<asrwt>0</asrwt>
<pdfrwt beam="1">  1        2 0.18477229E+00 0.19571499E+04</pdfrwt>
<pdfrwt beam="2">  1       -2 0.12266612E+00 0.19571499E+04</pdfrwt>
<totfact> 0.88652463E+00</totfact>
</mgrwt>
</event>
<event>
12    1  0.4820219E-008  0.1826741E+04  0.7818608E-02  0.8692207E-01
          2   -1    0    0  501    0  0.00000000000E+00  0.00000000000E+00  0.28982287902E+04  0.28982287902E+04  0.00000000000E+00 0. -1.
         -2   -1    0    0    0  501 -0.00000000000E+00 -0.00000000000E+00 -0.28784670263E+03  0.28784670263E+03  0.00000000000E+00 0.  1.
         23    2    1    2    0    0  0.50607253105E+03  0.98751029579E+02  0.17733503090E+04  0.18500718857E+04  0.11015212821E+03 0.  0.
        254    2    1    2    0    0 -0.50607253105E+03 -0.98751029579E+02  0.83703177866E+03  0.13360036072E+04  0.90466693732E+03 0.  0.
         23    2    4    4    0    0  0.27180146093E+02 -0.10407088728E+03 -0.15263000105E+03  0.20808046141E+03  0.91826201498E+02 0.  0.
         23    2    4    4    0    0 -0.53325267714E+03  0.53198577033E+01  0.98966177971E+03  0.11279231458E+04  0.91615861361E+02 0.  0.
         13    1    3    3    0    0  0.13701361331E+02 -0.57376963878E+01  0.15046868991E+02  0.21143716055E+02  0.00000000000E+00 0.  1.
        -13    1    3    3    0    0  0.49237116972E+03  0.10448872597E+03  0.17583034400E+04  0.18289281696E+04  0.00000000000E+00 0. -1.
          2    1    5    5  502    0  0.34168737818E+01 -0.45123541093E+02 -0.13461807936E+03  0.14202054879E+03  0.00000000000E+00 0.  1.
          1    1    6    6  503    0 -0.42559822649E+03  0.39021558864E+02  0.75555111581E+03  0.86805185389E+03  0.00000000000E+00 0.  1.
         -2    1    5    5    0  502  0.23763272311E+02 -0.58947346189E+02 -0.18011921689E+02  0.66059912629E+02  0.00000000000E+00 0. -1.
         -1    1    6    6    0  503 -0.10765445065E+03 -0.33701701161E+02  0.23411066390E+03  0.25987129191E+03  0.00000000000E+00 0. -1.
<mgrwt>
<rscale>  0 0.18267409E+04</rscale>
<asrwt>0</asrwt>
<pdfrwt beam="1">  1        2 0.44588133E+00 0.18267409E+04</pdfrwt>
<pdfrwt beam="2">  1       -2 0.44284110E-01 0.18267409E+04</pdfrwt>
<totfact> 0.92028488E+00</totfact>
</mgrwt>
</event>
<event>
12    1  0.4820219E-008  0.1939356E+04  0.7818608E-02  0.8635511E-01
          2   -1    0    0  501    0  0.00000000000E+00  0.00000000000E+00  0.94139614493E+03  0.94139614493E+03  0.00000000000E+00 0. -1.
         -2   -1    0    0    0  501 -0.00000000000E+00 -0.00000000000E+00 -0.99880905712E+03  0.99880905712E+03  0.00000000000E+00 0.  1.
         23    2    1    2    0    0  0.95085771301E+02  0.12807808450E+03 -0.76201523973E+03  0.78448657905E+03  0.96471070738E+02 0.  0.
        254    2    1    2    0    0 -0.95085771301E+02 -0.12807808450E+03  0.70460232754E+03  0.11557186230E+04  0.90209522555E+03 0.  0.
         23    2    4    4    0    0  0.22166813338E+02 -0.48650390855E+03  0.54429883565E+03  0.73582133014E+03  0.89411334609E+02 0.  0.
         23    2    4    4    0    0 -0.11725258464E+03  0.35842582405E+03  0.16030349189E+03  0.41989729287E+03  0.91647624607E+02 0.  0.
         11    1    3    3    0    0 -0.24147688544E+01 -0.12941838166E+02 -0.31848544579E+02  0.34462328353E+02  0.00000000000E+00 0. -1.
        -11    1    3    3    0    0  0.97500540156E+02  0.14101992266E+03 -0.73016669515E+03  0.75002425069E+03  0.00000000000E+00 0.  1.
          2    1    6    6  502    0 -0.92922682065E+02  0.34572771441E+03  0.13511601262E+03  0.38264685315E+03  0.00000000000E+00 0. -1.
          2    1    5    5  503    0  0.16934177508E+02 -0.31729874887E+03  0.28914168563E+03  0.42961398577E+03  0.00000000000E+00 0. -1.
         -2    1    5    5    0  503  0.52326358297E+01 -0.16920515968E+03  0.25515715002E+03  0.30620734437E+03  0.00000000000E+00 0.  1.
         -2    1    6    6    0  502 -0.24329902574E+02  0.12698109636E+02  0.25187479269E+02  0.37250439722E+02  0.00000000000E+00 0.  1.
<mgrwt>
<rscale>  0 0.19393556E+04</rscale>
<asrwt>0</asrwt>
<pdfrwt beam="1">  1        2 0.14483018E+00 0.19393556E+04</pdfrwt>
<pdfrwt beam="2">  1       -2 0.15366293E+00 0.19393556E+04</pdfrwt>
<totfact> 0.72142561E+00</totfact>
</mgrwt>
</event>
<event>
12    1  0.4820219E-008  0.1380653E+04  0.7818608E-02  0.8967943E-01
         -2   -1    0    0    0  501 -0.00000000000E+00  0.00000000000E+00  0.27390282944E+03  0.27390282944E+03  0.00000000000E+00 0.  1.
          2   -1    0    0  501    0  0.00000000000E+00 -0.00000000000E+00 -0.17398525851E+04  0.17398525851E+04  0.00000000000E+00 0. -1.
         23    2    1    2    0    0 -0.25476150295E+03 -0.28162097167E+03 -0.28975576620E+03  0.48610570572E+03  0.90147423840E+02 0.  0.
        254    2    1    2    0    0  0.25476150295E+03  0.28162097167E+03 -0.11761939894E+04  0.15276497088E+04  0.89781264022E+03 0.  0.
         23    2    4    4    0    0  0.55956349644E+03  0.14194543836E+03 -0.93704835244E+03  0.11043922413E+04  0.91448312132E+02 0.  0.
         23    2    4    4    0    0 -0.30480199349E+03  0.13967553330E+03 -0.23914563699E+03  0.42325746750E+03  0.97686940087E+02 0.  0.
         11    1    3    3    0    0 -0.10877507131E+03 -0.14011197428E+03 -0.18898351067E+03  0.25918747805E+03  0.00000000000E+00 0. -1.
        -11    1    3    3    0    0 -0.14598643164E+03 -0.14150899739E+03 -0.10077225552E+03  0.22691822767E+03  0.00000000000E+00 0.  1.
          4    1    5    5  502    0  0.44201722289E+03  0.75770690156E+02 -0.69047389182E+03  0.82333141450E+03  0.00000000000E+00 0. -1.
          1    1    6    6  503    0 -0.26761122981E+03  0.14425061770E+03 -0.23743866286E+03  0.38574749467E+03  0.00000000000E+00 0. -1.
         -4    1    5    5    0  502  0.11754627355E+03  0.66174748208E+02 -0.24657446061E+03  0.28106082678E+03  0.00000000000E+00 0.  1.
         -1    1    6    6    0  503 -0.37190763689E+02 -0.45750843991E+01 -0.17069741303E+01  0.37509972830E+02  0.00000000000E+00 0.  1.
<mgrwt>
<rscale>  0 0.13806528E+04</rscale>
<asrwt>0</asrwt>
<pdfrwt beam="1">  1        2 0.26766963E+00 0.13806528E+04</pdfrwt>
<pdfrwt beam="2">  1       -2 0.42138897E-01 0.13806528E+04</pdfrwt>
<totfact> 0.48475589E+01</totfact>
</mgrwt>
</event>
<event>
12    1  0.4820219E-008  0.2891316E+04  0.7818608E-02  0.8275466E-01
          1   -1    0    0  501    0  0.00000000000E+00  0.00000000000E+00  0.13339531041E+04  0.13339531041E+04  0.00000000000E+00 0. -1.
         -1   -1    0    0    0  501 -0.00000000000E+00 -0.00000000000E+00 -0.15667172983E+04  0.15667172983E+04  0.00000000000E+00 0.  1.
         23    2    1    2    0    0 -0.92979600226E+03 -0.73415905994E+03 -0.65505503205E+03  0.13567165532E+04  0.89847534538E+02 0.  0.
        254    2    1    2    0    0  0.92979600226E+03  0.73415905994E+03  0.42229083785E+03  0.15439538492E+04  0.89551873557E+03 0.  0.
         23    2    4    4    0    0  0.10703656111E+03  0.63300627306E+03  0.13912921899E+03  0.66313641338E+03  0.90770017218E+02 0.  0.
         23    2    4    4    0    0  0.82275944115E+03  0.10115278688E+03  0.28316161886E+03  0.88081743586E+03  0.92162186546E+02 0.  0.
         13    1    3    3    0    0 -0.60633233438E+03 -0.44579421004E+03 -0.37576499122E+03  0.84117222140E+03  0.00000000000E+00 0.  1.
        -13    1    3    3    0    0 -0.32346366788E+03 -0.28836484990E+03 -0.27929004083E+03  0.51554433176E+03  0.00000000000E+00 0. -1.
          4    1    5    5  502    0  0.12114046790E+03  0.56977879374E+03  0.13654322636E+03  0.59830338410E+03  0.00000000000E+00 0. -1.
          3    1    6    6  503    0  0.71767417145E+03  0.92062462090E+02  0.27829062145E+03  0.77522731071E+03  0.00000000000E+00 0. -1.
         -4    1    5    5    0  502 -0.14103906788E+02  0.63227479324E+02  0.25859926253E+01  0.64833029284E+02  0.00000000000E+00 0.  1.
         -3    1    6    6    0  503  0.10508526970E+03  0.90903247911E+01  0.48709974098E+01  0.10559012515E+03  0.00000000000E+00 0.  1.
<mgrwt>
<rscale>  0 0.28913162E+04</rscale>
<asrwt>0</asrwt>
<pdfrwt beam="1">  1        1 0.20522356E+00 0.28913162E+04</pdfrwt>
<pdfrwt beam="2">  1       -1 0.24103343E+00 0.28913162E+04</pdfrwt>
<totfact> 0.58653668E-01</totfact>
</mgrwt>
</event>
<event>
12    1  0.4820219E-008  0.2286032E+04  0.7818608E-02  0.8483449E-01
         -2   -1    0    0    0  501 -0.00000000000E+00  0.00000000000E+00  0.10472887032E+04  0.10472887032E+04  0.00000000000E+00 0.  1.
          2   -1    0    0  501    0  0.00000000000E+00 -0.00000000000E+00 -0.12474933294E+04  0.12474933294E+04  0.00000000000E+00 0. -1.
         23    2    1    2    0    0 -0.92191227774E+03 -0.24444166324E+03  0.41775445480E+02  0.95866337386E+03  0.87271426923E+02 0.  0.
        254    2    1    2    0    0  0.92191227774E+03  0.24444166324E+03 -0.24198007165E+03  0.13361186587E+04  0.90387208194E+03 0.  0.
         23    2    4    4    0    0  0.81246150650E+03 -0.18791200032E+03 -0.45029874389E+02  0.83996515762E+03  0.90050857974E+02 0.  0.
         23    2    4    4    0    0  0.10945077124E+03  0.43235366356E+03 -0.19695019726E+03  0.49615350110E+03  0.92031270384E+02 0.  0.
         13    1    3    3    0    0 -0.69920778555E+03 -0.20423078919E+03  0.64209029707E+02  0.73124861854E+03  0.00000000000E+00 0. -1.
        -13    1    3    3    0    0 -0.22270449219E+03 -0.40210874054E+02 -0.22433584227E+02  0.22741475532E+03  0.00000000000E+00 0.  1.
          2    1    5    5  502    0  0.64158716642E+03 -0.14151263841E+03 -0.71687450873E+02  0.66090771637E+03  0.00000000000E+00 0. -1.
          1    1    6    6  503    0  0.19450250704E+02  0.25403299951E+03 -0.95168221566E+02  0.27197071072E+03  0.00000000000E+00 0. -1.
         -2    1    5    5    0  502  0.17087434008E+03 -0.46399361911E+02  0.26657576484E+02  0.17905744125E+03  0.00000000000E+00 0.  1.
         -1    1    6    6    0  503  0.90000520539E+02  0.17832066405E+03 -0.10178197570E+03  0.22418279037E+03  0.00000000000E+00 0.  1.
<mgrwt>
<rscale>  0 0.22860321E+04</rscale>
<asrwt>0</asrwt>
<pdfrwt beam="1">  1        2 0.19192205E+00 0.22860321E+04</pdfrwt>
<pdfrwt beam="2">  1       -2 0.16112134E+00 0.22860321E+04</pdfrwt>
<totfact> 0.39814435E+00</totfact>
</mgrwt>
</event>
<event>
12    1  0.4820219E-008  0.1940905E+04  0.7818608E-02  0.8634759E-01
         -1   -1    0    0    0  501 -0.00000000000E+00  0.00000000000E+00  0.85126087787E+03  0.85126087787E+03  0.00000000000E+00 0.  1.
          1   -1    0    0  501    0  0.00000000000E+00 -0.00000000000E+00 -0.11063329019E+04  0.11063329019E+04  0.00000000000E+00 0. -1.
         23    2    1    2    0    0 -0.60252215503E+03  0.17502496040E+03 -0.53393183971E+03  0.82887859714E+03  0.91048532486E+02 0.  0.
        254    2    1    2    0    0  0.60252215503E+03 -0.17502496040E+03  0.27885981569E+03  0.11287151826E+04  0.89586186581E+03 0.  0.
         23    2    4    4    0    0 -0.48044012474E+02 -0.18813191600E+03  0.40584450088E+03  0.45944934060E+03  0.93177748061E+02 0.  0.
         23    2    4    4    0    0  0.65056616750E+03  0.13106955599E+02 -0.12698468519E+03  0.66926584201E+03  0.91561599107E+02 0.  0.
         11    1    3    3    0    0 -0.82412418148E+02  0.50695722406E+02 -0.10972901792E+03  0.14629531882E+03  0.00000000000E+00 0.  1.
        -11    1    3    3    0    0 -0.52010973688E+03  0.12432923799E+03 -0.42420282179E+03  0.68258327831E+03  0.00000000000E+00 0. -1.
          2    1    5    5  502    0 -0.58731762911E+02 -0.18648553398E+03  0.40351611048E+03  0.44838769583E+03  0.00000000000E+00 0.  1.
          4    1    6    6  503    0  0.66039250592E+01  0.90380531832E+01 -0.94574552970E+01  0.14654067429E+02  0.00000000000E+00 0. -1.
         -2    1    5    5    0  502  0.10687750437E+02 -0.16463820169E+01  0.23283904024E+01  0.11061644770E+02  0.00000000000E+00 0. -1.
         -4    1    6    6    0  503  0.64396224244E+03  0.40689024162E+01 -0.11752722989E+03  0.65461177458E+03  0.00000000000E+00 0.  1.
<mgrwt>
<rscale>  0 0.19409049E+04</rscale>
<asrwt>0</asrwt>
<pdfrwt beam="1">  1        1 0.17020506E+00 0.19409049E+04</pdfrwt>
<pdfrwt beam="2">  1       -1 0.13096321E+00 0.19409049E+04</pdfrwt>
<totfact> 0.58203322E+00</totfact>
</mgrwt>
</event>
<event>
12    1  0.4820219E-008  0.1335636E+04  0.7818608E-02  0.9001773E-01
         -2   -1    0    0    0  501 -0.00000000000E+00  0.00000000000E+00  0.15908157026E+03  0.15908157026E+03  0.00000000000E+00 0.  1.
          2   -1    0    0  501    0  0.00000000000E+00 -0.00000000000E+00 -0.28034750079E+04  0.28034750079E+04  0.00000000000E+00 0. -1.
         23    2    1    2    0    0  0.10148910622E+03  0.11023300214E+03 -0.14508933460E+04  0.14613851182E+04  0.90020047660E+02 0.  0.
        254    2    1    2    0    0 -0.10148910622E+03 -0.11023300214E+03 -0.11935000917E+04  0.15011714599E+04  0.89812133358E+03 0.  0.
         23    2    4    4    0    0 -0.48348369884E+03 -0.41201386936E+02 -0.80070099005E+03  0.94075872674E+03  0.91928587161E+02 0.  0.
         23    2    4    4    0    0  0.38199459262E+03 -0.69031615207E+02 -0.39279910164E+03  0.56041273320E+03  0.95320850822E+02 0.  0.
         13    1    3    3    0    0  0.11219289998E+03  0.93565559776E+02 -0.10636467716E+04  0.10736322534E+04  0.00000000000E+00 0. -1.
        -13    1    3    3    0    0 -0.10703793761E+02  0.16667442367E+02 -0.38724657440E+03  0.38775286488E+03  0.00000000000E+00 0.  1.
          4    1    5    5  502    0 -0.55489376021E+02 -0.15709336407E+02 -0.15775771139E+03  0.16796829941E+03  0.00000000000E+00 0. -1.
          1    1    6    6  503    0  0.78500168106E+02 -0.25867003788E+02 -0.14216873366E+03  0.16444855459E+03  0.00000000000E+00 0. -1.
         -4    1    5    5    0  502 -0.42799432282E+03 -0.25492050529E+02 -0.64294327866E+03  0.77279042733E+03  0.00000000000E+00 0.  1.
         -1    1    6    6    0  503  0.30349442451E+03 -0.43164611419E+02 -0.25063036798E+03  0.39596417861E+03  0.00000000000E+00 0.  1.
<mgrwt>
<rscale>  0 0.13356365E+04</rscale>
<asrwt>0</asrwt>
<pdfrwt beam="1">  1        2 0.43130384E+00 0.13356365E+04</pdfrwt>
<pdfrwt beam="2">  1       -2 0.24474088E-01 0.13356365E+04</pdfrwt>
<totfact> 0.33810597E+01</totfact>
</mgrwt>
</event>
<event>
12    1  0.4820219E-008  0.1580833E+04  0.7818608E-02  0.8832411E-01
          1   -1    0    0  501    0  0.00000000000E+00  0.00000000000E+00  0.11704815758E+04  0.11704815758E+04  0.00000000000E+00 0. -1.
         -1   -1    0    0    0  501 -0.00000000000E+00 -0.00000000000E+00 -0.53376140978E+03  0.53376140978E+03  0.00000000000E+00 0.  1.
         23    2    1    2    0    0 -0.45921564338E+03 -0.26680260279E+02 -0.50546047447E+02  0.47159542544E+03  0.90865279230E+02 0.  0.
        254    2    1    2    0    0  0.45921564338E+03  0.26680260279E+02  0.68726621346E+03  0.12326475601E+04  0.91405378174E+03 0.  0.
         23    2    4    4    0    0  0.12430690044E+03 -0.36332884363E+03  0.57729854243E+03  0.69952742555E+03  0.92762912270E+02 0.  0.
         23    2    4    4    0    0  0.33490874294E+03  0.39000910391E+03  0.10996767103E+03  0.53312013458E+03  0.88618406618E+02 0.  0.
         11    1    3    3    0    0 -0.36307891350E+03 -0.35094909357E+02 -0.74184514914E+02  0.37223821988E+03  0.00000000000E+00 0.  1.
        -11    1    3    3    0    0 -0.96136729884E+02  0.84146490786E+01  0.23638467467E+02  0.99357205557E+02  0.00000000000E+00 0. -1.
          1    1    5    5  502    0  0.83938369671E+02 -0.25610857051E+03  0.47401122397E+03  0.54527414228E+03  0.00000000000E+00 0. -1.
          3    1    6    6  503    0  0.31365274101E+03  0.37939282282E+03  0.86640902885E+02  0.49982357088E+03  0.00000000000E+00 0. -1.
         -1    1    5    5    0  502  0.40368530766E+02 -0.10722027312E+03  0.10328731847E+03  0.15425328328E+03  0.00000000000E+00 0.  1.
         -3    1    6    6    0  503  0.21256001937E+02  0.10616281085E+02  0.23326768144E+02  0.33296563704E+02  0.00000000000E+00 0.  1.
<mgrwt>
<rscale>  0 0.15808326E+04</rscale>
<asrwt>0</asrwt>
<pdfrwt beam="1">  1        1 0.18007409E+00 0.15808326E+04</pdfrwt>
<pdfrwt beam="2">  1       -1 0.82117140E-01 0.15808326E+04</pdfrwt>
<totfact> 0.15925790E+01</totfact>
</mgrwt>
</event>
<event>
12    1  0.4820219E-008  0.1189405E+04  0.7818608E-02  0.9122181E-01
          2   -1    0    0  501    0  0.00000000000E+00  0.00000000000E+00  0.71758760452E+03  0.71758760452E+03  0.00000000000E+00 0. -1.
         -2   -1    0    0    0  501 -0.00000000000E+00 -0.00000000000E+00 -0.49286127541E+03  0.49286127541E+03  0.00000000000E+00 0.  1.
         23    2    1    2    0    0  0.70746319216E+02  0.20793813328E+03  0.17482334374E+03  0.29482206965E+03  0.90075203466E+02 0.  0.
        254    2    1    2    0    0 -0.70746319216E+02 -0.20793813328E+03  0.49902985365E+02  0.91562681029E+03  0.88749019083E+03 0.  0.
         23    2    4    4    0    0 -0.33247727134E+03  0.67607548450E+02  0.29091330595E+03  0.45648719827E+03  0.92941347325E+02 0.  0.
         23    2    4    4    0    0  0.26173095213E+03 -0.27554568173E+03 -0.24101032059E+03  0.45913961201E+03  0.91075214334E+02 0.  0.
         11    1    3    3    0    0 -0.53407428181E+01  0.11737966094E+03  0.69960441413E+02  0.13675149615E+03  0.00000000000E+00 0.  1.
        -11    1    3    3    0    0  0.76087062034E+02  0.90558472345E+02  0.10486290233E+03  0.15807057350E+03  0.00000000000E+00 0. -1.
          1    1    6    6  502    0  0.30972634213E+02 -0.22338586864E+02 -0.61455418027E+02  0.72353886821E+02  0.00000000000E+00 0. -1.
          1    1    5    5  503    0 -0.13884508354E+03  0.23864049651E+02  0.18169344896E+03  0.22991293892E+03  0.00000000000E+00 0. -1.
         -1    1    5    5    0  503 -0.19363218780E+03  0.43743498799E+02  0.10921985699E+03  0.22657425935E+03  0.00000000000E+00 0.  1.
         -1    1    6    6    0  502  0.23075831791E+03 -0.25320709487E+03 -0.17955490256E+03  0.38678572519E+03  0.00000000000E+00 0.  1.
<mgrwt>
<rscale>  0 0.11894051E+04</rscale>
<asrwt>0</asrwt>
<pdfrwt beam="1">  1        2 0.11039809E+00 0.11894051E+04</pdfrwt>
<pdfrwt beam="2">  1       -2 0.75824812E-01 0.11894051E+04</pdfrwt>
<totfact> 0.61121472E+01</totfact>
</mgrwt>
</event>
<event>
12    1  0.4820219E-008  0.2353098E+04  0.7818608E-02  0.8457275E-01
         -4   -1    0    0    0  501 -0.00000000000E+00  0.00000000000E+00  0.74932326715E+03  0.74932326715E+03  0.00000000000E+00 0.  1.
          4   -1    0    0  501    0  0.00000000000E+00 -0.00000000000E+00 -0.18473573453E+04  0.18473573453E+04  0.00000000000E+00 0. -1.
         23    2    1    2    0    0 -0.55269749757E+03 -0.37587339585E+03 -0.12908954105E+04  0.14567518584E+04  0.94655599073E+02 0.  0.
        254    2    1    2    0    0  0.55269749757E+03  0.37587339585E+03  0.19286133234E+03  0.11399287541E+04  0.90304304294E+03 0.  0.
         23    2    4    4    0    0  0.65053907184E+03  0.28609939465E+03  0.44272868584E+03  0.84238131284E+03  0.92431809123E+02 0.  0.
         23    2    4    4    0    0 -0.97841574271E+02  0.89774001200E+02 -0.24986735351E+03  0.29754744127E+03  0.92024130041E+02 0.  0.
         11    1    3    3    0    0 -0.29211667428E+02 -0.42177042188E+01 -0.31541872947E+02  0.43197225511E+02  0.00000000000E+00 0.  1.
        -11    1    3    3    0    0 -0.52348583014E+03 -0.37165569163E+03 -0.12593535376E+04  0.14135546329E+04  0.00000000000E+00 0. -1.
          2    1    5    5  502    0  0.25585527452E+03  0.63946505983E+02  0.16612322546E+03  0.31168574425E+03  0.00000000000E+00 0. -1.
          1    1    6    6  503    0 -0.64560378859E+01  0.66902412768E+02 -0.97973951560E+02  0.11881291362E+03  0.00000000000E+00 0. -1.
         -2    1    5    5    0  502  0.39468379731E+03  0.22215288867E+03  0.27660546038E+03  0.53069556859E+03  0.00000000000E+00 0.  1.
         -1    1    6    6    0  503 -0.91385536385E+02  0.22871588432E+02 -0.15189340195E+03  0.17873452765E+03  0.00000000000E+00 0.  1.
<mgrwt>
<rscale>  0 0.23530982E+04</rscale>
<asrwt>0</asrwt>
<pdfrwt beam="1">  1        4 0.28420882E+00 0.23530982E+04</pdfrwt>
<pdfrwt beam="2">  1       -4 0.11528050E+00 0.23530982E+04</pdfrwt>
<totfact> 0.40841790E-02</totfact>
</mgrwt>
</event>
<event>
12    1  0.4820219E-008  0.1831497E+04  0.7818608E-02  0.8689727E-01
         -2   -1    0    0    0  501 -0.00000000000E+00  0.00000000000E+00  0.31626896940E+03  0.31626896940E+03  0.00000000000E+00 0.  1.
          2   -1    0    0  501    0  0.00000000000E+00 -0.00000000000E+00 -0.26515257454E+04  0.26515257454E+04  0.00000000000E+00 0. -1.
         23    2    1    2    0    0 -0.84599093153E+02  0.67570276671E+03 -0.10480423814E+04  0.12531496687E+04  0.90884671360E+02 0.  0.
        254    2    1    2    0    0  0.84599093153E+02 -0.67570276671E+03 -0.12872143947E+04  0.17146450461E+04  0.90518257877E+03 0.  0.
         23    2    4    4    0    0  0.38091975262E+03 -0.55924484130E+03 -0.11854626484E+04  0.13682595823E+04  0.94646411689E+02 0.  0.
         23    2    4    4    0    0 -0.29632065947E+03 -0.11645792541E+03 -0.10175174626E+03  0.34638546387E+03  0.90890539064E+02 0.  0.
         13    1    3    3    0    0 -0.74276931902E+02  0.37331249546E+03 -0.51768022630E+03  0.64255124199E+03  0.00000000000E+00 0.  1.
        -13    1    3    3    0    0 -0.10322161251E+02  0.30239027125E+03 -0.53036215507E+03  0.61059842670E+03  0.00000000000E+00 0. -1.
          2    1    5    5  502    0  0.36184551645E+03 -0.55643139764E+03 -0.11573842345E+04  0.13341987649E+04  0.00000000000E+00 0. -1.
          1    1    6    6  503    0 -0.21625141482E+03 -0.65537321388E+02 -0.31126324409E+02  0.22809792410E+03  0.00000000000E+00 0. -1.
         -2    1    5    5    0  502  0.19074236170E+02 -0.28134436589E+01 -0.28078413916E+02  0.34060817352E+02  0.00000000000E+00 0.  1.
         -1    1    6    6    0  503 -0.80069244648E+02 -0.50920604026E+02 -0.70625421850E+02  0.11828753977E+03  0.00000000000E+00 0.  1.
<mgrwt>
<rscale>  0 0.18314970E+04</rscale>
<asrwt>0</asrwt>
<pdfrwt beam="1">  1        2 0.40792702E+00 0.18314970E+04</pdfrwt>
<pdfrwt beam="2">  1       -2 0.48656767E-01 0.18314970E+04</pdfrwt>
<totfact> 0.10706723E+01</totfact>
</mgrwt>
</event>
<event>
12    1  0.4820219E-008  0.2696116E+04  0.7818608E-02  0.8336266E-01
          2   -1    0    0  501    0  0.00000000000E+00  0.00000000000E+00  0.42786193173E+04  0.42786193173E+04  0.00000000000E+00 0. -1.
         -2   -1    0    0    0  501 -0.00000000000E+00 -0.00000000000E+00 -0.42473040111E+03  0.42473040111E+03  0.00000000000E+00 0.  1.
         23    2    1    2    0    0  0.25826445172E+03 -0.10410354067E+04  0.78720792862E+03  0.13335762661E+04  0.90962021816E+02 0.  0.
        254    2    1    2    0    0 -0.25826445172E+03  0.10410354067E+04  0.30666809875E+04  0.33697734523E+04  0.89464271947E+03 0.  0.
         23    2    4    4    0    0  0.54490274055E+02  0.10549286229E+04  0.21592467538E+04  0.24055766887E+04  0.92785083537E+02 0.  0.
         23    2    4    4    0    0 -0.31275472577E+03 -0.13893216148E+02  0.90743423368E+03  0.96419676364E+03  0.90719185396E+02 0.  0.
         11    1    3    3    0    0  0.24162056849E+03 -0.86524439405E+03  0.68341257423E+03  0.11287520131E+04  0.00000000000E+00 0.  1.
        -11    1    3    3    0    0  0.16643883224E+02 -0.17579101269E+03  0.10379535439E+03  0.20482425292E+03  0.00000000000E+00 0. -1.
          2    1    5    5  502    0 -0.10203274069E+02  0.20826911801E+03  0.49815387619E+03  0.54003464396E+03  0.00000000000E+00 0. -1.
          1    1    6    6  503    0 -0.19954314406E+03 -0.38526854198E+02  0.47803356508E+03  0.51943996205E+03  0.00000000000E+00 0. -1.
         -2    1    5    5    0  502  0.64693548124E+02  0.84665950488E+03  0.16610928777E+04  0.18655420447E+04  0.00000000000E+00 0.  1.
         -1    1    6    6    0  503 -0.11321158172E+03  0.24633638050E+02  0.42940066860E+03  0.44475680158E+03  0.00000000000E+00 0.  1.
<mgrwt>
<rscale>  0 0.26961155E+04</rscale>
<asrwt>0</asrwt>
<pdfrwt beam="1">  1        2 0.65824910E+00 0.26961155E+04</pdfrwt>
<pdfrwt beam="2">  1       -2 0.65343141E-01 0.26961155E+04</pdfrwt>
<totfact> 0.37637440E-01</totfact>
</mgrwt>
</event>
<event>
12    1  0.4820219E-008  0.1997125E+04  0.7818608E-02  0.8607966E-01
         -2   -1    0    0    0  501 -0.00000000000E+00  0.00000000000E+00  0.83286827847E+03  0.83286827847E+03  0.00000000000E+00 0.  1.
          2   -1    0    0  501    0  0.00000000000E+00 -0.00000000000E+00 -0.11972208298E+04  0.11972208298E+04  0.00000000000E+00 0. -1.
         23    2    1    2    0    0  0.40072917097E+03  0.47597850874E+03  0.35401691500E+03  0.72175602893E+03  0.92002064911E+02 0.  0.
        254    2    1    2    0    0 -0.40072917097E+03 -0.47597850874E+03 -0.71836946635E+03  0.13083330794E+04  0.89918927213E+03 0.  0.
         23    2    4    4    0    0 -0.63858652131E+03 -0.20758429656E+03 -0.27669553100E+03  0.73226914507E+03  0.93668023147E+02 0.  0.
         23    2    4    4    0    0  0.23785735034E+03 -0.26839421218E+03 -0.44167393536E+03  0.57606393430E+03  0.90344999758E+02 0.  0.
         11    1    3    3    0    0  0.22503439469E+03  0.28352379607E+03  0.25594615637E+03  0.44332229438E+03  0.00000000000E+00 0.  1.
        -11    1    3    3    0    0  0.17569477628E+03  0.19245471266E+03  0.98070758630E+02  0.27843373455E+03  0.00000000000E+00 0. -1.
          4    1    6    6  502    0  0.20463544076E+03 -0.19635953513E+03 -0.29439283528E+03  0.40877851229E+03  0.00000000000E+00 0. -1.
          4    1    5    5  503    0 -0.18171746621E+03 -0.94540881386E+02 -0.11317443752E+03  0.23402493262E+03  0.00000000000E+00 0. -1.
         -4    1    5    5    0  503 -0.45686905511E+03 -0.11304341517E+03 -0.16352109348E+03  0.49824421245E+03  0.00000000000E+00 0.  1.
         -4    1    6    6    0  502  0.33221909583E+02 -0.72034677049E+02 -0.14728110008E+03  0.16728542200E+03  0.00000000000E+00 0.  1.
<mgrwt>
<rscale>  0 0.19971252E+04</rscale>
<asrwt>0</asrwt>
<pdfrwt beam="1">  1        2 0.18418782E+00 0.19971252E+04</pdfrwt>
<pdfrwt beam="2">  1       -2 0.12813358E+00 0.19971252E+04</pdfrwt>
<totfact> 0.79607352E+00</totfact>
</mgrwt>
</event>
<event>
12    1  0.4820219E-008  0.2244885E+04  0.7818608E-02  0.8499975E-01
         -1   -1    0    0    0  501 -0.00000000000E+00  0.00000000000E+00  0.65030710953E+03  0.65030710953E+03  0.00000000000E+00 0.  1.
          1   -1    0    0  501    0  0.00000000000E+00 -0.00000000000E+00 -0.19373578033E+04  0.19373578033E+04  0.00000000000E+00 0. -1.
         23    2    1    2    0    0 -0.55845262329E+03  0.64904229381E+03 -0.98584488767E+03  0.13089619863E+04  0.91466427242E+02 0.  0.
        254    2    1    2    0    0  0.55845262329E+03 -0.64904229381E+03 -0.30120580606E+03  0.12787029265E+04  0.90068363210E+03 0.  0.
         23    2    4    4    0    0 -0.18868278628E+03  0.50687982072E+02 -0.38671415706E+02  0.21733089827E+03  0.86987215072E+02 0.  0.
         23    2    4    4    0    0  0.74713540957E+03 -0.69973027588E+03 -0.26253439036E+03  0.10613720283E+04  0.98754731770E+02 0.  0.
         11    1    3    3    0    0 -0.20955374809E+03  0.25953580547E+03 -0.45105163476E+03  0.56099838225E+03  0.00000000000E+00 0. -1.
        -11    1    3    3    0    0 -0.34889887520E+03  0.38950648834E+03 -0.53479325291E+03  0.74796360401E+03  0.00000000000E+00 0.  1.
          2    1    5    5  502    0 -0.96778041815E+02  0.55778508341E+02 -0.53913481987E+02  0.12403183023E+03  0.00000000000E+00 0. -1.
          3    1    6    6  503    0  0.27526161834E+03 -0.29446837509E+03 -0.61989020950E+02  0.40782744044E+03  0.00000000000E+00 0. -1.
         -2    1    5    5    0  502 -0.91904744468E+02 -0.50905262683E+01  0.15242066281E+02  0.93299068044E+02  0.00000000000E+00 0.  1.
         -3    1    6    6    0  503  0.47187379123E+03 -0.40526190079E+03 -0.20054536941E+03  0.65354458783E+03  0.00000000000E+00 0.  1.
<mgrwt>
<rscale>  0 0.22448853E+04</rscale>
<asrwt>0</asrwt>
<pdfrwt beam="1">  1        1 0.29805504E+00 0.22448853E+04</pdfrwt>
<pdfrwt beam="2">  1       -1 0.10004725E+00 0.22448853E+04</pdfrwt>
<totfact> 0.28412954E+00</totfact>
</mgrwt>
</event>
<event>
12    1  0.4820219E-008  0.1740054E+04  0.7818608E-02  0.8738844E-01
         -4   -1    0    0    0  501 -0.00000000000E+00  0.00000000000E+00  0.37459867179E+03  0.37459867179E+03  0.00000000000E+00 0.  1.
          4   -1    0    0  501    0  0.00000000000E+00 -0.00000000000E+00 -0.20206878566E+04  0.20206878566E+04  0.00000000000E+00 0. -1.
         23    2    1    2    0    0  0.93189323624E+02  0.33840748019E+03 -0.13238295446E+04  0.13727565813E+04  0.93445683803E+02 0.  0.
        254    2    1    2    0    0 -0.93189323624E+02 -0.33840748019E+03 -0.32225964022E+03  0.10225299470E+04  0.90471672042E+03 0.  0.
         23    2    4    4    0    0 -0.22710147329E+02 -0.38677608536E+03 -0.59953675747E+03  0.71838116199E+03  0.80719758076E+02 0.  0.
         23    2    4    4    0    0 -0.70479176296E+02  0.48368605173E+02  0.27727711725E+03  0.30414878506E+03  0.91197847811E+02 0.  0.
         13    1    3    3    0    0  0.94383609932E+02  0.33611623790E+03 -0.13247758651E+04  0.13700049212E+04  0.00000000000E+00 0. -1.
        -13    1    3    3    0    0 -0.11942863071E+01  0.22912422909E+01  0.94632056075E+00  0.27516601575E+01  0.00000000000E+00 0.  1.
          4    1    5    5  502    0 -0.41076469547E+02 -0.36192782751E+03 -0.54112104697E+03  0.65229672401E+03  0.00000000000E+00 0.  1.
          1    1    6    6  503    0  0.13495434375E+02  0.36325662090E+02  0.10927804627E+03  0.11594555563E+03  0.00000000000E+00 0. -1.
         -4    1    5    5    0  502  0.18366322218E+02 -0.24848257847E+02 -0.58415710498E+02  0.66084437978E+02  0.00000000000E+00 0. -1.
         -1    1    6    6    0  503 -0.83974610671E+02  0.12042943083E+02  0.16799907098E+03  0.18820322942E+03  0.00000000000E+00 0.  1.
<mgrwt>
<rscale>  0 0.17400540E+04</rscale>
<asrwt>0</asrwt>
<pdfrwt beam="1">  1        4 0.31087505E+00 0.17400540E+04</pdfrwt>
<pdfrwt beam="2">  1       -4 0.57630566E-01 0.17400540E+04</pdfrwt>
<totfact> 0.14383704E-01</totfact>
</mgrwt>
</event>
<event>
12    1  0.4820219E-008  0.1533167E+04  0.7818608E-02  0.8862692E-01
         -2   -1    0    0    0  501 -0.00000000000E+00  0.00000000000E+00  0.16862537786E+03  0.16862537786E+03  0.00000000000E+00 0.  1.
          2   -1    0    0  501    0  0.00000000000E+00 -0.00000000000E+00 -0.34849444349E+04  0.34849444349E+04  0.00000000000E+00 0. -1.
         23    2    1    2    0    0  0.40923381384E+03  0.65649335914E+02 -0.43727845417E+03  0.60945133582E+03  0.91849521227E+02 0.  0.
        254    2    1    2    0    0 -0.40923381384E+03 -0.65649335914E+02 -0.28790406028E+04  0.30441184769E+04  0.89777522742E+03 0.  0.
         23    2    4    4    0    0  0.13497810693E+03 -0.26647300566E+03 -0.16699167755E+04  0.16990786456E+04  0.94969755674E+02 0.  0.
         23    2    4    4    0    0 -0.54421192077E+03  0.20082366975E+03 -0.12091238273E+04  0.13450398314E+04  0.10322285171E+03 0.  0.
         11    1    3    3    0    0  0.94262351934E+02  0.52932095668E+02 -0.92395362293E+02  0.14221146479E+03  0.00000000000E+00 0. -1.
        -11    1    3    3    0    0  0.31497146191E+03  0.12717240246E+02 -0.34488309188E+03  0.46723987103E+03  0.00000000000E+00 0.  1.
          3    1    5    5  502    0  0.39635884539E+02 -0.13090105568E+03 -0.98193206089E+03  0.99141144936E+03  0.00000000000E+00 0. -1.
          3    1    6    6  503    0 -0.10611651578E+03  0.39630444154E+02 -0.34166605656E+03  0.35995413767E+03  0.00000000000E+00 0. -1.
         -3    1    5    5    0  502  0.95342222390E+02 -0.13557194998E+03 -0.68798471465E+03  0.70766719621E+03  0.00000000000E+00 0.  1.
         -3    1    6    6    0  503 -0.43809540499E+03  0.16119322559E+03 -0.86745777075E+03  0.98508569368E+03  0.00000000000E+00 0.  1.
<mgrwt>
<rscale>  0 0.15331668E+04</rscale>
<asrwt>0</asrwt>
<pdfrwt beam="1">  1        2 0.53614529E+00 0.15331668E+04</pdfrwt>
<pdfrwt beam="2">  1       -2 0.25942366E-01 0.15331668E+04</pdfrwt>
<totfact> 0.10908437E+01</totfact>
</mgrwt>
</event>
<event>
12    1  0.4820219E-008  0.1664909E+04  0.7818608E-02  0.8781635E-01
          2   -1    0    0  501    0  0.00000000000E+00  0.00000000000E+00  0.11988148503E+04  0.11988148503E+04  0.00000000000E+00 0. -1.
         -2   -1    0    0    0  501 -0.00000000000E+00 -0.00000000000E+00 -0.57805475732E+03  0.57805475732E+03  0.00000000000E+00 0.  1.
         23    2    1    2    0    0 -0.44939072065E+01 -0.25214197154E+03  0.78603916783E+03  0.83038412802E+03  0.89913612390E+02 0.  0.
        254    2    1    2    0    0  0.44939072065E+01  0.25214197154E+03 -0.16527907483E+03  0.94648547962E+03  0.89717435403E+03 0.  0.
         23    2    4    4    0    0 -0.42208162969E+03  0.17513291086E+03  0.18556969859E+02  0.46693695487E+03  0.94134585080E+02 0.  0.
         23    2    4    4    0    0  0.42657553689E+03  0.77009060689E+02 -0.18383604469E+03  0.47954852475E+03  0.90961597153E+02 0.  0.
         11    1    3    3    0    0 -0.21631674787E+01 -0.24632977366E+02  0.20338998200E+03  0.20488764640E+03  0.00000000000E+00 0.  1.
        -11    1    3    3    0    0 -0.23307397278E+01 -0.22750899418E+03  0.58264918582E+03  0.62549648162E+03  0.00000000000E+00 0. -1.
          4    1    5    5  502    0 -0.19301752814E+03  0.12195963127E+03  0.35981179194E+02  0.23113754149E+03  0.00000000000E+00 0. -1.
          3    1    6    6  503    0  0.75855366761E+02 -0.20524540442E+02 -0.39461075404E+02  0.87934463658E+02  0.00000000000E+00 0. -1.
         -4    1    5    5    0  502 -0.22906410155E+03  0.53173279581E+02 -0.17424209334E+02  0.23579941338E+03  0.00000000000E+00 0.  1.
         -3    1    6    6    0  503  0.35072017013E+03  0.97533601130E+02 -0.14437496929E+03  0.39161406109E+03  0.00000000000E+00 0.  1.
<mgrwt>
<rscale>  0 0.16649092E+04</rscale>
<asrwt>0</asrwt>
<pdfrwt beam="1">  1        2 0.18443305E+00 0.16649092E+04</pdfrwt>
<pdfrwt beam="2">  1       -2 0.88931502E-01 0.16649092E+04</pdfrwt>
<totfact> 0.19667780E+01</totfact>
</mgrwt>
</event>
<event>
12    1  0.4820219E-008  0.2102617E+04  0.7818608E-02  0.8560091E-01
         -1   -1    0    0    0  501 -0.00000000000E+00  0.00000000000E+00  0.13047640184E+04  0.13047640184E+04  0.00000000000E+00 0.  1.
          1   -1    0    0  501    0  0.00000000000E+00 -0.00000000000E+00 -0.84708780612E+03  0.84708780612E+03  0.00000000000E+00 0. -1.
         23    2    1    2    0    0 -0.54241081933E+03  0.27933824699E+03 -0.42415397160E+03  0.74848566828E+03  0.89915798637E+02 0.  0.
        254    2    1    2    0    0  0.54241081933E+03 -0.27933824699E+03  0.88183018392E+03  0.14033661563E+04  0.90530256938E+03 0.  0.
         23    2    4    4    0    0  0.37282515154E+03  0.29321979726E+03  0.32796866865E+03  0.58377301549E+03  0.90835251287E+02 0.  0.
         23    2    4    4    0    0  0.16958566779E+03 -0.57255804425E+03  0.55386151527E+03  0.81959314078E+03  0.91587802447E+02 0.  0.
         11    1    3    3    0    0 -0.15943016613E+03  0.58184183048E+02 -0.16062349940E+03  0.23367345931E+03  0.00000000000E+00 0.  1.
        -11    1    3    3    0    0 -0.38298065321E+03  0.22115406394E+03 -0.26353047220E+03  0.51481220897E+03  0.00000000000E+00 0. -1.
          4    1    5    5  502    0  0.11178783588E+01  0.89488397207E+01  0.24321860866E+02  0.25940013500E+02  0.00000000000E+00 0. -1.
          3    1    6    6  503    0  0.10205949579E+03 -0.19449671488E+03  0.18665437238E+03  0.28824463137E+03  0.00000000000E+00 0. -1.
         -4    1    5    5    0  502  0.37170727318E+03  0.28427095754E+03  0.30364680778E+03  0.55783300199E+03  0.00000000000E+00 0.  1.
         -3    1    6    6    0  503  0.67526172002E+02 -0.37806132936E+03  0.36720714289E+03  0.53134850941E+03  0.00000000000E+00 0.  1.
<mgrwt>
<rscale>  0 0.21026171E+04</rscale>
<asrwt>0</asrwt>
<pdfrwt beam="1">  1        1 0.13032120E+00 0.21026171E+04</pdfrwt>
<pdfrwt beam="2">  1       -1 0.20073293E+00 0.21026171E+04</pdfrwt>
<totfact> 0.27547903E+00</totfact>
</mgrwt>
</event>
<event>
12    1  0.4820219E-008  0.2669585E+04  0.7818608E-02  0.8344942E-01
          2   -1    0    0  501    0  0.00000000000E+00  0.00000000000E+00  0.27172125399E+04  0.27172125399E+04  0.00000000000E+00 0. -1.
         -2   -1    0    0    0  501 -0.00000000000E+00 -0.00000000000E+00 -0.65569795607E+03  0.65569795607E+03  0.00000000000E+00 0.  1.
         23    2    1    2    0    0 -0.95477402182E+03  0.96209699617E+02  0.44684077216E+02  0.96501219968E+03  0.91663186341E+02 0.  0.
        254    2    1    2    0    0  0.95477402182E+03 -0.96209699617E+02  0.20168305066E+04  0.24078982963E+04  0.89973283467E+03 0.  0.
         23    2    4    4    0    0  0.81958776937E+03  0.98401249350E+02  0.19817011939E+04  0.21485825695E+04  0.88659564640E+02 0.  0.
         23    2    4    4    0    0  0.13518625245E+03 -0.19461094897E+03  0.35129312659E+02  0.25931572675E+03  0.99306763236E+02 0.  0.
         13    1    3    3    0    0 -0.91845987280E+03  0.92141173697E+02  0.60809525829E+02  0.92507098769E+03  0.00000000000E+00 0.  1.
        -13    1    3    3    0    0 -0.36314149022E+02  0.40685259198E+01 -0.16125448613E+02  0.39941211991E+02  0.00000000000E+00 0. -1.
          4    1    5    5  502    0  0.22036907262E+03  0.46905383270E+02  0.45614237638E+03  0.50875191467E+03  0.00000000000E+00 0. -1.
          3    1    6    6  503    0 -0.85986833896E+00 -0.56918257638E+00  0.21942290966E+02  0.21966508034E+02  0.00000000000E+00 0. -1.
         -4    1    5    5    0  502  0.59921869674E+03  0.51495866080E+02  0.15255588175E+04  0.16398306548E+04  0.00000000000E+00 0.  1.
         -3    1    6    6    0  503  0.13604612079E+03 -0.19404176639E+03  0.13187021694E+02  0.23734921872E+03  0.00000000000E+00 0.  1.
<mgrwt>
<rscale>  0 0.26695848E+04</rscale>
<asrwt>0</asrwt>
<pdfrwt beam="1">  1        2 0.41803269E+00 0.26695848E+04</pdfrwt>
<pdfrwt beam="2">  1       -2 0.10087661E+00 0.26695848E+04</pdfrwt>
<totfact> 0.18447949E+00</totfact>
</mgrwt>
</event>
<event>
12    1  0.4820219E-008  0.1441851E+04  0.7818608E-02  0.8924069E-01
          2   -1    0    0  501    0  0.00000000000E+00  0.00000000000E+00  0.73609550611E+03  0.73609550611E+03  0.00000000000E+00 0. -1.
         -2   -1    0    0    0  501 -0.00000000000E+00 -0.00000000000E+00 -0.70606859581E+03  0.70606859581E+03  0.00000000000E+00 0.  1.
         23    2    1    2    0    0 -0.20940214950E+03 -0.37135470293E+02 -0.36597636445E+03  0.43299483565E+03  0.91200466009E+02 0.  0.
        254    2    1    2    0    0  0.20940214950E+03  0.37135470293E+02  0.39600327475E+03  0.10091692663E+04  0.90353511885E+03 0.  0.
         23    2    4    4    0    0  0.38751468013E+02 -0.19037105812E+03  0.60847606716E+03  0.64535164865E+03  0.92156443443E+02 0.  0.
         23    2    4    4    0    0  0.17065068148E+03  0.22750652841E+03 -0.21247279242E+03  0.36381761761E+03  0.79609646445E+02 0.  0.
         13    1    3    3    0    0 -0.87779562751E+02 -0.12671491668E+01 -0.23422757365E+03  0.25013878860E+03  0.00000000000E+00 0.  1.
        -13    1    3    3    0    0 -0.12162258675E+03 -0.35868321127E+02 -0.13174879079E+03  0.18285604705E+03  0.00000000000E+00 0. -1.
          4    1    5    5  502    0  0.10062256585E+02  0.75609726550E+01  0.18320135342E+02  0.22227115738E+02  0.00000000000E+00 0. -1.
          1    1    6    6  503    0  0.56786468555E+02  0.23461527450E+02 -0.50039289624E+02  0.79240625864E+02  0.00000000000E+00 0. -1.
         -4    1    5    5    0  502  0.28689211428E+02 -0.19793203077E+03  0.59015593182E+03  0.62312453292E+03  0.00000000000E+00 0.  1.
         -1    1    6    6    0  503  0.11386421293E+03  0.20404500096E+03 -0.16243350279E+03  0.28457699175E+03  0.00000000000E+00 0.  1.
<mgrwt>
<rscale>  0 0.14418515E+04</rscale>
<asrwt>0</asrwt>
<pdfrwt beam="1">  1        2 0.11324546E+00 0.14418515E+04</pdfrwt>
<pdfrwt beam="2">  1       -2 0.10862594E+00 0.14418515E+04</pdfrwt>
<totfact> 0.25253721E+01</totfact>
</mgrwt>
</event>
<event>
12    1  0.4820219E-008  0.1878420E+04  0.7818608E-02  0.8665673E-01
         -2   -1    0    0    0  501 -0.00000000000E+00  0.00000000000E+00  0.33610237952E+03  0.33610237952E+03  0.00000000000E+00 0.  1.
          2   -1    0    0  501    0  0.00000000000E+00 -0.00000000000E+00 -0.26245430862E+04  0.26245430862E+04  0.00000000000E+00 0. -1.
         23    2    1    2    0    0  0.88220816735E+02  0.35728620848E+03 -0.18398766149E+04  0.18798008856E+04  0.11432000752E+03 0.  0.
        254    2    1    2    0    0 -0.88220816735E+02 -0.35728620848E+03 -0.44856409182E+03  0.10808445802E+04  0.91190948824E+03 0.  0.
         23    2    4    4    0    0 -0.38230712139E+03 -0.42074667289E+03 -0.56611168352E+02  0.57844478797E+03  0.90592773039E+02 0.  0.
         23    2    4    4    0    0  0.29408630466E+03  0.63460464415E+02 -0.39195292347E+03  0.50239979220E+03  0.90909140696E+02 0.  0.
         11    1    3    3    0    0  0.81244652886E+02  0.30986713592E+03 -0.17371964930E+04  0.17664852083E+04  0.00000000000E+00 0. -1.
        -11    1    3    3    0    0  0.69761638489E+01  0.47419072554E+02 -0.10268012185E+03  0.11331567733E+03  0.00000000000E+00 0.  1.
          4    1    5    5  502    0 -0.24361802843E+02 -0.21217258078E+01 -0.69290835279E+01  0.25416753465E+02  0.00000000000E+00 0. -1.
          4    1    6    6  503    0  0.28960774773E+03  0.74090834565E+02 -0.35720368497E+03  0.46578597216E+03  0.00000000000E+00 0.  1.
         -4    1    5    5    0  502 -0.35794531855E+03 -0.41862494708E+03 -0.49682084824E+02  0.55302803450E+03  0.00000000000E+00 0.  1.
         -4    1    6    6    0  503  0.44785569298E+01 -0.10630370150E+02 -0.34749238498E+02  0.36613820040E+02  0.00000000000E+00 0. -1.
<mgrwt>
<rscale>  0 0.18784197E+04</rscale>
<asrwt>0</asrwt>
<pdfrwt beam="1">  1        2 0.40377588E+00 0.18784197E+04</pdfrwt>
<pdfrwt beam="2">  1       -2 0.51708056E-01 0.18784197E+04</pdfrwt>
<totfact> 0.97685852E+00</totfact>
</mgrwt>
</event>
<event>
12    1  0.4820219E-008  0.1455438E+04  0.7818608E-02  0.8914639E-01
         -1   -1    0    0    0  501 -0.00000000000E+00  0.00000000000E+00  0.63384837432E+03  0.63384837432E+03  0.00000000000E+00 0.  1.
          1   -1    0    0  501    0  0.00000000000E+00 -0.00000000000E+00 -0.83549166913E+03  0.83549166913E+03  0.00000000000E+00 0. -1.
         23    2    1    2    0    0  0.18689806250E+03  0.31409205114E+03 -0.30119198600E+03  0.48808035433E+03  0.11798778538E+03 0.  0.
        254    2    1    2    0    0 -0.18689806250E+03 -0.31409205114E+03  0.99548691184E+02  0.98125968912E+03  0.90519386499E+03 0.  0.
         23    2    4    4    0    0 -0.89493867753E+00  0.95105900727E+02  0.40702604229E+03  0.42940794064E+03  0.98361817369E+02 0.  0.
         23    2    4    4    0    0 -0.18600312382E+03 -0.40919795187E+03 -0.30747735111E+03  0.55185174847E+03  0.89207090341E+02 0.  0.
         11    1    3    3    0    0  0.16266698586E+03  0.17173270276E+03 -0.21654276158E+03  0.32069212194E+03  0.00000000000E+00 0. -1.
        -11    1    3    3    0    0  0.24231076639E+02  0.14235934839E+03 -0.84649224422E+02  0.16738823239E+03  0.00000000000E+00 0.  1.
          3    1    5    5  502    0  0.44373336701E+02  0.21268001486E+02  0.17331200365E+03  0.18016207011E+03  0.00000000000E+00 0. -1.
          3    1    6    6  503    0 -0.13615294448E+03 -0.21707600532E+03 -0.13905574895E+03  0.29154093656E+03  0.00000000000E+00 0. -1.
         -3    1    5    5    0  502 -0.45268275378E+02  0.73837899241E+02  0.23371403864E+03  0.24924587053E+03  0.00000000000E+00 0.  1.
         -3    1    6    6    0  503 -0.49850179342E+02 -0.19212194655E+03 -0.16842160215E+03  0.26031081191E+03  0.00000000000E+00 0.  1.
<mgrwt>
<rscale>  0 0.14554381E+04</rscale>
<asrwt>0</asrwt>
<pdfrwt beam="1">  1        1 0.12853718E+00 0.14554381E+04</pdfrwt>
<pdfrwt beam="2">  1       -1 0.97515134E-01 0.14554381E+04</pdfrwt>
<totfact> 0.20197684E+01</totfact>
</mgrwt>
</event>
<event>
12    1  0.4820219E-008  0.1478010E+04  0.7818608E-02  0.8899209E-01
          1   -1    0    0  501    0  0.00000000000E+00  0.00000000000E+00  0.20887643918E+04  0.20887643918E+04  0.00000000000E+00 0. -1.
         -1   -1    0    0    0  501 -0.00000000000E+00 -0.00000000000E+00 -0.26145989315E+03  0.26145989315E+03  0.00000000000E+00 0.  1.
         23    2    1    2    0    0 -0.25265907472E+03 -0.13899477277E+03  0.62638682329E+00  0.30218541905E+03  0.90329841300E+02 0.  0.
        254    2    1    2    0    0  0.25265907472E+03  0.13899477277E+03  0.18266781118E+04  0.20480388659E+04  0.88008756219E+03 0.  0.
         23    2    4    4    0    0  0.54416101449E+03  0.11951467456E+02  0.14213080242E+04  0.15246730880E+04  0.90870668870E+02 0.  0.
         23    2    4    4    0    0 -0.29150193977E+03  0.12704330531E+03  0.40537008766E+03  0.52336577790E+03  0.92051329104E+02 0.  0.
         11    1    3    3    0    0 -0.15802028866E+02 -0.35154586975E+02 -0.18710007426E+02  0.42844060026E+02  0.00000000000E+00 0. -1.
        -11    1    3    3    0    0 -0.23685704586E+03 -0.10384018579E+03  0.19336394249E+02  0.25934135902E+03  0.00000000000E+00 0.  1.
          4    1    5    5  502    0  0.42853722371E+03  0.26404587463E+02  0.10171841610E+04  0.11040855817E+04  0.00000000000E+00 0. -1.
          3    1    6    6  503    0 -0.22519222938E+03  0.13563456142E+03  0.34083658164E+03  0.43043913601E+03  0.00000000000E+00 0. -1.
         -4    1    5    5    0  502  0.11562379078E+03 -0.14453120007E+02  0.40412386319E+03  0.42058750632E+03  0.00000000000E+00 0.  1.
         -3    1    6    6    0  503 -0.66309710387E+02 -0.85912561065E+01  0.64533506027E+02  0.92926641891E+02  0.00000000000E+00 0.  1.
<mgrwt>
<rscale>  0 0.14780096E+04</rscale>
<asrwt>0</asrwt>
<pdfrwt beam="1">  1        1 0.32134836E+00 0.14780096E+04</pdfrwt>
<pdfrwt beam="2">  1       -1 0.40224600E-01 0.14780096E+04</pdfrwt>
<totfact> 0.15167333E+01</totfact>
</mgrwt>
</event>
<event>
12    1  0.4820219E-008  0.1666491E+04  0.7818608E-02  0.8780710E-01
         -1   -1    0    0    0  501 -0.00000000000E+00  0.00000000000E+00  0.53701319425E+03  0.53701319425E+03  0.00000000000E+00 0.  1.
          1   -1    0    0  501    0  0.00000000000E+00 -0.00000000000E+00 -0.12928881453E+04  0.12928881453E+04  0.00000000000E+00 0. -1.
         23    2    1    2    0    0 -0.30000166755E+03 -0.74353337525E+00 -0.82256540551E+03  0.88017557920E+03  0.89964718093E+02 0.  0.
        254    2    1    2    0    0  0.30000166755E+03  0.74353337525E+00  0.66690454419E+02  0.94972576039E+03  0.89862664653E+03 0.  0.
         23    2    4    4    0    0  0.25685048002E+03 -0.21836737232E+03  0.40479034556E+03  0.53429666967E+03  0.89225719225E+02 0.  0.
         23    2    4    4    0    0  0.43151187530E+02  0.21911090570E+03 -0.33809989114E+03  0.41542909072E+03  0.91641579247E+02 0.  0.
         13    1    3    3    0    0 -0.25220299316E+03 -0.32890064028E+02 -0.63790420756E+03  0.68673858497E+03  0.00000000000E+00 0. -1.
        -13    1    3    3    0    0 -0.47798674399E+02  0.32146530653E+02 -0.18466119795E+03  0.19343699423E+03  0.00000000000E+00 0.  1.
          3    1    5    5  502    0  0.15945276221E+03 -0.77447196277E+02  0.21414373565E+03  0.27799422855E+03  0.00000000000E+00 0. -1.
          3    1    6    6  503    0 -0.20597453133E+02  0.11042910786E+03 -0.19251324361E+03  0.22289053794E+03  0.00000000000E+00 0. -1.
         -3    1    5    5    0  502  0.97397717818E+02 -0.14092017605E+03  0.19064660991E+03  0.25630244112E+03  0.00000000000E+00 0.  1.
         -3    1    6    6    0  503  0.63748640662E+02  0.10868179784E+03 -0.14558664754E+03  0.19253855278E+03  0.00000000000E+00 0.  1.
<mgrwt>
<rscale>  0 0.16664909E+04</rscale>
<asrwt>0</asrwt>
<pdfrwt beam="1">  1        1 0.19890587E+00 0.16664909E+04</pdfrwt>
<pdfrwt beam="2">  1       -1 0.82617414E-01 0.16664909E+04</pdfrwt>
<totfact> 0.12716301E+01</totfact>
</mgrwt>
</event>
<event>
12    1  0.4820219E-008  0.1534472E+04  0.7818608E-02  0.8861848E-01
          1   -1    0    0  501    0  0.00000000000E+00  0.00000000000E+00  0.77471805952E+03  0.77471805952E+03  0.00000000000E+00 0. -1.
         -1   -1    0    0    0  501 -0.00000000000E+00 -0.00000000000E+00 -0.75982599624E+03  0.75982599624E+03  0.00000000000E+00 0.  1.
         23    2    1    2    0    0 -0.19413722900E+03 -0.28141602770E+03 -0.36016425785E+03  0.50457200694E+03  0.89388887584E+02 0.  0.
        254    2    1    2    0    0  0.19413722900E+03  0.28141602770E+03  0.37505632112E+03  0.10299720488E+04  0.89626499039E+03 0.  0.
         23    2    4    4    0    0  0.31205247033E+03  0.53806802361E+03  0.37853790144E+03  0.73314061953E+03  0.85500192442E+02 0.  0.
         23    2    4    4    0    0 -0.11791524133E+03 -0.25665199591E+03 -0.34815803179E+01  0.29683142929E+03  0.91227873301E+02 0.  0.
         13    1    3    3    0    0 -0.10625818375E+03 -0.11558776927E+03 -0.22024633801E+03  0.27048065259E+03  0.00000000000E+00 0.  1.
        -13    1    3    3    0    0 -0.87879045242E+02 -0.16582825844E+03 -0.13991791984E+03  0.23409135435E+03  0.00000000000E+00 0. -1.
          4    1    5    5  502    0  0.57767927635E+02  0.92506435737E+02  0.30632039016E+02  0.11328237255E+03  0.00000000000E+00 0. -1.
          1    1    6    6  503    0 -0.69038288716E+02 -0.19659734538E+03 -0.38426250981E+02  0.21188057552E+03  0.00000000000E+00 0. -1.
         -4    1    5    5    0  502  0.25428454269E+03  0.44556158788E+03  0.34790586243E+03  0.61985824698E+03  0.00000000000E+00 0.  1.
         -1    1    6    6    0  503 -0.48876952615E+02 -0.60054650530E+02  0.34944670663E+02  0.84950853763E+02  0.00000000000E+00 0.  1.
<mgrwt>
<rscale>  0 0.15344718E+04</rscale>
<asrwt>0</asrwt>
<pdfrwt beam="1">  1        1 0.11918739E+00 0.15344718E+04</pdfrwt>
<pdfrwt beam="2">  1       -1 0.11689631E+00 0.15344718E+04</pdfrwt>
<totfact> 0.14819409E+01</totfact>
</mgrwt>
</event>
<event>
12    1  0.4820219E-008  0.3510401E+04  0.7818608E-02  0.8111330E-01
          2   -1    0    0  501    0  0.00000000000E+00  0.00000000000E+00  0.30794701851E+04  0.30794701851E+04  0.00000000000E+00 0.  1.
         -2   -1    0    0    0  501 -0.00000000000E+00 -0.00000000000E+00 -0.10004086098E+04  0.10004086098E+04  0.00000000000E+00 0. -1.
         23    2    1    2    0    0  0.16160651966E+03  0.58070780569E+03 -0.79775522330E+03  0.10047091090E+04  0.98431573178E+02 0.  0.
        254    2    1    2    0    0 -0.16160651966E+03 -0.58070780569E+03  0.28768167986E+04  0.30751696859E+04  0.90402183693E+03 0.  0.
         23    2    4    4    0    0  0.26762551912E+03 -0.43728551914E+02  0.15711156842E+04  0.15968910234E+04  0.90115719608E+02 0.  0.
         23    2    4    4    0    0 -0.42923203878E+03 -0.53697925377E+03  0.13057011144E+04  0.14782786625E+04  0.88687888832E+02 0.  0.
         13    1    3    3    0    0  0.22847305190E+02  0.21114394487E+03 -0.22829853421E+03  0.31180760980E+03  0.00000000000E+00 0.  1.
        -13    1    3    3    0    0  0.13875921447E+03  0.36956386082E+03 -0.56945668908E+03  0.69290149918E+03  0.00000000000E+00 0. -1.
          1    1    5    5  502    0  0.26454793830E+03 -0.44736429607E+02  0.13850859666E+04  0.14108331207E+04  0.00000000000E+00 0. -1.
          3    1    6    6  503    0 -0.35569830549E+03 -0.39572053778E+03  0.95811631908E+03  0.10959484064E+04  0.00000000000E+00 0. -1.
         -1    1    5    5    0  502  0.30775808196E+01  0.10078776937E+01  0.18602971762E+03  0.18605790271E+03  0.00000000000E+00 0.  1.
         -3    1    6    6    0  503 -0.73533733294E+02 -0.14125871599E+03  0.34758479536E+03  0.38233025612E+03  0.00000000000E+00 0.  1.
<mgrwt>
<rscale>  0 0.35104008E+04</rscale>
<asrwt>0</asrwt>
<pdfrwt beam="1">  1        2 0.47376464E+00 0.35104008E+04</pdfrwt>
<pdfrwt beam="2">  1       -2 0.15390902E+00 0.35104008E+04</pdfrwt>
<totfact> 0.35594715E-01</totfact>
</mgrwt>
</event>
<event>
12    1  0.4820219E-008  0.2006349E+04  0.7818608E-02  0.8603658E-01
          2   -1    0    0  501    0  0.00000000000E+00  0.00000000000E+00  0.99676017944E+03  0.99676017944E+03  0.00000000000E+00 0. -1.
         -2   -1    0    0    0  501 -0.00000000000E+00 -0.00000000000E+00 -0.10096302706E+04  0.10096302706E+04  0.00000000000E+00 0.  1.
         23    2    1    2    0    0  0.55141397366E+02  0.18729593491E+02  0.79347976242E+03  0.80108372483E+03  0.93453889425E+02 0.  0.
        254    2    1    2    0    0 -0.55141397366E+02 -0.18729593491E+02 -0.80634985354E+03  0.12053067252E+04  0.89396467719E+03 0.  0.
         23    2    4    4    0    0  0.34799607626E+03 -0.12030766452E+03 -0.12086864470E+03  0.39837844816E+03  0.92309021540E+02 0.  0.
         23    2    4    4    0    0 -0.40313747362E+03  0.10157807103E+03 -0.68548120885E+03  0.80692827701E+03  0.91710574139E+02 0.  0.
         13    1    3    3    0    0  0.77569909018E+02  0.30785457235E+02  0.55339984498E+03  0.55965723759E+03  0.00000000000E+00 0. -1.
        -13    1    3    3    0    0 -0.22428511652E+02 -0.12055863744E+02  0.24007991744E+03  0.24142648724E+03  0.00000000000E+00 0.  1.
          2    1    5    5  502    0  0.57332161117E+02 -0.44962196793E+02  0.44730404209E+01  0.72997150146E+02  0.00000000000E+00 0. -1.
          4    1    6    6  503    0 -0.65553275675E+02  0.34980739569E+02 -0.18699623477E+03  0.20121748411E+03  0.00000000000E+00 0. -1.
         -2    1    5    5    0  502  0.29066391514E+03 -0.75345467725E+02 -0.12534168512E+03  0.32538129802E+03  0.00000000000E+00 0.  1.
         -4    1    6    6    0  503 -0.33758419795E+03  0.66597331458E+02 -0.49848497407E+03  0.60571079290E+03  0.00000000000E+00 0.  1.
<mgrwt>
<rscale>  0 0.20063492E+04</rscale>
<asrwt>0</asrwt>
<pdfrwt beam="1">  1        2 0.15334772E+00 0.20063492E+04</pdfrwt>
<pdfrwt beam="2">  1       -2 0.15532773E+00 0.20063492E+04</pdfrwt>
<totfact> 0.64144780E+00</totfact>
</mgrwt>
</event>
<event>
12    1  0.4820219E-008  0.1315240E+04  0.7818608E-02  0.9017566E-01
         -2   -1    0    0    0  501 -0.00000000000E+00  0.00000000000E+00  0.10322832702E+04  0.10322832702E+04  0.00000000000E+00 0.  1.
          2   -1    0    0  501    0  0.00000000000E+00 -0.00000000000E+00 -0.41893945668E+03  0.41893945668E+03  0.00000000000E+00 0. -1.
         23    2    1    2    0    0 -0.23972309789E+03 -0.37754354242E+02  0.43830302902E+03  0.50924937392E+03  0.91284306792E+02 0.  0.
        254    2    1    2    0    0  0.23972309789E+03  0.37754354242E+02  0.17504078451E+03  0.94197335296E+03  0.89318641196E+03 0.  0.
         23    2    4    4    0    0 -0.13632165652E+03  0.35676245386E+03  0.20107818305E+03  0.44137984806E+03  0.92307594791E+02 0.  0.
         23    2    4    4    0    0  0.37604475441E+03 -0.31900809962E+03 -0.26037398538E+02  0.50059350489E+03  0.82098027208E+02 0.  0.
         11    1    3    3    0    0 -0.19272694392E+03 -0.64413690337E+02  0.31816618656E+03  0.37752154996E+03  0.00000000000E+00 0.  1.
        -11    1    3    3    0    0 -0.46996153967E+02  0.26659336096E+02  0.12013684246E+03  0.13172782396E+03  0.00000000000E+00 0. -1.
          1    1    5    5  502    0 -0.63426137687E+02  0.25638936554E+03  0.16790518167E+03  0.31297049658E+03  0.00000000000E+00 0. -1.
          1    1    6    6  503    0  0.13755002611E+03 -0.16668055086E+03 -0.25466836370E+02  0.21760279289E+03  0.00000000000E+00 0. -1.
         -1    1    5    5    0  502 -0.72895518838E+02  0.10037308833E+03  0.33173001379E+02  0.12840935148E+03  0.00000000000E+00 0.  1.
         -1    1    6    6    0  503  0.23849472830E+03 -0.15232754877E+03 -0.57056216798E+00  0.28299071201E+03  0.00000000000E+00 0.  1.
<mgrwt>
<rscale>  0 0.13152402E+04</rscale>
<asrwt>0</asrwt>
<pdfrwt beam="1">  1        2 0.64452225E-01 0.13152402E+04</pdfrwt>
<pdfrwt beam="2">  1       -2 0.15881281E+00 0.13152402E+04</pdfrwt>
<totfact> 0.18971145E+01</totfact>
</mgrwt>
</event>
<event>
12    1  0.4820219E-008  0.1448616E+04  0.7818608E-02  0.8919361E-01
          2   -1    0    0  501    0  0.00000000000E+00  0.00000000000E+00  0.19115600908E+04  0.19115600908E+04  0.00000000000E+00 0. -1.
         -2   -1    0    0    0  501 -0.00000000000E+00 -0.00000000000E+00 -0.27444706422E+03  0.27444706422E+03  0.00000000000E+00 0.  1.
         23    2    1    2    0    0 -0.37419501253E+03  0.21368334209E+03  0.35086198868E+03  0.56319301074E+03  0.91650172731E+02 0.  0.
        254    2    1    2    0    0  0.37419501253E+03 -0.21368334209E+03  0.12862510379E+04  0.16228141443E+04  0.89073090004E+03 0.  0.
         23    2    4    4    0    0  0.21648525773E+03 -0.55497434827E+03  0.78223879502E+03  0.98747012778E+03  0.91308963224E+02 0.  0.
         23    2    4    4    0    0  0.15770975480E+03  0.34129100619E+03  0.50401224288E+03  0.63534401650E+03  0.91004179394E+02 0.  0.
         11    1    3    3    0    0 -0.11332233046E+03  0.66443392211E+02  0.55807891181E+02  0.14272769762E+03  0.00000000000E+00 0.  1.
        -11    1    3    3    0    0 -0.26087268206E+03  0.14723994988E+03  0.29505409750E+03  0.42046531312E+03  0.00000000000E+00 0. -1.
          4    1    5    5  502    0  0.17876450528E+03 -0.46035560154E+03  0.58577156368E+03  0.76616731399E+03  0.00000000000E+00 0.  1.
          3    1    6    6  503    0 -0.10329881979E+02  0.71719874422E+01  0.20806191168E+02  0.24311344193E+02  0.00000000000E+00 0. -1.
         -4    1    5    5    0  502  0.37720752448E+02 -0.94618746737E+02  0.19646723134E+03  0.22130281378E+03  0.00000000000E+00 0. -1.
         -3    1    6    6    0  503  0.16803963678E+03  0.33411901875E+03  0.48320605171E+03  0.61103267231E+03  0.00000000000E+00 0.  1.
<mgrwt>
<rscale>  0 0.14486160E+04</rscale>
<asrwt>0</asrwt>
<pdfrwt beam="1">  1        2 0.29408616E+00 0.14486160E+04</pdfrwt>
<pdfrwt beam="2">  1       -2 0.42222627E-01 0.14486160E+04</pdfrwt>
<totfact> 0.38589813E+01</totfact>
</mgrwt>
</event>
<event>
12    1  0.4820219E-008  0.1546511E+04  0.7818608E-02  0.8854099E-01
          2   -1    0    0  501    0  0.00000000000E+00  0.00000000000E+00  0.23457000095E+04  0.23457000095E+04  0.00000000000E+00 0. -1.
         -2   -1    0    0    0  501 -0.00000000000E+00 -0.00000000000E+00 -0.25490222141E+03  0.25490222141E+03  0.00000000000E+00 0.  1.
         23    2    1    2    0    0  0.50395864735E+03  0.73309609851E+01  0.74786311573E+03  0.90500978357E+03  0.75600312699E+02 0.  0.
        254    2    1    2    0    0 -0.50395864735E+03 -0.73309609851E+01  0.13429346724E+04  0.16955924474E+04  0.90417484595E+03 0.  0.
         23    2    4    4    0    0 -0.20827528371E+03  0.39247692462E+02  0.13630293048E+04  0.13824596936E+04  0.91798385220E+02 0.  0.
         23    2    4    4    0    0 -0.29568336364E+03 -0.46578653447E+02 -0.20094632382E+02  0.31313275379E+03  0.89722376014E+02 0.  0.
         11    1    3    3    0    0  0.35643056151E+03  0.35559611796E+02  0.49729788568E+03  0.61287226913E+03  0.00000000000E+00 0. -1.
        -11    1    3    3    0    0  0.14752808583E+03 -0.28228650811E+02  0.25056523005E+03  0.29213751444E+03  0.00000000000E+00 0.  1.
          1    1    5    5  502    0 -0.21030278412E+03  0.19618019359E+02  0.12417295422E+04  0.12595651565E+04  0.00000000000E+00 0. -1.
          3    1    6    6  503    0 -0.14840303217E+03 -0.15934616522E+02 -0.54356632068E+02  0.15884588572E+03  0.00000000000E+00 0. -1.
         -1    1    5    5    0  502  0.20275004139E+01  0.19629673102E+02  0.12129976262E+03  0.12289453704E+03  0.00000000000E+00 0.  1.
         -3    1    6    6    0  503 -0.14728033147E+03 -0.30644036925E+02  0.34261999687E+02  0.15428686807E+03  0.00000000000E+00 0.  1.
<mgrwt>
<rscale>  0 0.15465111E+04</rscale>
<asrwt>0</asrwt>
<pdfrwt beam="1">  1        2 0.36087691E+00 0.15465111E+04</pdfrwt>
<pdfrwt beam="2">  1       -2 0.39215728E-01 0.15465111E+04</pdfrwt>
<totfact> 0.25316696E+01</totfact>
</mgrwt>
</event>
<event>
12    1  0.4820219E-008  0.1326847E+04  0.7818608E-02  0.9008542E-01
         -2   -1    0    0    0  501 -0.00000000000E+00  0.00000000000E+00  0.15684289311E+04  0.15684289311E+04  0.00000000000E+00 0.  1.
          2   -1    0    0  501    0  0.00000000000E+00 -0.00000000000E+00 -0.28061889959E+03  0.28061889959E+03  0.00000000000E+00 0. -1.
         23    2    1    2    0    0 -0.85235890184E+02  0.10186259227E+03 -0.10080583577E+03  0.19033656854E+03  0.91788060868E+02 0.  0.
        254    2    1    2    0    0  0.85235890184E+02 -0.10186259227E+03  0.13886158672E+04  0.16587112621E+04  0.89745633854E+03 0.  0.
         23    2    4    4    0    0  0.14384537564E+03 -0.29586996719E+03  0.10764161245E+03  0.35832079783E+03  0.92609653114E+02 0.  0.
         23    2    4    4    0    0 -0.58609485455E+02  0.19400737493E+03  0.12809742548E+04  0.13003904643E+04  0.95112484987E+02 0.  0.
         11    1    3    3    0    0 -0.88586438696E+02  0.42633150568E+02 -0.42329976454E+02  0.10703723443E+03  0.00000000000E+00 0.  1.
        -11    1    3    3    0    0  0.33505485119E+01  0.59229441699E+02 -0.58475859321E+02  0.83299334106E+02  0.00000000000E+00 0. -1.
          1    1    5    5  502    0  0.85749601104E+02 -0.25887469575E+03  0.81126333836E+02  0.28451816151E+03  0.00000000000E+00 0. -1.
          1    1    6    6  503    0  0.13906534511E+02  0.72240191579E+02  0.62283135827E+03  0.62716101427E+03  0.00000000000E+00 0. -1.
         -1    1    5    5    0  502  0.58095774535E+02 -0.36995271445E+02  0.26515278613E+02  0.73802636322E+02  0.00000000000E+00 0.  1.
         -1    1    6    6    0  503 -0.72516019966E+02  0.12176718335E+03  0.65814289653E+03  0.67322945000E+03  0.00000000000E+00 0.  1.
<mgrwt>
<rscale>  0 0.13268471E+04</rscale>
<asrwt>0</asrwt>
<pdfrwt beam="1">  1        2 0.43172139E-01 0.13268471E+04</pdfrwt>
<pdfrwt beam="2">  1       -2 0.24129675E+00 0.13268471E+04</pdfrwt>
<totfact> 0.84240053E+00</totfact>
</mgrwt>
</event>
<event>
12    1  0.4820219E-008  0.2027583E+04  0.7818608E-02  0.8593832E-01
         -1   -1    0    0    0  501 -0.00000000000E+00  0.00000000000E+00  0.13541000803E+04  0.13541000803E+04  0.00000000000E+00 0.  1.
          1   -1    0    0  501    0  0.00000000000E+00 -0.00000000000E+00 -0.75900838145E+03  0.75900838145E+03  0.00000000000E+00 0. -1.
         23    2    1    2    0    0  0.74172069108E+03 -0.33852598208E+03  0.38968406635E+03  0.90837738750E+03  0.92446646407E+02 0.  0.
        254    2    1    2    0    0 -0.74172069108E+03  0.33852598208E+03  0.20540763251E+03  0.12047310742E+04  0.86280660732E+03 0.  0.
         23    2    4    4    0    0 -0.38076650513E+03  0.23643209788E+03 -0.31539044272E+03  0.55664041883E+03  0.97437960654E+02 0.  0.
         23    2    4    4    0    0 -0.36095418596E+03  0.10209388420E+03  0.52079807523E+03  0.64809065542E+03  0.89887579428E+02 0.  0.
         13    1    3    3    0    0  0.53091939421E+02 -0.49748495006E+01  0.42254005995E+02  0.68036050603E+02  0.00000000000E+00 0. -1.
        -13    1    3    3    0    0  0.68862875166E+03 -0.33355113258E+03  0.34743006035E+03  0.84034133690E+03  0.00000000000E+00 0.  1.
          4    1    6    6  502    0 -0.14042028046E+03  0.85880431316E+02  0.22066480057E+03  0.27529303997E+03  0.00000000000E+00 0. -1.
          4    1    5    5  503    0  0.20887853949E+01  0.11704853163E+02  0.31241016541E+00  0.11893872881E+02  0.00000000000E+00 0. -1.
         -4    1    5    5    0  503 -0.38285529052E+03  0.22472724472E+03 -0.31570285288E+03  0.54474654595E+03  0.00000000000E+00 0.  1.
         -4    1    6    6    0  502 -0.22053390550E+03  0.16213452885E+02  0.30013327466E+03  0.37279761545E+03  0.00000000000E+00 0.  1.
<mgrwt>
<rscale>  0 0.20275831E+04</rscale>
<asrwt>0</asrwt>
<pdfrwt beam="1">  1        1 0.11677052E+00 0.20275831E+04</pdfrwt>
<pdfrwt beam="2">  1       -1 0.20832309E+00 0.20275831E+04</pdfrwt>
<totfact> 0.29356630E+00</totfact>
</mgrwt>
</event>
<event>
12    1  0.4820219E-008  0.1354822E+04  0.7818608E-02  0.8987186E-01
          1   -1    0    0  501    0  0.00000000000E+00  0.00000000000E+00  0.10153174667E+04  0.10153174667E+04  0.00000000000E+00 0. -1.
         -1   -1    0    0    0  501 -0.00000000000E+00 -0.00000000000E+00 -0.45196260596E+03  0.45196260596E+03  0.00000000000E+00 0.  1.
         23    2    1    2    0    0  0.33124400440E+03 -0.53572938857E+02  0.36543184396E+03  0.50416550180E+03  0.89720512742E+02 0.  0.
        254    2    1    2    0    0 -0.33124400440E+03  0.53572938857E+02  0.19792301683E+03  0.96311457089E+03  0.88080843879E+03 0.  0.
         23    2    4    4    0    0 -0.18791545263E+03  0.45721462525E+03  0.65351408542E+02  0.50554074104E+03  0.83325886550E+02 0.  0.
         23    2    4    4    0    0 -0.14332855177E+03 -0.40364168639E+03  0.13257160829E+03  0.45757382986E+03  0.91262772796E+02 0.  0.
         11    1    3    3    0    0  0.46465957975E+02  0.17478578701E+02  0.28200148575E+02  0.57094959004E+02  0.00000000000E+00 0.  1.
        -11    1    3    3    0    0  0.28477804642E+03 -0.71051517559E+02  0.33723169538E+03  0.44707054280E+03  0.00000000000E+00 0. -1.
          2    1    5    5  502    0 -0.69960892800E+02  0.18789379882E+03  0.67379638203E+02  0.21151506282E+03  0.00000000000E+00 0. -1.
          3    1    6    6  503    0 -0.67321894211E+02 -0.14866108394E+03  0.69527692288E+01  0.16334226740E+03  0.00000000000E+00 0. -1.
         -2    1    5    5    0  502 -0.11795455983E+03  0.26932082643E+03 -0.20282296606E+01  0.29402567821E+03  0.00000000000E+00 0.  1.
         -3    1    6    6    0  503 -0.76006657555E+02 -0.25498060245E+03  0.12561883906E+03  0.29423156246E+03  0.00000000000E+00 0.  1.
<mgrwt>
<rscale>  0 0.13548218E+04</rscale>
<asrwt>0</asrwt>
<pdfrwt beam="1">  1        1 0.15620269E+00 0.13548218E+04</pdfrwt>
<pdfrwt beam="2">  1       -1 0.69532709E-01 0.13548218E+04</pdfrwt>
<totfact> 0.30133803E+01</totfact>
</mgrwt>
</event>
<event>
12    1  0.4820219E-008  0.2583582E+04  0.7818608E-02  0.8373799E-01
          2   -1    0    0  501    0  0.00000000000E+00  0.00000000000E+00  0.17788882540E+04  0.17788882540E+04  0.00000000000E+00 0. -1.
         -2   -1    0    0    0  501 -0.00000000000E+00 -0.00000000000E+00 -0.93807156631E+03  0.93807156631E+03  0.00000000000E+00 0.  1.
         23    2    1    2    0    0  0.77203532953E+03 -0.21627724692E+03  0.12100389833E+04  0.14543237868E+04  0.89715873482E+02 0.  0.
        254    2    1    2    0    0 -0.77203532953E+03  0.21627724692E+03 -0.36922229567E+03  0.12626360335E+04  0.90283456513E+03 0.  0.
         23    2    4    4    0    0 -0.51720071354E+03 -0.30919212444E+03 -0.12596254416E+03  0.62301211560E+03  0.95818504197E+02 0.  0.
         23    2    4    4    0    0 -0.25483461599E+03  0.52546937136E+03 -0.24325975151E+03  0.63962391794E+03  0.94258728768E+02 0.  0.
         11    1    3    3    0    0  0.11934621132E+03 -0.67221900141E+02  0.19109760256E+03  0.23511825901E+03  0.00000000000E+00 0.  1.
        -11    1    3    3    0    0  0.65268911821E+03 -0.14905534678E+03  0.10189413808E+04  0.12192055278E+04  0.00000000000E+00 0. -1.
          2    1    5    5  502    0 -0.32137484256E+03 -0.13983576539E+03 -0.87848037680E+02  0.36132133681E+03  0.00000000000E+00 0. -1.
          1    1    6    6  503    0 -0.70003251484E+01  0.91488224126E+02 -0.40542300696E+02  0.10031339817E+03  0.00000000000E+00 0. -1.
         -2    1    5    5    0  502 -0.19582587098E+03 -0.16935635905E+03 -0.38114506484E+02  0.26169077879E+03  0.00000000000E+00 0.  1.
         -1    1    6    6    0  503 -0.24783429084E+03  0.43398114724E+03 -0.20271745081E+03  0.53931051977E+03  0.00000000000E+00 0.  1.
<mgrwt>
<rscale>  0 0.25835824E+04</rscale>
<asrwt>0</asrwt>
<pdfrwt beam="1">  1        2 0.27367512E+00 0.25835824E+04</pdfrwt>
<pdfrwt beam="2">  1       -2 0.14431870E+00 0.25835824E+04</pdfrwt>
<totfact> 0.26053521E+00</totfact>
</mgrwt>
</event>
<event>
12    1  0.4820219E-008  0.1486428E+04  0.7818608E-02  0.8893528E-01
         -2   -1    0    0    0  501 -0.00000000000E+00  0.00000000000E+00  0.60229824557E+03  0.60229824557E+03  0.00000000000E+00 0. -1.
          2   -1    0    0  501    0  0.00000000000E+00 -0.00000000000E+00 -0.91709948719E+03  0.91709948719E+03  0.00000000000E+00 0.  1.
         23    2    1    2    0    0 -0.27466502555E+03  0.56528748224E+02  0.27382923845E+03  0.40232412899E+03  0.90806813082E+02 0.  0.
        254    2    1    2    0    0  0.27466502555E+03 -0.56528748224E+02 -0.58863048007E+03  0.11170736038E+04  0.90704532331E+03 0.  0.
         23    2    4    4    0    0  0.14680053000E+03  0.55015398323E+01  0.22604929491E+03  0.28518515166E+03  0.93014108862E+02 0.  0.
         23    2    4    4    0    0  0.12786449554E+03 -0.62030288057E+02 -0.81467977499E+03  0.83188845211E+03  0.90211834729E+02 0.  0.
         11    1    3    3    0    0 -0.22074685857E+02 -0.74333303603E+00  0.67994647348E+02  0.71492072062E+02  0.00000000000E+00 0. -1.
        -11    1    3    3    0    0 -0.25259033969E+03  0.57272081260E+02  0.20583459110E+03  0.33083205693E+03  0.00000000000E+00 0.  1.
          2    1    5    5  502    0  0.11479195544E+03 -0.22507570779E+02  0.10613340565E+03  0.15794962352E+03  0.00000000000E+00 0. -1.
          3    1    6    6  503    0 -0.63921825002E-01  0.13141057277E+02 -0.16305475986E+03  0.16358345327E+03  0.00000000000E+00 0. -1.
         -2    1    5    5    0  502  0.32008574565E+02  0.28009110611E+02  0.11991588927E+03  0.12723552814E+03  0.00000000000E+00 0.  1.
         -3    1    6    6    0  503  0.12792841737E+03 -0.75171345334E+02 -0.65162501513E+03  0.66830499884E+03  0.00000000000E+00 0.  1.
<mgrwt>
<rscale>  0 0.14864285E+04</rscale>
<asrwt>0</asrwt>
<pdfrwt beam="1">  1        2 0.14109223E+00 0.14864285E+04</pdfrwt>
<pdfrwt beam="2">  1       -2 0.92661269E-01 0.14864285E+04</pdfrwt>
<totfact> 0.27285858E+01</totfact>
</mgrwt>
</event>
<event>
12    1  0.4820219E-008  0.3661758E+04  0.7818608E-02  0.8076490E-01
         -2   -1    0    0    0  501 -0.00000000000E+00  0.00000000000E+00  0.22787146806E+04  0.22787146806E+04  0.00000000000E+00 0.  1.
          2   -1    0    0  501    0  0.00000000000E+00 -0.00000000000E+00 -0.14710563295E+04  0.14710563295E+04  0.00000000000E+00 0. -1.
         23    2    1    2    0    0  0.15729214387E+04 -0.59705318935E+03  0.73969697879E+03  0.18400833769E+04  0.90558546118E+02 0.  0.
        254    2    1    2    0    0 -0.15729214387E+04  0.59705318935E+03  0.67961372245E+02  0.19096876332E+04  0.90096267697E+03 0.  0.
         23    2    4    4    0    0 -0.12354107150E+04  0.19421440900E+03  0.35601494584E+03  0.13035041022E+04  0.91746560152E+02 0.  0.
         23    2    4    4    0    0 -0.33751072364E+03  0.40283878035E+03 -0.28805357360E+03  0.60618353104E+03  0.91055150974E+02 0.  0.
         13    1    3    3    0    0  0.11021154131E+04 -0.39755030783E+03  0.47439294379E+03  0.12640226644E+04  0.00000000000E+00 0. -1.
        -13    1    3    3    0    0  0.47080602560E+03 -0.19950288152E+03  0.26530403500E+03  0.57606071247E+03  0.00000000000E+00 0.  1.
          1    1    5    5  502    0 -0.10496401463E+04  0.16305280613E+03  0.33586813582E+03  0.11140637589E+04  0.00000000000E+00 0.  1.
          1    1    6    6  503    0 -0.16728811540E+02  0.60566258978E+02 -0.49037574491E+02  0.79704507865E+02  0.00000000000E+00 0. -1.
         -1    1    5    5    0  502 -0.18577056879E+03  0.31161602873E+02  0.20146810025E+02  0.18944034332E+03  0.00000000000E+00 0. -1.
         -1    1    6    6    0  503 -0.32078191210E+03  0.34227252137E+03 -0.23901599911E+03  0.52647902318E+03  0.00000000000E+00 0.  1.
<mgrwt>
<rscale>  0 0.36617579E+04</rscale>
<asrwt>0</asrwt>
<pdfrwt beam="1">  1        2 0.22631636E+00 0.36617579E+04</pdfrwt>
<pdfrwt beam="2">  1       -2 0.35057149E+00 0.36617579E+04</pdfrwt>
<totfact> 0.16487098E-01</totfact>
</mgrwt>
</event>
<event>
12    1  0.4820219E-008  0.2756466E+04  0.7818608E-02  0.8316913E-01
          2   -1    0    0  501    0  0.00000000000E+00  0.00000000000E+00  0.20392038663E+04  0.20392038663E+04  0.00000000000E+00 0.  1.
         -2   -1    0    0    0  501 -0.00000000000E+00 -0.00000000000E+00 -0.93150415174E+03  0.93150415174E+03  0.00000000000E+00 0. -1.
         23    2    1    2    0    0 -0.92740168496E+03  0.32497382159E+03 -0.30130064454E+03  0.10319877491E+04  0.92383796847E+02 0.  0.
        254    2    1    2    0    0  0.92740168496E+03 -0.32497382159E+03  0.14090003591E+04  0.19387202689E+04  0.89870595815E+03 0.  0.
         23    2    4    4    0    0  0.32683320815E+03  0.29786493763E+03  0.59670865016E+03  0.74851766905E+03  0.93134422666E+02 0.  0.
         23    2    4    4    0    0  0.60056847681E+03 -0.62283875922E+03  0.81229170894E+03  0.11902025999E+04  0.90298355589E+02 0.  0.
         13    1    3    3    0    0 -0.21565661502E+03  0.11633038072E+03 -0.85792284248E+02  0.25961673504E+03  0.00000000000E+00 0.  1.
        -13    1    3    3    0    0 -0.71174506995E+03  0.20864344087E+03 -0.21550836029E+03  0.77237101406E+03  0.00000000000E+00 0. -1.
          3    1    5    5  502    0  0.37437252785E+02  0.77581298358E+02  0.14415840788E+03  0.16793466680E+03  0.00000000000E+00 0. -1.
          3    1    6    6  503    0  0.63669260519E+02 -0.10212432172E+03  0.13900749854E+03  0.18386472330E+03  0.00000000000E+00 0. -1.
         -3    1    5    5    0  502  0.28939595537E+03  0.22028363927E+03  0.45255024228E+03  0.58058300225E+03  0.00000000000E+00 0.  1.
         -3    1    6    6    0  503  0.53689921629E+03 -0.52071443749E+03  0.67328421040E+03  0.10063378766E+04  0.00000000000E+00 0.  1.
<mgrwt>
<rscale>  0 0.27564665E+04</rscale>
<asrwt>0</asrwt>
<pdfrwt beam="1">  1        2 0.31372367E+00 0.27564665E+04</pdfrwt>
<pdfrwt beam="2">  1       -2 0.14330833E+00 0.27564665E+04</pdfrwt>
<totfact> 0.18749692E+00</totfact>
</mgrwt>
</event>
<event>
12    1  0.4820219E-008  0.2796466E+04  0.7818608E-02  0.8304366E-01
         -2   -1    0    0    0  501 -0.00000000000E+00  0.00000000000E+00  0.95430824042E+03  0.95430824042E+03  0.00000000000E+00 0. -1.
          2   -1    0    0  501    0  0.00000000000E+00 -0.00000000000E+00 -0.20486622608E+04  0.20486622608E+04  0.00000000000E+00 0.  1.
         23    2    1    2    0    0 -0.77308644630E+03  0.98042989152E+03 -0.40375673152E+03  0.13152717529E+04  0.89525750357E+02 0.  0.
        254    2    1    2    0    0  0.77308644630E+03 -0.98042989152E+03 -0.69059728891E+03  0.16876987484E+04  0.90138616824E+03 0.  0.
         23    2    4    4    0    0  0.42009912830E+03 -0.27031010162E+02 -0.48083125896E+03  0.64569553320E+03  0.92250034610E+02 0.  0.
         23    2    4    4    0    0  0.35298731801E+03 -0.95339888135E+03 -0.20976602995E+03  0.10420032152E+04  0.90550756780E+02 0.  0.
         11    1    3    3    0    0 -0.76417923359E+03  0.94867677559E+03 -0.38632190415E+03  0.12779679727E+04  0.00000000000E+00 0. -1.
        -11    1    3    3    0    0 -0.89072127151E+01  0.31753115925E+02 -0.17434827371E+02  0.37303780167E+02  0.00000000000E+00 0.  1.
          4    1    5    5  502    0  0.23829195557E+03 -0.24702243698E+02 -0.20487980156E+03  0.31522847273E+03  0.00000000000E+00 0. -1.
          3    1    6    6  503    0  0.12993259797E+03 -0.24024256916E+03 -0.67689682349E+02  0.28139094717E+03  0.00000000000E+00 0.  1.
         -4    1    5    5    0  502  0.18180717273E+03 -0.23287664645E+01 -0.27595145741E+03  0.33046706046E+03  0.00000000000E+00 0.  1.
         -3    1    6    6    0  503  0.22305472003E+03 -0.71315631219E+03 -0.14207634760E+03  0.76061226804E+03  0.00000000000E+00 0. -1.
<mgrwt>
<rscale>  0 0.27964658E+04</rscale>
<asrwt>0</asrwt>
<pdfrwt beam="1">  1        2 0.31517881E+00 0.27964658E+04</pdfrwt>
<pdfrwt beam="2">  1       -2 0.14681665E+00 0.27964658E+04</pdfrwt>
<totfact> 0.17325944E+00</totfact>
</mgrwt>
</event>
<event>
12    1  0.4820219E-008  0.2445530E+04  0.7818608E-02  0.8422652E-01
          2   -1    0    0  501    0  0.00000000000E+00  0.00000000000E+00  0.10921010421E+04  0.10921010421E+04  0.00000000000E+00 0.  1.
         -2   -1    0    0    0  501 -0.00000000000E+00 -0.00000000000E+00 -0.13690617965E+04  0.13690617965E+04  0.00000000000E+00 0. -1.
         23    2    1    2    0    0  0.77029584988E+02 -0.68027414039E+03 -0.92592611174E+03  0.11549910371E+04  0.89211368854E+02 0.  0.
        254    2    1    2    0    0 -0.77029584988E+02  0.68027414039E+03  0.64896535728E+03  0.13061718015E+04  0.90345020722E+03 0.  0.
         23    2    4    4    0    0  0.22338486888E+02 -0.53644119948E+02  0.54270129461E+03  0.55243131910E+03  0.85316865520E+02 0.  0.
         23    2    4    4    0    0 -0.99368071876E+02  0.73391826034E+03  0.10626406267E+03  0.75374048236E+03  0.91228488824E+02 0.  0.
         13    1    3    3    0    0  0.70115341937E+01 -0.35622440561E+03 -0.52943191555E+03  0.63815604829E+03  0.00000000000E+00 0. -1.
        -13    1    3    3    0    0  0.70018050794E+02 -0.32404973478E+03 -0.39649419619E+03  0.51683498881E+03  0.00000000000E+00 0.  1.
          1    1    5    5  502    0  0.12586000249E+02  0.22453973142E+02  0.16752072779E+03  0.16948682117E+03  0.00000000000E+00 0. -1.
          3    1    6    6  503    0 -0.15600377065E+02  0.28370800878E+03  0.22788287773E+01  0.28414573562E+03  0.00000000000E+00 0. -1.
         -1    1    5    5    0  502  0.97524866386E+01 -0.76098093090E+02  0.37518056682E+03  0.38294449792E+03  0.00000000000E+00 0.  1.
         -3    1    6    6    0  503 -0.83767694811E+02  0.45021025156E+03  0.10398523389E+03  0.46959474675E+03  0.00000000000E+00 0.  1.
<mgrwt>
<rscale>  0 0.24455296E+04</rscale>
<asrwt>0</asrwt>
<pdfrwt beam="1">  1        2 0.16801554E+00 0.24455296E+04</pdfrwt>
<pdfrwt beam="2">  1       -2 0.21062489E+00 0.24455296E+04</pdfrwt>
<totfact> 0.22391389E+00</totfact>
</mgrwt>
</event>
<event>
12    1  0.4820219E-008  0.1728830E+04  0.7818608E-02  0.8745090E-01
         -2   -1    0    0    0  501 -0.00000000000E+00  0.00000000000E+00  0.30024034379E+03  0.30024034379E+03  0.00000000000E+00 0.  1.
          2   -1    0    0  501    0  0.00000000000E+00 -0.00000000000E+00 -0.24887184241E+04  0.24887184241E+04  0.00000000000E+00 0. -1.
         23    2    1    2    0    0 -0.37515995991E+03  0.36627947518E+03 -0.12516268330E+04  0.13599735697E+04  0.89737014479E+02 0.  0.
        254    2    1    2    0    0  0.37515995991E+03 -0.36627947518E+03 -0.93685124734E+03  0.14289851982E+04  0.94308153815E+03 0.  0.
         23    2    4    4    0    0  0.39902050893E+03 -0.65635126421E+03 -0.66711874658E+03  0.10213974650E+04  0.90504203485E+02 0.  0.
         23    2    4    4    0    0 -0.23860549023E+02  0.29007178903E+03 -0.26973250077E+03  0.40758773323E+03  0.93065405603E+02 0.  0.
         13    1    3    3    0    0 -0.17116200824E+03  0.16567735616E+03 -0.68449256272E+03  0.72475891704E+03  0.00000000000E+00 0. -1.
        -13    1    3    3    0    0 -0.20399795167E+03  0.20060211903E+03 -0.56713427025E+03  0.63521465264E+03  0.00000000000E+00 0.  1.
          4    1    5    5  502    0  0.23934721573E+03 -0.32637933249E+03 -0.31216471310E+03  0.51113341356E+03  0.00000000000E+00 0. -1.
          3    1    6    6  503    0 -0.39328164919E+02  0.59277085128E+02 -0.89626394176E+02  0.11442625534E+03  0.00000000000E+00 0. -1.
         -4    1    5    5    0  502  0.15967329320E+03 -0.32997193173E+03 -0.35495403348E+03  0.51026405142E+03  0.00000000000E+00 0.  1.
         -3    1    6    6    0  503  0.15467615896E+02  0.23079470390E+03 -0.18010610659E+03  0.29316147790E+03  0.00000000000E+00 0.  1.
<mgrwt>
<rscale>  0 0.17288304E+04</rscale>
<asrwt>0</asrwt>
<pdfrwt beam="1">  1        2 0.38287975E+00 0.17288304E+04</pdfrwt>
<pdfrwt beam="2">  1       -2 0.46190823E-01 0.17288304E+04</pdfrwt>
<totfact> 0.14931525E+01</totfact>
</mgrwt>
</event>
<event>
12    1  0.4820219E-008  0.1481002E+04  0.7818608E-02  0.8897186E-01
          2   -1    0    0  501    0  0.00000000000E+00  0.00000000000E+00  0.14350225225E+04  0.14350225225E+04  0.00000000000E+00 0. -1.
         -2   -1    0    0    0  501 -0.00000000000E+00 -0.00000000000E+00 -0.38211352732E+03  0.38211352732E+03  0.00000000000E+00 0.  1.
         23    2    1    2    0    0  0.22534276582E+03 -0.56486608265E+02  0.81697663330E+03  0.85355255683E+03  0.84445537975E+02 0.  0.
        254    2    1    2    0    0 -0.22534276582E+03  0.56486608265E+02  0.23593236186E+03  0.96358349297E+03  0.90490826581E+03 0.  0.
         23    2    4    4    0    0  0.12337096246E+03 -0.33950187123E+03  0.20995380746E+03  0.42754281252E+03  0.90721223143E+02 0.  0.
         23    2    4    4    0    0 -0.34871372828E+03  0.39598847949E+03  0.25978554407E+02  0.53604068045E+03  0.90865756081E+02 0.  0.
         13    1    3    3    0    0  0.20634433185E+03 -0.26593764758E+02  0.74224883585E+03  0.77085572316E+03  0.00000000000E+00 0. -1.
        -13    1    3    3    0    0  0.18998433971E+02 -0.29892843507E+02  0.74727797452E+02  0.82696833666E+02  0.00000000000E+00 0.  1.
          4    1    5    5  502    0  0.49100924972E+02 -0.17990968302E+03  0.58847984139E+02  0.19555428943E+03  0.00000000000E+00 0. -1.
          1    1    6    6  503    0 -0.28921152233E+03  0.36875339734E+03  0.35182278977E+02  0.46995762091E+03  0.00000000000E+00 0. -1.
         -4    1    5    5    0  502  0.74270037483E+02 -0.15959218820E+03  0.15110582332E+03  0.23198852309E+03  0.00000000000E+00 0.  1.
         -1    1    6    6    0  503 -0.59502205944E+02  0.27235082157E+02 -0.92037245697E+01  0.66083059540E+02  0.00000000000E+00 0.  1.
<mgrwt>
<rscale>  0 0.14810017E+04</rscale>
<asrwt>0</asrwt>
<pdfrwt beam="1">  1        2 0.22077269E+00 0.14810017E+04</pdfrwt>
<pdfrwt beam="2">  1       -2 0.58786697E-01 0.14810017E+04</pdfrwt>
<totfact> 0.36151768E+01</totfact>
</mgrwt>
</event>
<event>
12    1  0.4820219E-008  0.1195027E+04  0.7818608E-02  0.9117221E-01
         -1   -1    0    0    0  501 -0.00000000000E+00  0.00000000000E+00  0.68523863409E+03  0.68523863409E+03  0.00000000000E+00 0.  1.
          1   -1    0    0  501    0  0.00000000000E+00 -0.00000000000E+00 -0.52101881843E+03  0.52101881843E+03  0.00000000000E+00 0. -1.
         23    2    1    2    0    0  0.21817426834E+03  0.72357945620E+02 -0.22664618456E+02  0.24826272877E+03  0.91022051744E+02 0.  0.
        254    2    1    2    0    0 -0.21817426834E+03 -0.72357945620E+02  0.18688443412E+03  0.95799472374E+03  0.91103919529E+03 0.  0.
         23    2    4    4    0    0 -0.36036384604E+03 -0.30465644690E+03  0.37921600050E+03  0.61231189157E+03  0.91888113257E+02 0.  0.
         23    2    4    4    0    0  0.14218957769E+03  0.23229850128E+03 -0.19233156639E+03  0.34568283217E+03  0.91239899853E+02 0.  0.
         11    1    3    3    0    0  0.20819588082E+03  0.88873573826E+02 -0.28366796497E+02  0.22814186827E+03  0.00000000000E+00 0.  1.
        -11    1    3    3    0    0  0.99783875207E+01 -0.16515628206E+02  0.57021780412E+01  0.20120860493E+02  0.00000000000E+00 0. -1.
          4    1    5    5  502    0 -0.17181526791E+03 -0.18832042561E+03  0.24330774718E+03  0.35239711807E+03  0.00000000000E+00 0. -1.
          1    1    6    6  503    0  0.26870921043E+02  0.60024308362E+02 -0.97760364867E+02  0.11782212411E+03  0.00000000000E+00 0. -1.
         -4    1    5    5    0  502 -0.18854857812E+03 -0.11633602130E+03  0.13590825333E+03  0.25991477350E+03  0.00000000000E+00 0.  1.
         -1    1    6    6    0  503  0.11531865665E+03  0.17227419292E+03 -0.94571201519E+02  0.22786070805E+03  0.00000000000E+00 0.  1.
<mgrwt>
<rscale>  0 0.11950267E+04</rscale>
<asrwt>0</asrwt>
<pdfrwt beam="1">  1        1 0.80156741E-01 0.11950267E+04</pdfrwt>
<pdfrwt beam="2">  1       -1 0.10542133E+00 0.11950267E+04</pdfrwt>
<totfact> 0.34971886E+01</totfact>
</mgrwt>
</event>
<event>
12    1  0.4820219E-008  0.1284532E+04  0.7818608E-02  0.9041922E-01
         -1   -1    0    0    0  501 -0.00000000000E+00  0.00000000000E+00  0.18710688426E+03  0.18710688426E+03  0.00000000000E+00 0.  1.
          1   -1    0    0  501    0  0.00000000000E+00 -0.00000000000E+00 -0.22046538481E+04  0.22046538481E+04  0.00000000000E+00 0. -1.
         23    2    1    2    0    0 -0.26240390443E+03  0.92516754729E+02 -0.84409967619E+03  0.89328575706E+03  0.89666166698E+02 0.  0.
        254    2    1    2    0    0  0.26240390443E+03 -0.92516754729E+02 -0.11734472876E+04  0.14984749753E+04  0.88940067221E+03 0.  0.
         23    2    4    4    0    0 -0.23348976275E+03 -0.11726511821E+03 -0.86160087618E+03  0.90486292855E+03  0.90289935088E+02 0.  0.
         23    2    4    4    0    0  0.49589366718E+03  0.24748363478E+02 -0.31184641142E+03  0.59361204671E+03  0.92758110332E+02 0.  0.
         13    1    3    3    0    0 -0.41092575832E+02 -0.14374971835E+02 -0.86847785277E+02  0.97148223922E+02  0.00000000000E+00 0.  1.
        -13    1    3    3    0    0 -0.22131132860E+03  0.10689172656E+03 -0.75725189092E+03  0.79613753314E+03  0.00000000000E+00 0. -1.
          2    1    5    5  502    0  0.55085981230E+01 -0.62502755478E+01 -0.71282253206E+02  0.71767473272E+02  0.00000000000E+00 0. -1.
          4    1    6    6  503    0  0.23308056547E+02  0.19373008890E+02 -0.33264307573E+02  0.45001034785E+02  0.00000000000E+00 0. -1.
         -2    1    5    5    0  502 -0.23899836087E+03 -0.11101484266E+03 -0.79031862297E+03  0.83309545528E+03  0.00000000000E+00 0.  1.
         -4    1    6    6    0  503  0.47258561063E+03  0.53753545886E+01 -0.27858210385E+03  0.54861101192E+03  0.00000000000E+00 0.  1.
<mgrwt>
<rscale>  0 0.12845325E+04</rscale>
<asrwt>0</asrwt>
<pdfrwt beam="1">  1        1 0.33917753E+00 0.12845325E+04</pdfrwt>
<pdfrwt beam="2">  1       -1 0.28785673E-01 0.12845325E+04</pdfrwt>
<totfact> 0.23397317E+01</totfact>
</mgrwt>
</event>
<event>
12    1  0.4820219E-008  0.1631345E+04  0.7818608E-02  0.8801520E-01
          1   -1    0    0  501    0  0.00000000000E+00  0.00000000000E+00  0.32598936466E+03  0.32598936466E+03  0.00000000000E+00 0. -1.
         -1   -1    0    0    0  501 -0.00000000000E+00 -0.00000000000E+00 -0.20409299909E+04  0.20409299909E+04  0.00000000000E+00 0.  1.
         23    2    1    2    0    0  0.25996332722E+03  0.28643562383E+03 -0.12106167168E+04  0.12761233445E+04  0.11520267995E+03 0.  0.
        254    2    1    2    0    0 -0.25996332722E+03 -0.28643562383E+03 -0.50432390945E+03  0.10907960110E+04  0.88649141782E+03 0.  0.
         23    2    4    4    0    0 -0.43789571483E+03  0.96829183570E+02 -0.47243736570E+03  0.65789523591E+03  0.92198313768E+02 0.  0.
         23    2    4    4    0    0  0.17793238761E+03 -0.38326480740E+03 -0.31886543750E+02  0.43290077509E+03  0.88512610694E+02 0.  0.
         11    1    3    3    0    0  0.26881313601E+03  0.27503721168E+03 -0.11158851768E+04  0.11802989866E+04  0.00000000000E+00 0.  1.
        -11    1    3    3    0    0 -0.88498087979E+01  0.11398412143E+02 -0.94731539952E+02  0.95824357951E+02  0.00000000000E+00 0. -1.
          2    1    5    5  502    0 -0.79150923127E+02  0.14125203006E+02 -0.39474598501E+02  0.89569157184E+02  0.00000000000E+00 0. -1.
          1    1    6    6  503    0  0.12401882987E+03 -0.18007482471E+03 -0.41096601510E+02  0.22247818615E+03  0.00000000000E+00 0. -1.
         -2    1    5    5    0  502 -0.35874479170E+03  0.82703980564E+02 -0.43296276720E+03  0.56832607872E+03  0.00000000000E+00 0.  1.
         -1    1    6    6    0  503  0.53913557738E+02 -0.20318998269E+03  0.92100577592E+01  0.21042258894E+03  0.00000000000E+00 0.  1.
<mgrwt>
<rscale>  0 0.16313448E+04</rscale>
<asrwt>0</asrwt>
<pdfrwt beam="1">  1        1 0.50152210E-01 0.16313448E+04</pdfrwt>
<pdfrwt beam="2">  1       -1 0.31398923E+00 0.16313448E+04</pdfrwt>
<totfact> 0.20206918E+00</totfact>
</mgrwt>
</event>
<event>
12    1  0.4820219E-008  0.1454582E+04  0.7818608E-02  0.8915230E-01
         -2   -1    0    0    0  501 -0.00000000000E+00  0.00000000000E+00  0.27802049469E+03  0.27802049469E+03  0.00000000000E+00 0.  1.
          2   -1    0    0  501    0  0.00000000000E+00 -0.00000000000E+00 -0.19025642772E+04  0.19025642772E+04  0.00000000000E+00 0. -1.
         23    2    1    2    0    0  0.32694382756E+03 -0.26645962199E+03 -0.31421582150E+03  0.53386381589E+03  0.91575077944E+02 0.  0.
        254    2    1    2    0    0 -0.32694382756E+03  0.26645962199E+03 -0.13103279610E+04  0.16467209560E+04  0.90379065328E+03 0.  0.
         23    2    4    4    0    0 -0.26497449765E+03  0.57233172538E+03 -0.64859019430E+03  0.90924615118E+03  0.91017773098E+02 0.  0.
         23    2    4    4    0    0 -0.61969329914E+02 -0.30587210339E+03 -0.66173776669E+03  0.73747480479E+03  0.92597377702E+02 0.  0.
         13    1    3    3    0    0  0.19362506140E+03 -0.17991939455E+03 -0.14407134273E+03  0.30102857794E+03  0.00000000000E+00 0.  1.
        -13    1    3    3    0    0  0.13331876616E+03 -0.86540227443E+02 -0.17014447877E+03  0.23283523795E+03  0.00000000000E+00 0. -1.
          1    1    5    5  502    0 -0.90394970662E+02  0.24584683153E+03 -0.32596175070E+03  0.41816620884E+03  0.00000000000E+00 0. -1.
          3    1    6    6  503    0 -0.50043772050E+02 -0.19872202689E+03 -0.32799067326E+03  0.38674630553E+03  0.00000000000E+00 0. -1.
         -1    1    5    5    0  502 -0.17457952698E+03  0.32648489385E+03 -0.32262844360E+03  0.49107994235E+03  0.00000000000E+00 0.  1.
         -3    1    6    6    0  503 -0.11925557864E+02 -0.10715007650E+03 -0.33374709343E+03  0.35072849927E+03  0.00000000000E+00 0.  1.
<mgrwt>
<rscale>  0 0.14545815E+04</rscale>
<asrwt>0</asrwt>
<pdfrwt beam="1">  1        2 0.29270220E+00 0.14545815E+04</pdfrwt>
<pdfrwt beam="2">  1       -2 0.42772384E-01 0.14545815E+04</pdfrwt>
<totfact> 0.38030251E+01</totfact>
</mgrwt>
</event>
<event>
12    1  0.4820219E-008  0.1973661E+04  0.7818608E-02  0.8619035E-01
         -1   -1    0    0    0  501 -0.00000000000E+00  0.00000000000E+00  0.78592179366E+03  0.78592179366E+03  0.00000000000E+00 0.  1.
          1   -1    0    0  501    0  0.00000000000E+00 -0.00000000000E+00 -0.12390980790E+04  0.12390980790E+04  0.00000000000E+00 0. -1.
         23    2    1    2    0    0 -0.73410040672E+03 -0.11964359703E+03  0.50271550179E+02  0.75093193475E+03  0.90296978963E+02 0.  0.
        254    2    1    2    0    0  0.73410040672E+03  0.11964359703E+03 -0.50344783549E+03  0.12740879379E+04  0.90367159573E+03 0.  0.
         23    2    4    4    0    0  0.30709909498E+03  0.20443221875E+03 -0.69424808688E+03  0.79034490357E+03  0.81007865385E+02 0.  0.
         23    2    4    4    0    0  0.42700131174E+03 -0.84788621727E+02  0.19080025139E+03  0.48374303431E+03  0.89907489756E+02 0.  0.
         11    1    3    3    0    0 -0.63434964606E+03 -0.80763812184E+02  0.65409894402E+02  0.64280690810E+03  0.00000000000E+00 0.  1.
        -11    1    3    3    0    0 -0.99750760657E+02 -0.38879784843E+02 -0.15138344223E+02  0.10812502664E+03  0.00000000000E+00 0. -1.
          2    1    5    5  502    0  0.64356105465E+01  0.21051324893E+01 -0.55823806313E+02  0.56232962017E+02  0.00000000000E+00 0. -1.
          3    1    6    6  503    0  0.60227483120E+02  0.11799822271E+02  0.50038851832E+02  0.79186313345E+02  0.00000000000E+00 0. -1.
         -2    1    5    5    0  502  0.30066348443E+03  0.20232708626E+03 -0.63842428057E+03  0.73411194155E+03  0.00000000000E+00 0.  1.
         -3    1    6    6    0  503  0.36677382862E+03 -0.96588443997E+02  0.14076139955E+03  0.40455672097E+03  0.00000000000E+00 0.  1.
<mgrwt>
<rscale>  0 0.19736607E+04</rscale>
<asrwt>0</asrwt>
<pdfrwt beam="1">  1        1 0.19063047E+00 0.19736607E+04</pdfrwt>
<pdfrwt beam="2">  1       -1 0.12091104E+00 0.19736607E+04</pdfrwt>
<totfact> 0.56544112E+00</totfact>
</mgrwt>
</event>
<event>
12    1  0.4820219E-008  0.3433061E+04  0.7818608E-02  0.8129840E-01
          2   -1    0    0  501    0  0.00000000000E+00  0.00000000000E+00  0.35186014882E+04  0.35186014882E+04  0.00000000000E+00 0. -1.
         -2   -1    0    0    0  501 -0.00000000000E+00 -0.00000000000E+00 -0.83739981629E+03  0.83739981629E+03  0.00000000000E+00 0.  1.
         23    2    1    2    0    0 -0.28255430745E+03  0.10893100213E+04 -0.17611160209E+03  0.11427635339E+04  0.91977925965E+02 0.  0.
        254    2    1    2    0    0  0.28255430745E+03 -0.10893100213E+04  0.28573132740E+04  0.32132377706E+04  0.94563447764E+03 0.  0.
         23    2    4    4    0    0 -0.33208879794E+03 -0.26240707456E+03  0.74161138826E+03  0.85817675493E+03  0.85670584201E+02 0.  0.
         23    2    4    4    0    0  0.61464310539E+03 -0.82690294674E+03  0.21157018857E+04  0.23550610156E+04  0.92538034325E+02 0.  0.
         13    1    3    3    0    0 -0.27380773775E+02  0.11766389620E+03 -0.48160999267E+02  0.13005376231E+03  0.00000000000E+00 0. -1.
        -13    1    3    3    0    0 -0.25517353368E+03  0.97164612511E+03 -0.12795060283E+03  0.10127097716E+04  0.00000000000E+00 0.  1.
          4    1    5    5  502    0 -0.76377822141E+01  0.31189121219E+01  0.28267273430E+01  0.87208782497E+01  0.00000000000E+00 0. -1.
          1    1    6    6  503    0  0.92138507141E+02 -0.16866322842E+03  0.45124385491E+03  0.49046692622E+03  0.00000000000E+00 0. -1.
         -4    1    5    5    0  502 -0.32445101572E+03 -0.26552598668E+03  0.73878466092E+03  0.84945587668E+03  0.00000000000E+00 0.  1.
         -1    1    6    6    0  503  0.52250459825E+03 -0.65823971832E+03  0.16644580308E+04  0.18645940894E+04  0.00000000000E+00 0.  1.
<mgrwt>
<rscale>  0 0.34330606E+04</rscale>
<asrwt>0</asrwt>
<pdfrwt beam="1">  1        2 0.54132330E+00 0.34330606E+04</pdfrwt>
<pdfrwt beam="2">  1       -2 0.12883074E+00 0.34330606E+04</pdfrwt>
<totfact> 0.28916094E-01</totfact>
</mgrwt>
</event>
<event>
12    1  0.4820219E-008  0.2222836E+04  0.7818608E-02  0.8508983E-01
          1   -1    0    0  501    0  0.00000000000E+00  0.00000000000E+00  0.26423828128E+04  0.26423828128E+04  0.00000000000E+00 0. -1.
         -1   -1    0    0    0  501 -0.00000000000E+00 -0.00000000000E+00 -0.46747579611E+03  0.46747579611E+03  0.00000000000E+00 0.  1.
         23    2    1    2    0    0 -0.70261090102E+03  0.23594328616E+02  0.17580796579E+04  0.18954786550E+04  0.88184337661E+02 0.  0.
        254    2    1    2    0    0  0.70261090102E+03 -0.23594328616E+02  0.41682735872E+03  0.12143799539E+04  0.89819533221E+03 0.  0.
         23    2    4    4    0    0 -0.46247243388E+02 -0.30948622635E+03  0.18602819003E+03  0.37519344303E+03  0.90791521540E+02 0.  0.
         23    2    4    4    0    0  0.74885814441E+03  0.28589189774E+03  0.23079916869E+03  0.83918651083E+03  0.91886049313E+02 0.  0.
         11    1    3    3    0    0 -0.31929543367E+03  0.13155859835E+02  0.91768383693E+03  0.97173364415E+03  0.00000000000E+00 0. -1.
        -11    1    3    3    0    0 -0.38331546735E+03  0.10438468781E+02  0.84039582100E+03  0.92374501086E+03  0.00000000000E+00 0.  1.
          4    1    5    5  502    0 -0.10553805086E+02 -0.26621557472E+02 -0.87027455758E+01  0.29930384304E+02  0.00000000000E+00 0.  1.
          3    1    6    6  503    0  0.43313810186E+03  0.14487298075E+03  0.88241521463E+02  0.46517025050E+03  0.00000000000E+00 0. -1.
         -4    1    5    5    0  502 -0.35693438302E+02 -0.28286466888E+03  0.19473093560E+03  0.34526305873E+03  0.00000000000E+00 0. -1.
         -3    1    6    6    0  503  0.31572004254E+03  0.14101891699E+03  0.14255764723E+03  0.37401626034E+03  0.00000000000E+00 0.  1.
<mgrwt>
<rscale>  0 0.22228360E+04</rscale>
<asrwt>0</asrwt>
<pdfrwt beam="1">  1        1 0.40652043E+00 0.22228360E+04</pdfrwt>
<pdfrwt beam="2">  1       -1 0.71919354E-01 0.22228360E+04</pdfrwt>
<totfact> 0.19132919E+00</totfact>
</mgrwt>
</event>
<event>
12    1  0.4820219E-008  0.1826581E+04  0.7818608E-02  0.8692290E-01
         -2   -1    0    0    0  501 -0.00000000000E+00  0.00000000000E+00  0.18113780346E+04  0.18113780346E+04  0.00000000000E+00 0. -1.
          2   -1    0    0  501    0  0.00000000000E+00 -0.00000000000E+00 -0.46047808998E+03  0.46047808998E+03  0.00000000000E+00 0.  1.
         23    2    1    2    0    0  0.20439294295E+02 -0.27536770330E+03 -0.27233844837E+03  0.39815280529E+03  0.90068247080E+02 0.  0.
        254    2    1    2    0    0 -0.20439294295E+02  0.27536770330E+03  0.16232383930E+04  0.18737033193E+04  0.89421256505E+03 0.  0.
         23    2    4    4    0    0  0.30742197562E+03  0.65474910482E+02  0.17459489569E+03  0.37068807012E+03  0.90172239247E+02 0.  0.
         23    2    4    4    0    0 -0.32786126992E+03  0.20989279282E+03  0.14486434973E+04  0.15030152492E+04  0.94545545516E+02 0.  0.
         13    1    3    3    0    0 -0.11279098986E+02 -0.68475759540E+02 -0.24134710802E+02  0.73475383524E+02  0.00000000000E+00 0. -1.
        -13    1    3    3    0    0  0.31718393281E+02 -0.20689194376E+03 -0.24820373757E+03  0.32467742177E+03  0.00000000000E+00 0.  1.
          4    1    5    5  502    0  0.31136741348E+03  0.56498096659E+02  0.17330053091E+03  0.36079741562E+03  0.00000000000E+00 0. -1.
          3    1    6    6  503    0 -0.21269864601E+03  0.12552912919E+03  0.73973812931E+03  0.77987869329E+03  0.00000000000E+00 0. -1.
         -4    1    5    5    0  502 -0.39454378580E+01  0.89768138230E+01  0.12943647812E+01  0.98906545027E+01  0.00000000000E+00 0.  1.
         -3    1    6    6    0  503 -0.11516262391E+03  0.84363663630E+02  0.70890536802E+03  0.72313655591E+03  0.00000000000E+00 0.  1.
<mgrwt>
<rscale>  0 0.18265814E+04</rscale>
<asrwt>0</asrwt>
<pdfrwt beam="1">  1        2 0.70842784E-01 0.18265814E+04</pdfrwt>
<pdfrwt beam="2">  1       -2 0.27867354E+00 0.18265814E+04</pdfrwt>
<totfact> 0.27399464E+00</totfact>
</mgrwt>
</event>
<event>
12    1  0.4820219E-008  0.3379321E+04  0.7818608E-02  0.8143000E-01
          2   -1    0    0  501    0  0.00000000000E+00  0.00000000000E+00  0.22386333677E+04  0.22386333677E+04  0.00000000000E+00 0. -1.
         -2   -1    0    0    0  501 -0.00000000000E+00 -0.00000000000E+00 -0.12753104532E+04  0.12753104532E+04  0.00000000000E+00 0.  1.
         23    2    1    2    0    0 -0.99034931855E+02  0.60395457535E+03 -0.10421002195E+04  0.12120999258E+04  0.92974811777E+02 0.  0.
        254    2    1    2    0    0  0.99034931855E+02 -0.60395457535E+03  0.20054231341E+04  0.23018438952E+04  0.94983910434E+03 0.  0.
         23    2    4    4    0    0  0.38588494600E+03 -0.25530056073E+02  0.12071289798E+04  0.12708224917E+04  0.90942047967E+02 0.  0.
         23    2    4    4    0    0 -0.28685001415E+03 -0.57842451928E+03  0.79829415429E+03  0.10310214035E+04  0.94200438457E+02 0.  0.
         13    1    3    3    0    0 -0.10538746470E+03  0.58450406086E+03 -0.97218495323E+03  0.11392519906E+04  0.00000000000E+00 0.  1.
        -13    1    3    3    0    0  0.63525328492E+01  0.19450514497E+02 -0.69915266317E+02  0.72847935125E+02  0.00000000000E+00 0. -1.
          4    1    5    5  502    0  0.23211574738E+02  0.19481609301E+02  0.12612578982E+03  0.12971516935E+03  0.00000000000E+00 0. -1.
          3    1    6    6  503    0 -0.43354822732E+02 -0.15894958464E+03  0.24485454209E+03  0.29512430922E+03  0.00000000000E+00 0. -1.
         -4    1    5    5    0  502  0.36267337126E+03 -0.45011665374E+02  0.10810031900E+04  0.11411073223E+04  0.00000000000E+00 0.  1.
         -3    1    6    6    0  503 -0.24349519141E+03 -0.41947493464E+03  0.55343961220E+03  0.73589709429E+03  0.00000000000E+00 0.  1.
<mgrwt>
<rscale>  0 0.33793210E+04</rscale>
<asrwt>0</asrwt>
<pdfrwt beam="1">  1        2 0.34440514E+00 0.33793210E+04</pdfrwt>
<pdfrwt beam="2">  1       -2 0.19620161E+00 0.33793210E+04</pdfrwt>
<totfact> 0.57426021E-01</totfact>
</mgrwt>
</event>
<event>
12    1  0.4820219E-008  0.3367523E+04  0.7818608E-02  0.8145924E-01
         -2   -1    0    0    0  501 -0.00000000000E+00  0.00000000000E+00  0.81040156980E+03  0.81040156980E+03  0.00000000000E+00 0.  1.
          2   -1    0    0  501    0  0.00000000000E+00 -0.00000000000E+00 -0.34983299677E+04  0.34983299677E+04  0.00000000000E+00 0. -1.
         23    2    1    2    0    0 -0.65702919297E+03 -0.63181597080E+03  0.36962507427E+03  0.98803480602E+03  0.93334350539E+02 0.  0.
        254    2    1    2    0    0  0.65702919297E+03  0.63181597080E+03 -0.30575534722E+04  0.33206967315E+04  0.92060565166E+03 0.  0.
         23    2    4    4    0    0  0.76045152685E+03  0.77791951062E+03 -0.26967216056E+04  0.29093198811E+04  0.91594010472E+02 0.  0.
         23    2    4    4    0    0 -0.10342233388E+03 -0.14610353982E+03 -0.36083186657E+03  0.41137685037E+03  0.83599363625E+02 0.  0.
         13    1    3    3    0    0 -0.24216711223E+03 -0.20857927161E+03  0.85818656083E+02  0.33093060379E+03  0.00000000000E+00 0. -1.
        -13    1    3    3    0    0 -0.41486208074E+03 -0.42323669919E+03  0.28380641819E+03  0.65710420222E+03  0.00000000000E+00 0.  1.
          2    1    6    6  502    0 -0.88085756904E+02 -0.56794954811E+02 -0.16312690310E+03  0.19389469817E+03  0.00000000000E+00 0. -1.
          2    1    5    5  503    0  0.43674002006E+03  0.49816617131E+03 -0.15668480478E+04  0.17011537803E+04  0.00000000000E+00 0.  1.
         -2    1    5    5    0  503  0.32371150679E+03  0.27975333930E+03 -0.11298735578E+04  0.12081661008E+04  0.00000000000E+00 0. -1.
         -2    1    6    6    0  502 -0.15336576979E+02 -0.89308585004E+02 -0.19770496346E+03  0.21748215220E+03  0.00000000000E+00 0.  1.
<mgrwt>
<rscale>  0 0.33675226E+04</rscale>
<asrwt>0</asrwt>
<pdfrwt beam="1">  1        2 0.53820462E+00 0.33675226E+04</pdfrwt>
<pdfrwt beam="2">  1       -2 0.12467716E+00 0.33675226E+04</pdfrwt>
<totfact> 0.32628773E-01</totfact>
</mgrwt>
</event>
<event>
12    1  0.4820219E-008  0.1074456E+04  0.7818608E-02  0.9230452E-01
         -2   -1    0    0    0  501 -0.00000000000E+00  0.00000000000E+00  0.13852740928E+03  0.13852740928E+03  0.00000000000E+00 0. -1.
          2   -1    0    0  501    0  0.00000000000E+00 -0.00000000000E+00 -0.20834440171E+04  0.20834440171E+04  0.00000000000E+00 0.  1.
         23    2    1    2    0    0 -0.27281495218E+02 -0.37585728550E+02 -0.55372441282E+03  0.56323907093E+03  0.92035638208E+02 0.  0.
        254    2    1    2    0    0  0.27281495218E+02  0.37585728550E+02 -0.13911921950E+04  0.16587323554E+04  0.90211991256E+03 0.  0.
         23    2    4    4    0    0  0.10588825037E+03 -0.35267843867E+03 -0.27123053641E+03  0.46654774869E+03  0.92230121215E+02 0.  0.
         23    2    4    4    0    0 -0.78606755155E+02  0.39026416721E+03 -0.11199616586E+04  0.11921846068E+04  0.92221893982E+02 0.  0.
         13    1    3    3    0    0 -0.49580564641E+02 -0.81300767213E+01 -0.15805131359E+03  0.16584495249E+03  0.00000000000E+00 0. -1.
        -13    1    3    3    0    0  0.22299069423E+02 -0.29455651828E+02 -0.39567309922E+03  0.39739411844E+03  0.00000000000E+00 0.  1.
          4    1    5    5  502    0  0.10178006638E+03 -0.34121605953E+03 -0.23081661875E+03  0.42433936028E+03  0.00000000000E+00 0. -1.
          4    1    6    6  503    0 -0.51294938484E+02  0.88976725446E+02 -0.22134259646E+03  0.24400937153E+03  0.00000000000E+00 0.  1.
         -4    1    5    5    0  502  0.41081839888E+01 -0.11462379134E+02 -0.40413917661E+02  0.42208388406E+02  0.00000000000E+00 0.  1.
         -4    1    6    6    0  503 -0.27311816671E+02  0.30128744177E+03 -0.89861906212E+03  0.94817523523E+03  0.00000000000E+00 0. -1.
<mgrwt>
<rscale>  0 0.10744563E+04</rscale>
<asrwt>0</asrwt>
<pdfrwt beam="1">  1        2 0.32052984E+00 0.10744563E+04</pdfrwt>
<pdfrwt beam="2">  1       -2 0.21311910E-01 0.10744563E+04</pdfrwt>
<totfact> 0.11441734E+02</totfact>
</mgrwt>
</event>
<event>
12    1  0.4820219E-008  0.1404860E+04  0.7818608E-02  0.8950308E-01
         -1   -1    0    0    0  501 -0.00000000000E+00  0.00000000000E+00  0.82145806585E+03  0.82145806585E+03  0.00000000000E+00 0.  1.
          1   -1    0    0  501    0  0.00000000000E+00 -0.00000000000E+00 -0.60064857943E+03  0.60064857943E+03  0.00000000000E+00 0. -1.
         23    2    1    2    0    0 -0.20642706966E+02 -0.36666703733E+03  0.27642224530E+03  0.46877146110E+03  0.92014060996E+02 0.  0.
        254    2    1    2    0    0  0.20642706966E+02  0.36666703733E+03 -0.55612758882E+02  0.95333518418E+03  0.87800020320E+03 0.  0.
         23    2    4    4    0    0  0.32192204155E+03  0.45040117763E+03  0.13251494990E+03  0.57709702105E+03  0.94793133303E+02 0.  0.
         23    2    4    4    0    0 -0.30127933458E+03 -0.83734140292E+02 -0.18812770879E+03  0.37623816312E+03  0.91555867551E+02 0.  0.
         13    1    3    3    0    0 -0.15432597933E+02 -0.36735635713E+03  0.28021774281E+03  0.46228869940E+03  0.00000000000E+00 0.  1.
        -13    1    3    3    0    0 -0.52101090326E+01  0.68931979609E+00 -0.37954975087E+01  0.64827616994E+01  0.00000000000E+00 0. -1.
          2    1    5    5  502    0 -0.59620972598E+01  0.18363487213E+02  0.46498229798E+01  0.19859131907E+02  0.00000000000E+00 0. -1.
          4    1    6    6  503    0 -0.21538438246E+02 -0.24095860429E+02 -0.47648637462E+02  0.57575233077E+02  0.00000000000E+00 0. -1.
         -2    1    5    5    0  502  0.32788413881E+03  0.43203769041E+03  0.12786512692E+03  0.55723788915E+03  0.00000000000E+00 0.  1.
         -4    1    6    6    0  503 -0.27974089633E+03 -0.59638279863E+02 -0.14047907132E+03  0.31866293005E+03  0.00000000000E+00 0.  1.
<mgrwt>
<rscale>  0 0.14048596E+04</rscale>
<asrwt>0</asrwt>
<pdfrwt beam="1">  1        1 0.92407473E-01 0.14048596E+04</pdfrwt>
<pdfrwt beam="2">  1       -1 0.12637816E+00 0.14048596E+04</pdfrwt>
<totfact> 0.18153806E+01</totfact>
</mgrwt>
</event>
<event>
12    1  0.4820219E-008  0.2162520E+04  0.7818608E-02  0.8534192E-01
          2   -1    0    0  501    0  0.00000000000E+00  0.00000000000E+00  0.17573840133E+04  0.17573840133E+04  0.00000000000E+00 0. -1.
         -2   -1    0    0    0  501 -0.00000000000E+00 -0.00000000000E+00 -0.66526325165E+03  0.66526325165E+03  0.00000000000E+00 0.  1.
         23    2    1    2    0    0 -0.19901424446E+03  0.48340643992E+02  0.14232849299E+04  0.14409604387E+04  0.93185336500E+02 0.  0.
        254    2    1    2    0    0  0.19901424446E+03 -0.48340643992E+02 -0.33116416830E+03  0.98168682618E+03  0.90116359834E+03 0.  0.
         23    2    4    4    0    0  0.48124632179E+03 -0.55145814992E+02 -0.44478873175E+03  0.66399175919E+03  0.91700366622E+02 0.  0.
         23    2    4    4    0    0 -0.28223207733E+03  0.68051709998E+01  0.11362456345E+03  0.31769506699E+03  0.91205034665E+02 0.  0.
         13    1    3    3    0    0 -0.19547956524E+03  0.55913806554E+02  0.14136903803E+04  0.14282363619E+04  0.00000000000E+00 0. -1.
        -13    1    3    3    0    0 -0.35346792242E+01 -0.75731625619E+01  0.95945496160E+01  0.12724076813E+02  0.00000000000E+00 0.  1.
          2    1    5    5  502    0  0.61181364150E+02  0.11908766717E+02 -0.27572065425E+02  0.68155680877E+02  0.00000000000E+00 0. -1.
          4    1    6    6  503    0 -0.15241854104E+03  0.44570646547E+02  0.40040797206E+02  0.16377185237E+03  0.00000000000E+00 0. -1.
         -2    1    5    5    0  502  0.42006495764E+03 -0.67054581709E+02 -0.41721666632E+03  0.59583607831E+03  0.00000000000E+00 0.  1.
         -4    1    6    6    0  503 -0.12981353628E+03 -0.37765475547E+02  0.73583766244E+02  0.15392321462E+03  0.00000000000E+00 0.  1.
<mgrwt>
<rscale>  0 0.21625198E+04</rscale>
<asrwt>0</asrwt>
<pdfrwt beam="1">  1        2 0.27036677E+00 0.21625198E+04</pdfrwt>
<pdfrwt beam="2">  1       -2 0.10234819E+00 0.21625198E+04</pdfrwt>
<totfact> 0.65296812E+00</totfact>
</mgrwt>
</event>
<event>
12    1  0.4820219E-008  0.1917826E+04  0.7818608E-02  0.8646034E-01
         -2   -1    0    0    0  501 -0.00000000000E+00  0.00000000000E+00  0.84488036890E+03  0.84488036890E+03  0.00000000000E+00 0. -1.
          2   -1    0    0  501    0  0.00000000000E+00 -0.00000000000E+00 -0.10883365710E+04  0.10883365710E+04  0.00000000000E+00 0.  1.
         23    2    1    2    0    0  0.44586552689E+03 -0.46308007659E+03 -0.47536893921E+03  0.80453888152E+03  0.89821813119E+02 0.  0.
        254    2    1    2    0    0 -0.44586552689E+03  0.46308007659E+03  0.23191273714E+03  0.11286780583E+04  0.89827134894E+03 0.  0.
         23    2    4    4    0    0  0.58186258000E+02  0.39741841872E+03 -0.19899254540E+03  0.45750321231E+03  0.91564818551E+02 0.  0.
         23    2    4    4    0    0 -0.50405178489E+03  0.65661657872E+02  0.43090528254E+03  0.67117484603E+03  0.80104033956E+02 0.  0.
         11    1    3    3    0    0  0.27800051178E+03 -0.29424578100E+03 -0.24456154463E+03  0.47294313960E+03  0.00000000000E+00 0.  1.
        -11    1    3    3    0    0  0.16786501511E+03 -0.16883429559E+03 -0.23080739459E+03  0.33159574192E+03  0.00000000000E+00 0. -1.
          1    1    6    6  502    0 -0.36502475393E+02 -0.14908676820E+02  0.24133327774E+02  0.46228961310E+02  0.00000000000E+00 0. -1.
          1    1    5    5  503    0  0.48792300375E+02  0.32521197732E+03 -0.11997937140E+03  0.35005509327E+03  0.00000000000E+00 0. -1.
         -1    1    5    5    0  503  0.93939576248E+01  0.72206441402E+02 -0.79013173997E+02  0.10744811904E+03  0.00000000000E+00 0.  1.
         -1    1    6    6    0  502 -0.46754930950E+03  0.80570334692E+02  0.40677195477E+03  0.62494588472E+03  0.00000000000E+00 0.  1.
<mgrwt>
<rscale>  0 0.19178261E+04</rscale>
<asrwt>0</asrwt>
<pdfrwt beam="1">  1        2 0.16743639E+00 0.19178261E+04</pdfrwt>
<pdfrwt beam="2">  1       -2 0.12998160E+00 0.19178261E+04</pdfrwt>
<totfact> 0.90012146E+00</totfact>
</mgrwt>
</event>
<event>
12    1  0.4820219E-008  0.1509774E+04  0.7818608E-02  0.8877979E-01
         -2   -1    0    0    0  501 -0.00000000000E+00  0.00000000000E+00  0.84688553813E+03  0.84688553813E+03  0.00000000000E+00 0.  1.
          2   -1    0    0  501    0  0.00000000000E+00 -0.00000000000E+00 -0.67288268008E+03  0.67288268008E+03  0.00000000000E+00 0. -1.
         23    2    1    2    0    0  0.39697232939E+03  0.19783998575E+03 -0.13267282001E+03  0.47191623458E+03  0.91515927709E+02 0.  0.
        254    2    1    2    0    0 -0.39697232939E+03 -0.19783998575E+03  0.30667567805E+03  0.10478519836E+04  0.89845206764E+03 0.  0.
         23    2    4    4    0    0 -0.65948917035E+03 -0.25095285208E+03  0.27696881775E+03  0.76359790541E+03  0.92014864841E+02 0.  0.
         23    2    4    4    0    0  0.26251684096E+03  0.53112866333E+02  0.29706860305E+02  0.28425407823E+03  0.90453386245E+02 0.  0.
         13    1    3    3    0    0  0.34969429487E+03  0.18074024753E+03 -0.14609959499E+03  0.41987882609E+03  0.00000000000E+00 0. -1.
        -13    1    3    3    0    0  0.47278034525E+02  0.17099738218E+02  0.13426774986E+02  0.52037408488E+02  0.00000000000E+00 0.  1.
          1    1    5    5  502    0 -0.33206138427E+03 -0.88606928687E+02  0.10261182202E+03  0.35867134922E+03  0.00000000000E+00 0. -1.
          1    1    6    6  503    0  0.24820044123E+03  0.35747744838E+02  0.47923365441E+02  0.25529984183E+03  0.00000000000E+00 0. -1.
         -1    1    5    5    0  502 -0.32742778609E+03 -0.16234592339E+03  0.17435699573E+03  0.40492655618E+03  0.00000000000E+00 0.  1.
         -1    1    6    6    0  503  0.14316399736E+02  0.17365121495E+02 -0.18216505136E+02  0.28954236397E+02  0.00000000000E+00 0.  1.
<mgrwt>
<rscale>  0 0.15097743E+04</rscale>
<asrwt>0</asrwt>
<pdfrwt beam="1">  1        2 0.10352041E+00 0.15097743E+04</pdfrwt>
<pdfrwt beam="2">  1       -2 0.13029008E+00 0.15097743E+04</pdfrwt>
<totfact> 0.17950176E+01</totfact>
</mgrwt>
</event>
<event>
12    1  0.4820219E-008  0.1658546E+04  0.7818608E-02  0.8785367E-01
         -2   -1    0    0    0  501 -0.00000000000E+00  0.00000000000E+00  0.15527692293E+04  0.15527692293E+04  0.00000000000E+00 0.  1.
          2   -1    0    0  501    0  0.00000000000E+00 -0.00000000000E+00 -0.44288230235E+03  0.44288230235E+03  0.00000000000E+00 0. -1.
         23    2    1    2    0    0  0.38365629113E+03  0.41269916704E+03  0.43379989436E+03  0.71741272170E+03  0.94794054154E+02 0.  0.
        254    2    1    2    0    0 -0.38365629113E+03 -0.41269916704E+03  0.67608703259E+03  0.12782388100E+04  0.92697790021E+03 0.  0.
         23    2    4    4    0    0  0.24839717303E+03 -0.20961250034E+03  0.16234939162E+02  0.33772806626E+03  0.90322298564E+02 0.  0.
         23    2    4    4    0    0 -0.63205346417E+03 -0.20308666670E+03  0.65985209343E+03  0.94051074371E+03  0.91760002610E+02 0.  0.
         13    1    3    3    0    0 -0.15479495880E+01  0.14227654631E+02  0.24731709250E+02  0.28574109726E+02  0.00000000000E+00 0. -1.
        -13    1    3    3    0    0  0.38520424072E+03  0.39847151241E+03  0.40906818511E+03  0.68883861197E+03  0.00000000000E+00 0.  1.
          3    1    6    6  502    0 -0.27958402341E+03 -0.13700795813E+03  0.31899620894E+03  0.44575440329E+03  0.00000000000E+00 0. -1.
          3    1    5    5  503    0  0.32756549702E+01 -0.30185968937E+02 -0.11992550185E+02  0.32645733199E+02  0.00000000000E+00 0. -1.
         -3    1    5    5    0  503  0.24512151806E+03 -0.17942653140E+03  0.28227489347E+02  0.30508233306E+03  0.00000000000E+00 0.  1.
         -3    1    6    6    0  502 -0.35246944076E+03 -0.66078708566E+02  0.34085588449E+03  0.49475634042E+03  0.00000000000E+00 0.  1.
<mgrwt>
<rscale>  0 0.16585464E+04</rscale>
<asrwt>0</asrwt>
<pdfrwt beam="1">  1        2 0.68135740E-01 0.16585464E+04</pdfrwt>
<pdfrwt beam="2">  1       -2 0.23888757E+00 0.16585464E+04</pdfrwt>
<totfact> 0.50876394E+00</totfact>
</mgrwt>
</event>
<event>
12    1  0.4820219E-008  0.1549786E+04  0.7818608E-02  0.8852004E-01
         -1   -1    0    0    0  501 -0.00000000000E+00  0.00000000000E+00  0.28528467726E+03  0.28528467726E+03  0.00000000000E+00 0.  1.
          1   -1    0    0  501    0  0.00000000000E+00 -0.00000000000E+00 -0.21047729095E+04  0.21047729095E+04  0.00000000000E+00 0. -1.
         23    2    1    2    0    0 -0.45384954137E+03 -0.16637045786E+03 -0.44626477176E+03  0.66579668747E+03  0.10234474620E+03 0.  0.
        254    2    1    2    0    0  0.45384954137E+03  0.16637045786E+03 -0.13732234605E+04  0.17242608993E+04  0.92394504220E+03 0.  0.
         23    2    4    4    0    0  0.17527040274E+03 -0.29142463544E+03 -0.14380169725E+03  0.37999404667E+03  0.89824913923E+02 0.  0.
         23    2    4    4    0    0  0.27857913863E+03  0.45779509330E+03 -0.12294217633E+04  0.13442668526E+04  0.91612309383E+02 0.  0.
         11    1    3    3    0    0 -0.45385508948E+03 -0.15395346321E+03 -0.44371085166E+03  0.65311976770E+03  0.00000000000E+00 0. -1.
        -11    1    3    3    0    0  0.55481130445E-02 -0.12416994647E+02 -0.25539201080E+01  0.12676919766E+02  0.00000000000E+00 0.  1.
          1    1    5    5  502    0  0.10523754350E+03 -0.18613755510E+03 -0.13576613649E+03  0.25328753186E+03  0.00000000000E+00 0. -1.
          3    1    6    6  503    0  0.15469214947E+03  0.32193043664E+03 -0.74707996771E+03  0.82806844240E+03  0.00000000000E+00 0. -1.
         -1    1    5    5    0  502  0.70032859238E+02 -0.10528708034E+03 -0.80355607594E+01  0.12670651481E+03  0.00000000000E+00 0.  1.
         -3    1    6    6    0  503  0.12388698916E+03  0.13586465665E+03 -0.48234179555E+03  0.51619841025E+03  0.00000000000E+00 0.  1.
<mgrwt>
<rscale>  0 0.15497864E+04</rscale>
<asrwt>0</asrwt>
<pdfrwt beam="1">  1        1 0.32381121E+00 0.15497864E+04</pdfrwt>
<pdfrwt beam="2">  1       -1 0.43889951E-01 0.15497864E+04</pdfrwt>
<totfact> 0.12514647E+01</totfact>
</mgrwt>
</event>
<event>
12    1  0.4820219E-008  0.1448173E+04  0.7818608E-02  0.8919668E-01
         -2   -1    0    0    0  501 -0.00000000000E+00  0.00000000000E+00  0.23762267539E+03  0.23762267539E+03  0.00000000000E+00 0.  1.
          2   -1    0    0  501    0  0.00000000000E+00 -0.00000000000E+00 -0.22064442614E+04  0.22064442614E+04  0.00000000000E+00 0. -1.
         23    2    1    2    0    0 -0.43388956050E+03  0.25732111005E+03 -0.51524134567E+03  0.72675226137E+03  0.90669182874E+02 0.  0.
        254    2    1    2    0    0  0.43388956050E+03 -0.25732111005E+03 -0.14535802403E+04  0.17173146754E+04  0.76275807106E+03 0.  0.
         23    2    4    4    0    0  0.49798995286E+03  0.11264941419E+03 -0.94500417756E+03  0.10780023447E+04  0.91500141440E+02 0.  0.
         23    2    4    4    0    0 -0.64100392354E+02 -0.36997052425E+03 -0.50857606279E+03  0.63931233075E+03  0.95307898418E+02 0.  0.
         11    1    3    3    0    0 -0.90017944553E+02  0.45786506730E+02 -0.15879859926E+03  0.18819306487E+03  0.00000000000E+00 0. -1.
        -11    1    3    3    0    0 -0.34387161595E+03  0.21153460332E+03 -0.35644274641E+03  0.53855919649E+03  0.00000000000E+00 0.  1.
          2    1    5    5  502    0  0.16718480776E+03 -0.21543594673E+01 -0.34260421070E+03  0.38122571581E+03  0.00000000000E+00 0. -1.
          3    1    6    6  503    0  0.20176953922E+02 -0.13104719412E+03 -0.20153853600E+03  0.24124315130E+03  0.00000000000E+00 0. -1.
         -2    1    5    5    0  502  0.33080514510E+03  0.11480377366E+03 -0.60239996686E+03  0.69677662887E+03  0.00000000000E+00 0.  1.
         -3    1    6    6    0  503 -0.84277346276E+02 -0.23892333013E+03 -0.30703752679E+03  0.39806917945E+03  0.00000000000E+00 0.  1.
<mgrwt>
<rscale>  0 0.14481729E+04</rscale>
<asrwt>0</asrwt>
<pdfrwt beam="1">  1        2 0.33945297E+00 0.14481729E+04</pdfrwt>
<pdfrwt beam="2">  1       -2 0.36557333E-01 0.14481729E+04</pdfrwt>
<totfact> 0.35041158E+01</totfact>
</mgrwt>
</event>
<event>
12    1  0.4820219E-008  0.1947087E+04  0.7818608E-02  0.8631767E-01
          1   -1    0    0  501    0  0.00000000000E+00  0.00000000000E+00  0.10592402183E+04  0.10592402183E+04  0.00000000000E+00 0. -1.
         -1   -1    0    0    0  501 -0.00000000000E+00 -0.00000000000E+00 -0.89477953615E+03  0.89477953615E+03  0.00000000000E+00 0.  1.
         23    2    1    2    0    0 -0.13132240784E+02 -0.73500962140E+03  0.25485528160E+03  0.78380818251E+03  0.94828545889E+02 0.  0.
        254    2    1    2    0    0  0.13132240784E+02  0.73500962140E+03 -0.90394599467E+02  0.11702115719E+04  0.90598694259E+03 0.  0.
         23    2    4    4    0    0 -0.87468196233E+01  0.93609644630E+03 -0.41796237031E+02  0.94189030815E+03  0.95170181879E+02 0.  0.
         23    2    4    4    0    0  0.21879060407E+02 -0.20108682491E+03 -0.48598362436E+02  0.22832126377E+03  0.94096728003E+02 0.  0.
         11    1    3    3    0    0 -0.53264559803E+01 -0.60369146806E+03  0.16973759929E+03  0.62712248592E+03  0.00000000000E+00 0.  1.
        -11    1    3    3    0    0 -0.78057848035E+01 -0.13131815334E+03  0.85117682308E+02  0.15668569659E+03  0.00000000000E+00 0. -1.
          4    1    5    5  502    0 -0.54662452416E+01  0.53910295726E+03 -0.71121997067E+02  0.54380163371E+03  0.00000000000E+00 0. -1.
          1    1    6    6  503    0  0.45347919573E+02 -0.18251501477E+03 -0.24015912783E+02  0.18959147790E+03  0.00000000000E+00 0. -1.
         -4    1    5    5    0  502 -0.32805743817E+01  0.39699348904E+03  0.29325760037E+02  0.39808867444E+03  0.00000000000E+00 0.  1.
         -1    1    6    6    0  503 -0.23468859166E+02 -0.18571810141E+02 -0.24582449653E+02  0.38729785868E+02  0.00000000000E+00 0.  1.
<mgrwt>
<rscale>  0 0.19470865E+04</rscale>
<asrwt>0</asrwt>
<pdfrwt beam="1">  1        1 0.16296003E+00 0.19470865E+04</pdfrwt>
<pdfrwt beam="2">  1       -1 0.13765839E+00 0.19470865E+04</pdfrwt>
<totfact> 0.55581433E+00</totfact>
</mgrwt>
</event>
<event>
12    1  0.4820219E-008  0.1643742E+04  0.7818608E-02  0.8794117E-01
          2   -1    0    0  501    0  0.00000000000E+00  0.00000000000E+00  0.17992474606E+04  0.17992474606E+04  0.00000000000E+00 0. -1.
         -2   -1    0    0    0  501 -0.00000000000E+00 -0.00000000000E+00 -0.37541930558E+03  0.37541930558E+03  0.00000000000E+00 0.  1.
         23    2    1    2    0    0  0.31223124443E+03  0.79175468869E+02 -0.12458714895E+03  0.35720949772E+03  0.91211636941E+02 0.  0.
        254    2    1    2    0    0 -0.31223124443E+03 -0.79175468869E+02  0.15484153039E+04  0.18174572684E+04  0.89543501396E+03 0.  0.
         23    2    4    4    0    0  0.29671877750E+03 -0.11034610551E+03  0.63609142162E+03  0.71627167886E+03  0.90634018805E+02 0.  0.
         23    2    4    4    0    0 -0.60895002193E+03  0.31170636640E+02  0.91232388233E+03  0.11011855896E+04  0.92103738336E+02 0.  0.
         11    1    3    3    0    0  0.10982863377E+02  0.50287028380E+01 -0.30831199813E+02  0.33113049122E+02  0.00000000000E+00 0. -1.
        -11    1    3    3    0    0  0.30124838105E+03  0.74146766030E+02 -0.93755949133E+02  0.32409644860E+03  0.00000000000E+00 0.  1.
          2    1    5    5  502    0  0.59291999080E+02 -0.26017509254E+02  0.63468301274E+02  0.90667950287E+02  0.00000000000E+00 0. -1.
          4    1    6    6  503    0 -0.39536545114E+02  0.38099121288E+01  0.26391117278E+02  0.47687995356E+02  0.00000000000E+00 0. -1.
         -2    1    5    5    0  502  0.23742677842E+03 -0.84328596255E+02  0.57262312034E+03  0.62560372858E+03  0.00000000000E+00 0.  1.
         -4    1    6    6    0  503 -0.56941347682E+03  0.27360724512E+02  0.88593276505E+03  0.10534975942E+04  0.00000000000E+00 0.  1.
<mgrwt>
<rscale>  0 0.16437424E+04</rscale>
<asrwt>0</asrwt>
<pdfrwt beam="1">  1        2 0.27680730E+00 0.16437424E+04</pdfrwt>
<pdfrwt beam="2">  1       -2 0.57756817E-01 0.16437424E+04</pdfrwt>
<totfact> 0.23166288E+01</totfact>
</mgrwt>
</event>
<event>
12    1  0.4820219E-008  0.1451197E+04  0.7818608E-02  0.8917571E-01
         -1   -1    0    0    0  501 -0.00000000000E+00  0.00000000000E+00  0.93086455437E+03  0.93086455437E+03  0.00000000000E+00 0.  1.
          1   -1    0    0  501    0  0.00000000000E+00 -0.00000000000E+00 -0.56559606577E+03  0.56559606577E+03  0.00000000000E+00 0. -1.
         23    2    1    2    0    0  0.41488852985E+03  0.14587233108E+03 -0.22091276605E+02  0.44899917065E+03  0.87755350632E+02 0.  0.
        254    2    1    2    0    0 -0.41488852985E+03 -0.14587233108E+03  0.38735976520E+03  0.10474614495E+04  0.86816857308E+03 0.  0.
         23    2    4    4    0    0  0.11852719609E+03 -0.28742935765E+03 -0.61697579092E+02  0.33015836248E+03  0.92377601188E+02 0.  0.
         23    2    4    4    0    0 -0.53341572595E+03  0.14155702657E+03  0.44905734429E+03  0.71730308700E+03  0.91107034291E+02 0.  0.
         11    1    3    3    0    0  0.10154758642E+03  0.17260531445E+01 -0.22807381015E+02  0.10409163365E+03  0.00000000000E+00 0. -1.
        -11    1    3    3    0    0  0.31334094343E+03  0.14414627794E+03  0.71610440938E+00  0.34490753700E+03  0.00000000000E+00 0.  1.
          1    1    5    5  502    0  0.11316215106E+03 -0.27045598089E+03 -0.80740736647E+02  0.30409073742E+03  0.00000000000E+00 0. -1.
          3    1    6    6  503    0 -0.47369506674E+03  0.12291200712E+03  0.43118109685E+03  0.65223578254E+03  0.00000000000E+00 0. -1.
         -1    1    5    5    0  502  0.53650450303E+01 -0.16973376760E+02  0.19043157554E+02  0.26067625064E+02  0.00000000000E+00 0.  1.
         -3    1    6    6    0  503 -0.59720659212E+02  0.18645019446E+02  0.17876247439E+02  0.65067304458E+02  0.00000000000E+00 0.  1.
<mgrwt>
<rscale>  0 0.14511972E+04</rscale>
<asrwt>0</asrwt>
<pdfrwt beam="1">  1        1 0.87014779E-01 0.14511972E+04</pdfrwt>
<pdfrwt beam="2">  1       -1 0.14320993E+00 0.14511972E+04</pdfrwt>
<totfact> 0.14298463E+01</totfact>
</mgrwt>
</event>
<event>
12    1  0.4820219E-008  0.1237233E+04  0.7818608E-02  0.9080877E-01
          1   -1    0    0  501    0  0.00000000000E+00  0.00000000000E+00  0.83055608370E+03  0.83055608370E+03  0.00000000000E+00 0. -1.
         -1   -1    0    0    0  501 -0.00000000000E+00 -0.00000000000E+00 -0.46075905248E+03  0.46075905248E+03  0.00000000000E+00 0.  1.
         23    2    1    2    0    0 -0.12213898822E+03 -0.10368349845E+03 -0.15786899599E+03  0.24242778412E+03  0.90445620827E+02 0.  0.
        254    2    1    2    0    0  0.12213898822E+03  0.10368349845E+03  0.52766602721E+03  0.10488873521E+04  0.89222477030E+03 0.  0.
         23    2    4    4    0    0 -0.17175020304E+03 -0.23770873672E+03 -0.48307985290E+02  0.31202691038E+03  0.94992397589E+02 0.  0.
         23    2    4    4    0    0  0.29388919126E+03  0.34139223517E+03  0.57597401250E+03  0.73686044168E+03  0.91091890257E+02 0.  0.
         13    1    3    3    0    0 -0.10602605205E+03 -0.12034516330E+03 -0.13226322215E+03  0.20788949463E+03  0.00000000000E+00 0.  1.
        -13    1    3    3    0    0 -0.16112936166E+02  0.16661664849E+02 -0.25605773833E+02  0.34538289492E+02  0.00000000000E+00 0. -1.
          2    1    5    5  502    0 -0.17776212949E+03 -0.23113748644E+03 -0.59628254089E+02  0.29762298468E+03  0.00000000000E+00 0.  1.
          1    1    6    6  503    0  0.11436749327E+03  0.82067763135E+02  0.13788574002E+03  0.19704699583E+03  0.00000000000E+00 0. -1.
         -2    1    5    5    0  502  0.60119264547E+01 -0.65712502737E+01  0.11320268799E+02  0.14403925699E+02  0.00000000000E+00 0. -1.
         -1    1    6    6    0  503  0.17952169798E+03  0.25932447203E+03  0.43808827247E+03  0.53981344585E+03  0.00000000000E+00 0.  1.
<mgrwt>
<rscale>  0 0.12372328E+04</rscale>
<asrwt>0</asrwt>
<pdfrwt beam="1">  1        1 0.12777786E+00 0.12372328E+04</pdfrwt>
<pdfrwt beam="2">  1       -1 0.70886008E-01 0.12372328E+04</pdfrwt>
<totfact> 0.41298972E+01</totfact>
</mgrwt>
</event>
<event>
12    1  0.5129422E-008  0.2152374E+04  0.7818608E-02  0.8538517E-01
          2   -1    0    0  501    0  0.00000000000E+00  0.00000000000E+00  0.13491362057E+04  0.13491362057E+04  0.00000000000E+00 0. -1.
         -2   -1    0    0    0  501 -0.00000000000E+00 -0.00000000000E+00 -0.85845946954E+03  0.85845946954E+03  0.00000000000E+00 0.  1.
         23    2    1    2    0    0 -0.44310273870E+03  0.12633770238E+02  0.98733125390E+03  0.10860096345E+04  0.89968172907E+02 0.  0.
        254    2    1    2    0    0  0.44310273870E+03 -0.12633770238E+02 -0.49665451772E+03  0.11215860407E+04  0.90265712628E+03 0.  0.
         23    2    4    4    0    0 -0.20294957621E+02  0.14066387773E+03  0.20158630386E+03  0.26355246083E+03  0.92868993220E+02 0.  0.
         23    2    4    4    0    0  0.46339769632E+03 -0.15329764797E+03 -0.69824082158E+03  0.85803357992E+03  0.10219484096E+03 0.  0.
         11    1    3    3    0    0 -0.40246312088E+03  0.37207821633E+02  0.86451001811E+03  0.95432623199E+03  0.00000000000E+00 0. -1.
        -11    1    3    3    0    0 -0.40639617825E+02 -0.24574051395E+02  0.12282123579E+03  0.13168340252E+03  0.00000000000E+00 0.  1.
          4    1    5    5  502    0 -0.26742822878E+02  0.96337295533E+02  0.19382471847E+03  0.21809189480E+03  0.00000000000E+00 0. -1.
          1    1    6    6  503    0  0.39979560346E+03 -0.94115507918E+02 -0.59678926577E+03  0.72446648032E+03  0.00000000000E+00 0. -1.
         -4    1    5    5    0  502  0.64478652575E+01  0.44326582199E+02  0.77615853839E+01  0.45460566027E+02  0.00000000000E+00 0.  1.
         -1    1    6    6    0  503  0.63602092863E+02 -0.59182140053E+02 -0.10145155581E+03  0.13356709959E+03  0.00000000000E+00 0.  1.
<mgrwt>
<rscale>  0 0.21523743E+04</rscale>
<asrwt>0</asrwt>
<pdfrwt beam="1">  1        2 0.20755942E+00 0.21523743E+04</pdfrwt>
<pdfrwt beam="2">  1       -2 0.13207069E+00 0.21523743E+04</pdfrwt>
<totfact> 0.59274008E+00</totfact>
</mgrwt>
</event>
<event>
12    1  0.4820219E-008  0.1759685E+04  0.7818608E-02  0.8728037E-01
         -1   -1    0    0    0  501 -0.00000000000E+00  0.00000000000E+00  0.44403550530E+03  0.44403550530E+03  0.00000000000E+00 0.  1.
          1   -1    0    0  501    0  0.00000000000E+00 -0.00000000000E+00 -0.17433810937E+04  0.17433810937E+04  0.00000000000E+00 0. -1.
         23    2    1    2    0    0 -0.39909874395E+03 -0.46319607375E+03 -0.22630430037E+03  0.65858151735E+03  0.93196397353E+02 0.  0.
        254    2    1    2    0    0  0.39909874395E+03  0.46319607375E+03 -0.10730412880E+04  0.15288350816E+04  0.90115963672E+03 0.  0.
         23    2    4    4    0    0 -0.21445454576E+03  0.40228320974E+03 -0.45617077001E+03  0.65177939116E+03  0.94350783204E+02 0.  0.
         23    2    4    4    0    0  0.61355328971E+03  0.60912864008E+02 -0.61687051798E+03  0.87705569045E+03  0.92409046525E+02 0.  0.
         11    1    3    3    0    0 -0.30701963720E+02 -0.38870284739E+02 -0.48161806809E+02  0.69087402954E+02  0.00000000000E+00 0. -1.
        -11    1    3    3    0    0 -0.36839678023E+03 -0.42432578901E+03 -0.17814249356E+03  0.58949411440E+03  0.00000000000E+00 0.  1.
          1    1    5    5  502    0 -0.21899407979E+03  0.38460494992E+03 -0.45288696696E+03  0.63323453738E+03  0.00000000000E+00 0. -1.
          3    1    6    6  503    0  0.56599992764E+03  0.79216685870E+02 -0.57912055993E+03  0.81364109062E+03  0.00000000000E+00 0. -1.
         -1    1    5    5    0  502  0.45395340245E+01  0.17678259816E+02 -0.32838030518E+01  0.18544853781E+02  0.00000000000E+00 0.  1.
         -3    1    6    6    0  503  0.47553362069E+02 -0.18303821862E+02 -0.37749958052E+02  0.63414599831E+02  0.00000000000E+00 0.  1.
<mgrwt>
<rscale>  0 0.17596853E+04</rscale>
<asrwt>0</asrwt>
<pdfrwt beam="1">  1        1 0.26821248E+00 0.17596853E+04</pdfrwt>
<pdfrwt beam="2">  1       -1 0.68313155E-01 0.17596853E+04</pdfrwt>
<totfact> 0.91432911E+00</totfact>
</mgrwt>
</event>
<event>
12    1  0.4820219E-008  0.2723487E+04  0.7818608E-02  0.8327424E-01
         -2   -1    0    0    0  501 -0.00000000000E+00  0.00000000000E+00  0.10471317559E+04  0.10471317559E+04  0.00000000000E+00 0.  1.
          2   -1    0    0  501    0  0.00000000000E+00 -0.00000000000E+00 -0.17708803571E+04  0.17708803571E+04  0.00000000000E+00 0. -1.
         23    2    1    2    0    0 -0.93687321152E+03  0.23269042757E+03 -0.10802109243E+04  0.14514107625E+04  0.88664034863E+02 0.  0.
        254    2    1    2    0    0  0.93687321152E+03 -0.23269042757E+03  0.35646232310E+03  0.13666013505E+04  0.89925392068E+03 0.  0.
         23    2    4    4    0    0 -0.13620502793E+03 -0.17424186307E+03  0.39673273977E+02  0.24249979171E+03  0.91214822449E+02 0.  0.
         23    2    4    4    0    0  0.10730782394E+04 -0.58448564508E+02  0.31678904912E+03  0.11241015588E+04  0.91300986579E+02 0.  0.
         11    1    3    3    0    0 -0.72816085582E+03  0.16320163526E+03 -0.88180872189E+03  0.11551794786E+04  0.00000000000E+00 0. -1.
        -11    1    3    3    0    0 -0.20871235570E+03  0.69488792317E+02 -0.19840220237E+03  0.29623128394E+03  0.00000000000E+00 0.  1.
          2    1    5    5  502    0 -0.11720854003E+03 -0.11422822954E+03  0.62996392539E+02  0.17536954055E+03  0.00000000000E+00 0. -1.
          1    1    6    6  503    0  0.74601840690E+03 -0.74152395765E+02  0.19389919584E+03  0.77436357054E+03  0.00000000000E+00 0. -1.
         -2    1    5    5    0  502 -0.18996487899E+02 -0.60013633527E+02 -0.23323118561E+02  0.67130251162E+02  0.00000000000E+00 0.  1.
         -1    1    6    6    0  503  0.32705983255E+03  0.15703831257E+02  0.12288985328E+03  0.34973798825E+03  0.00000000000E+00 0.  1.
<mgrwt>
<rscale>  0 0.27234868E+04</rscale>
<asrwt>0</asrwt>
<pdfrwt beam="1">  1        2 0.27244313E+00 0.27234868E+04</pdfrwt>
<pdfrwt beam="2">  1       -2 0.16109719E+00 0.27234868E+04</pdfrwt>
<totfact> 0.19391659E+00</totfact>
</mgrwt>
</event>
<event>
12    1  0.4820219E-008  0.1608968E+04  0.7818608E-02  0.8815058E-01
         -3   -1    0    0    0  501 -0.00000000000E+00  0.00000000000E+00  0.60281344740E+03  0.60281344740E+03  0.00000000000E+00 0.  1.
          3   -1    0    0  501    0  0.00000000000E+00 -0.00000000000E+00 -0.10736230677E+04  0.10736230677E+04  0.00000000000E+00 0. -1.
         23    2    1    2    0    0  0.44328207790E+03 -0.24007385553E+03  0.64962501225E+02  0.51655327479E+03  0.92047283724E+02 0.  0.
        254    2    1    2    0    0 -0.44328207790E+03  0.24007385553E+03 -0.53577212151E+03  0.11598832403E+04  0.89674015648E+03 0.  0.
         23    2    4    4    0    0 -0.12276569569E+03 -0.85856660698E+02 -0.65518259147E+03  0.67847776919E+03  0.92871270538E+02 0.  0.
         23    2    4    4    0    0 -0.32051638220E+03  0.32593051623E+03  0.11941046996E+03  0.48140547111E+03  0.92362950433E+02 0.  0.
         13    1    3    3    0    0  0.73586134419E+02 -0.58641205541E+02 -0.19675090459E+02  0.96129180537E+02  0.00000000000E+00 0. -1.
        -13    1    3    3    0    0  0.36969594348E+03 -0.18143264999E+03  0.84637591684E+02  0.42042409426E+03  0.00000000000E+00 0.  1.
          1    1    6    6  502    0 -0.54537749922E+02  0.19793040699E+02  0.33043323742E+02  0.66768195053E+02  0.00000000000E+00 0. -1.
          1    1    5    5  503    0  0.73473168952E+01 -0.27446744813E+02 -0.18406883122E+03  0.18624886978E+03  0.00000000000E+00 0. -1.
         -1    1    5    5    0  503 -0.13011301259E+03 -0.58409915884E+02 -0.47111376025E+03  0.49222889941E+03  0.00000000000E+00 0.  1.
         -1    1    6    6    0  502 -0.26597863228E+03  0.30613747553E+03  0.86367146218E+02  0.41463727606E+03  0.00000000000E+00 0.  1.
<mgrwt>
<rscale>  0 0.16089679E+04</rscale>
<asrwt>0</asrwt>
<pdfrwt beam="1">  1        3 0.16517278E+00 0.16089679E+04</pdfrwt>
<pdfrwt beam="2">  1       -3 0.92740531E-01 0.16089679E+04</pdfrwt>
<totfact> 0.65532157E-01</totfact>
</mgrwt>
</event>
<event>
12    1  0.4820219E-008  0.2325648E+04  0.7818608E-02  0.8467877E-01
         -1   -1    0    0    0  501 -0.00000000000E+00  0.00000000000E+00  0.43778528356E+03  0.43778528356E+03  0.00000000000E+00 0.  1.
          1   -1    0    0  501    0  0.00000000000E+00 -0.00000000000E+00 -0.30886353340E+04  0.30886353340E+04  0.00000000000E+00 0. -1.
         23    2    1    2    0    0 -0.78211256036E+03 -0.31842202415E+03 -0.18864323069E+04  0.20688476323E+04  0.91711692735E+02 0.  0.
        254    2    1    2    0    0  0.78211256036E+03  0.31842202415E+03 -0.76441774355E+03  0.14575729853E+04  0.90944591825E+03 0.  0.
         23    2    4    4    0    0  0.10437356696E+03 -0.29279867157E+03 -0.19541122029E+03  0.37833414025E+03  0.91248414274E+02 0.  0.
         23    2    4    4    0    0  0.67773899340E+03  0.61122069572E+03 -0.56900652325E+03  0.10792388450E+04  0.89817476279E+02 0.  0.
         11    1    3    3    0    0 -0.20383135493E+02 -0.26251527755E+02 -0.63194143723E+02  0.71401083485E+02  0.00000000000E+00 0.  1.
        -11    1    3    3    0    0 -0.76172942487E+03 -0.29217049639E+03 -0.18232381632E+04  0.19974465488E+04  0.00000000000E+00 0. -1.
          4    1    5    5  502    0  0.29198158697E+02 -0.21039466467E+03 -0.12686243693E+03  0.24741165150E+03  0.00000000000E+00 0. -1.
          1    1    6    6  503    0  0.58105964006E+03  0.54900241793E+03 -0.52369542993E+03  0.95566252596E+03  0.00000000000E+00 0. -1.
         -4    1    5    5    0  502  0.75175408258E+02 -0.82404006907E+02 -0.68548783363E+02  0.13092248875E+03  0.00000000000E+00 0.  1.
         -1    1    6    6    0  503  0.96679353344E+02  0.62218277794E+02 -0.45311093318E+02  0.12357631906E+03  0.00000000000E+00 0.  1.
<mgrwt>
<rscale>  0 0.23256475E+04</rscale>
<asrwt>0</asrwt>
<pdfrwt beam="1">  1        1 0.47517466E+00 0.23256475E+04</pdfrwt>
<pdfrwt beam="2">  1       -1 0.67351583E-01 0.23256475E+04</pdfrwt>
<totfact> 0.10367836E+00</totfact>
</mgrwt>
</event>
<event>
12    1  0.4820219E-008  0.1903657E+04  0.7818608E-02  0.8653038E-01
         -1   -1    0    0    0  501 -0.00000000000E+00  0.00000000000E+00  0.66916010097E+03  0.66916010097E+03  0.00000000000E+00 0.  1.
          1   -1    0    0  501    0  0.00000000000E+00 -0.00000000000E+00 -0.13539029986E+04  0.13539029986E+04  0.00000000000E+00 0. -1.
         23    2    1    2    0    0  0.50313767900E+03  0.42121996531E+03 -0.61782937641E+03  0.90586052637E+03  0.91084420582E+02 0.  0.
        254    2    1    2    0    0 -0.50313767900E+03 -0.42121996531E+03 -0.66913521267E+02  0.11172025732E+04  0.90171524726E+03 0.  0.
         23    2    4    4    0    0 -0.64768336236E+03 -0.38457209146E+02  0.10604365617E+03  0.66372676644E+03  0.91188094975E+02 0.  0.
         23    2    4    4    0    0  0.14454568336E+03 -0.38276275616E+03 -0.17295717743E+03  0.45347580680E+03  0.91243301376E+02 0.  0.
         11    1    3    3    0    0  0.33820578481E+03  0.33625992444E+03 -0.44819432378E+03  0.65447081030E+03  0.00000000000E+00 0. -1.
        -11    1    3    3    0    0  0.16493189419E+03  0.84960040869E+02 -0.16963505264E+03  0.25138971607E+03  0.00000000000E+00 0.  1.
          2    1    5    5  502    0 -0.54002671932E+03 -0.48470353987E+01  0.10885770926E+03  0.55091047566E+03  0.00000000000E+00 0. -1.
          3    1    6    6  503    0  0.15626075806E+03 -0.33261243025E+03 -0.14695037325E+03  0.39578133542E+03  0.00000000000E+00 0. -1.
         -2    1    5    5    0  502 -0.10765664304E+03 -0.33610173748E+02 -0.28140530935E+01  0.11281629078E+03  0.00000000000E+00 0.  1.
         -3    1    6    6    0  503 -0.11715074703E+02 -0.50150325915E+02 -0.26006804182E+02  0.57694471385E+02  0.00000000000E+00 0.  1.
<mgrwt>
<rscale>  0 0.19036574E+04</rscale>
<asrwt>0</asrwt>
<pdfrwt beam="1">  1        1 0.20829277E+00 0.19036574E+04</pdfrwt>
<pdfrwt beam="2">  1       -1 0.10294771E+00 0.19036574E+04</pdfrwt>
<totfact> 0.69036945E+00</totfact>
</mgrwt>
</event>
<event>
12    1  0.4820219E-008  0.2304318E+04  0.7818608E-02  0.8476221E-01
          1   -1    0    0  501    0  0.00000000000E+00  0.00000000000E+00  0.27150272330E+04  0.27150272330E+04  0.00000000000E+00 0. -1.
         -1   -1    0    0    0  501 -0.00000000000E+00 -0.00000000000E+00 -0.48893431070E+03  0.48893431070E+03  0.00000000000E+00 0.  1.
         23    2    1    2    0    0 -0.29756745965E+03  0.56615339773E+03  0.19662927888E+04  0.20696967983E+04  0.90892479848E+02 0.  0.
        254    2    1    2    0    0  0.29756745965E+03 -0.56615339773E+03  0.25980013351E+03  0.11342647454E+04  0.89999130021E+03 0.  0.
         23    2    4    4    0    0 -0.10473032651E+03  0.10001840970E+03  0.30565213710E+03  0.34952120077E+03  0.88145999938E+02 0.  0.
         23    2    4    4    0    0  0.40229778616E+03 -0.66617180743E+03 -0.45852003582E+02  0.78474354462E+03  0.89953537006E+02 0.  0.
         13    1    3    3    0    0 -0.25011683810E+03  0.39284722404E+03  0.13773702119E+04  0.14539725151E+04  0.00000000000E+00 0. -1.
        -13    1    3    3    0    0 -0.47450621557E+02  0.17330617369E+03  0.58892257689E+03  0.61572428318E+03  0.00000000000E+00 0.  1.
          2    1    5    5  502    0 -0.43373190074E+02  0.31830482471E+02  0.36101164799E+02  0.64789716247E+02  0.00000000000E+00 0. -1.
          3    1    6    6  503    0  0.70729716718E+02 -0.19254889519E+03 -0.58388139979E+01  0.20521174824E+03  0.00000000000E+00 0. -1.
         -2    1    5    5    0  502 -0.61357136436E+02  0.68187927234E+02  0.26955097230E+03  0.28473148452E+03  0.00000000000E+00 0.  1.
         -3    1    6    6    0  503  0.33156806944E+03 -0.47362291224E+03 -0.40013189584E+02  0.57953179638E+03  0.00000000000E+00 0.  1.
<mgrwt>
<rscale>  0 0.23043177E+04</rscale>
<asrwt>0</asrwt>
<pdfrwt beam="1">  1        1 0.41769649E+00 0.23043177E+04</pdfrwt>
<pdfrwt beam="2">  1       -1 0.75220665E-01 0.23043177E+04</pdfrwt>
<totfact> 0.15377053E+00</totfact>
</mgrwt>
</event>
<event>
12    1  0.4820219E-008  0.1597863E+04  0.7818608E-02  0.8821862E-01
          2   -1    0    0  501    0  0.00000000000E+00  0.00000000000E+00  0.14489002457E+04  0.14489002457E+04  0.00000000000E+00 0. -1.
         -2   -1    0    0    0  501 -0.00000000000E+00 -0.00000000000E+00 -0.44053532604E+03  0.44053532604E+03  0.00000000000E+00 0.  1.
         23    2    1    2    0    0 -0.11785961271E+03 -0.25020860218E+02 -0.27704436466E+03  0.31584366153E+03  0.92123323772E+02 0.  0.
        254    2    1    2    0    0  0.11785961271E+03  0.25020860218E+02  0.12854092843E+04  0.15735919102E+04  0.89966523772E+03 0.  0.
         23    2    4    4    0    0 -0.13385279889E+03  0.14945587597E+03 -0.32340643824E+02  0.22305797403E+03  0.91952769952E+02 0.  0.
         23    2    4    4    0    0  0.25171241161E+03 -0.12443501575E+03  0.13177499282E+04  0.13505339362E+04  0.92918396423E+02 0.  0.
         11    1    3    3    0    0  0.14626888911E+02  0.35417485628E+01 -0.40752979573E+02  0.43443011017E+02  0.00000000000E+00 0. -1.
        -11    1    3    3    0    0 -0.13248650163E+03 -0.28562608781E+02 -0.23629138508E+03  0.27240065051E+03  0.00000000000E+00 0.  1.
          2    1    5    5  502    0 -0.94881845447E+02  0.13254360641E+03  0.96970185569E+01  0.16329238918E+03  0.00000000000E+00 0. -1.
          4    1    6    6  503    0  0.21528168359E+03 -0.13096814708E+03  0.12254412151E+04  0.12510815443E+04  0.00000000000E+00 0. -1.
         -2    1    5    5    0  502 -0.38970953444E+02  0.16912269565E+02 -0.42037662381E+02  0.59765584851E+02  0.00000000000E+00 0.  1.
         -4    1    6    6    0  503  0.36430728020E+02  0.65331313248E+01  0.92308713038E+02  0.99452391885E+02  0.00000000000E+00 0.  1.
<mgrwt>
<rscale>  0 0.15978633E+04</rscale>
<asrwt>0</asrwt>
<pdfrwt beam="1">  1        2 0.22290773E+00 0.15978633E+04</pdfrwt>
<pdfrwt beam="2">  1       -2 0.67774666E-01 0.15978633E+04</pdfrwt>
<totfact> 0.25955785E+01</totfact>
</mgrwt>
</event>
<event>
12    1  0.4820219E-008  0.2256751E+04  0.7818608E-02  0.8495171E-01
         -2   -1    0    0    0  501 -0.00000000000E+00  0.00000000000E+00  0.40844306256E+03  0.40844306256E+03  0.00000000000E+00 0.  1.
          2   -1    0    0  501    0  0.00000000000E+00 -0.00000000000E+00 -0.31172810822E+04  0.31172810822E+04  0.00000000000E+00 0. -1.
         23    2    1    2    0    0  0.17361043588E+03 -0.62974296678E+03 -0.66250109701E+02  0.66286145391E+03  0.90991441260E+02 0.  0.
        254    2    1    2    0    0 -0.17361043588E+03  0.62974296678E+03 -0.26425879099E+04  0.28628626908E+04  0.88656366790E+03 0.  0.
         23    2    4    4    0    0  0.26638002630E+02  0.35901054339E+03 -0.24215578329E+04  0.24500385712E+04  0.95647835269E+02 0.  0.
         23    2    4    4    0    0 -0.20024843851E+03  0.27073242339E+03 -0.22103007697E+03  0.41282411968E+03  0.90410047335E+02 0.  0.
         13    1    3    3    0    0  0.99105655802E+02 -0.33859949766E+03  0.95118853198E+01  0.35293345944E+03  0.00000000000E+00 0.  1.
        -13    1    3    3    0    0  0.74504780077E+02 -0.29114346912E+03 -0.75761995021E+02  0.30992799447E+03  0.00000000000E+00 0. -1.
          2    1    5    5  502    0  0.16321965300E+01  0.31500978593E+01 -0.15386603545E+01  0.38671252529E+01  0.00000000000E+00 0. -1.
          1    1    6    6  503    0 -0.36556962220E+00  0.30297267659E+01 -0.25577162320E+02  0.25758573675E+02  0.00000000000E+00 0. -1.
         -2    1    5    5    0  502  0.25005806100E+02  0.35586044553E+03 -0.24200191726E+04  0.24461714459E+04  0.00000000000E+00 0.  1.
         -1    1    6    6    0  503 -0.19988286889E+03  0.26770269663E+03 -0.19545291465E+03  0.38706554600E+03  0.00000000000E+00 0.  1.
<mgrwt>
<rscale>  0 0.22567515E+04</rscale>
<asrwt>0</asrwt>
<pdfrwt beam="1">  1        2 0.47958169E+00 0.22567515E+04</pdfrwt>
<pdfrwt beam="2">  1       -2 0.62837396E-01 0.22567515E+04</pdfrwt>
<totfact> 0.31373539E+00</totfact>
</mgrwt>
</event>
<event>
12    1  0.4820219E-008  0.3833450E+04  0.7818608E-02  0.8039014E-01
         -1   -1    0    0    0  501 -0.00000000000E+00  0.00000000000E+00  0.15894503780E+04  0.15894503780E+04  0.00000000000E+00 0.  1.
          1   -1    0    0  501    0  0.00000000000E+00 -0.00000000000E+00 -0.23113868152E+04  0.23113868152E+04  0.00000000000E+00 0. -1.
         23    2    1    2    0    0 -0.11083136456E+04 -0.13269556530E+04 -0.80846553684E+03  0.19108195877E+04  0.91894124710E+02 0.  0.
        254    2    1    2    0    0  0.11083136456E+04  0.13269556530E+04  0.86529099719E+02  0.19900176056E+04  0.98158664578E+03 0.  0.
         23    2    4    4    0    0  0.13945616114E+03  0.89984874015E+03  0.14035991807E+03  0.92601839030E+03  0.92915964932E+02 0.  0.
         23    2    4    4    0    0  0.96885748445E+03  0.42710691290E+03 -0.53830818350E+02  0.10639992153E+04  0.89952392103E+02 0.  0.
         11    1    3    3    0    0 -0.10080905410E+04 -0.11845613503E+04 -0.75252818837E+03  0.17279267362E+04  0.00000000000E+00 0. -1.
        -11    1    3    3    0    0 -0.10022310456E+03 -0.14239430277E+03 -0.55937348466E+02  0.18289285142E+03  0.00000000000E+00 0.  1.
          2    1    5    5  502    0  0.10931360528E+03  0.42776581333E+03  0.86650201137E+02  0.44993478718E+03  0.00000000000E+00 0. -1.
          4    1    6    6  503    0  0.10665165569E+03  0.52907173070E+02 -0.34275369458E+02  0.12388924722E+03  0.00000000000E+00 0. -1.
         -2    1    5    5    0  502  0.30142555855E+02  0.47208292682E+03  0.53709716932E+02  0.47608360312E+03  0.00000000000E+00 0.  1.
         -4    1    6    6    0  503  0.86220582876E+03  0.37419973983E+03 -0.19555448892E+02  0.94010996804E+03  0.00000000000E+00 0.  1.
<mgrwt>
<rscale>  0 0.38334500E+04</rscale>
<asrwt>0</asrwt>
<pdfrwt beam="1">  1        1 0.35559797E+00 0.38334500E+04</pdfrwt>
<pdfrwt beam="2">  1       -1 0.24453083E+00 0.38334500E+04</pdfrwt>
<totfact> 0.10981691E-01</totfact>
</mgrwt>
</event>
<event>
12    1  0.4820219E-008  0.1966850E+04  0.7818608E-02  0.8622278E-01
          1   -1    0    0  501    0  0.00000000000E+00  0.00000000000E+00  0.23886417452E+04  0.23886417452E+04  0.00000000000E+00 0. -1.
         -1   -1    0    0    0  501 -0.00000000000E+00 -0.00000000000E+00 -0.40488462879E+03  0.40488462879E+03  0.00000000000E+00 0.  1.
         23    2    1    2    0    0 -0.29043731597E+03 -0.50035610283E+03  0.63940077934E+02  0.58958127120E+03  0.93849228195E+02 0.  0.
        254    2    1    2    0    0  0.29043731597E+03  0.50035610283E+03  0.19198170385E+04  0.22039451028E+04  0.91485872720E+03 0.  0.
         23    2    4    4    0    0 -0.19056112990E+03 -0.14411007610E+03  0.30616095477E+03  0.39865136476E+03  0.90039558741E+02 0.  0.
         23    2    4    4    0    0  0.48099844587E+03  0.64446617893E+03  0.16136560837E+04  0.18052937380E+04  0.92213683215E+02 0.  0.
         13    1    3    3    0    0 -0.23658441174E+03 -0.32172571297E+03  0.50441832087E+02  0.40252204497E+03  0.00000000000E+00 0.  1.
        -13    1    3    3    0    0 -0.53852904238E+02 -0.17863038986E+03  0.13498245847E+02  0.18705922623E+03  0.00000000000E+00 0. -1.
          4    1    5    5  502    0 -0.15022122024E+03 -0.15223333263E+03  0.26360888049E+03  0.33945698467E+03  0.00000000000E+00 0. -1.
          3    1    6    6  503    0  0.38840824242E+03  0.53422080339E+03  0.12415365977E+04  0.14062951159E+04  0.00000000000E+00 0. -1.
         -4    1    5    5    0  502 -0.40339909663E+02  0.81232565269E+01  0.42552074286E+02  0.59194380091E+02  0.00000000000E+00 0.  1.
         -3    1    6    6    0  503  0.92590203460E+02  0.11024537554E+03  0.37211948597E+03  0.39899862211E+03  0.00000000000E+00 0.  1.
<mgrwt>
<rscale>  0 0.19668496E+04</rscale>
<asrwt>0</asrwt>
<pdfrwt beam="1">  1        1 0.36748334E+00 0.19668496E+04</pdfrwt>
<pdfrwt beam="2">  1       -1 0.62289944E-01 0.19668496E+04</pdfrwt>
<totfact> 0.39352523E+00</totfact>
</mgrwt>
</event>
<event>
12    1  0.4820219E-008  0.1454421E+04  0.7818608E-02  0.8915341E-01
          2   -1    0    0  501    0  0.00000000000E+00  0.00000000000E+00  0.61704303297E+03  0.61704303297E+03  0.00000000000E+00 0. -1.
         -2   -1    0    0    0  501 -0.00000000000E+00 -0.00000000000E+00 -0.85704735726E+03  0.85704735726E+03  0.00000000000E+00 0.  1.
         23    2    1    2    0    0 -0.24391888237E+03  0.36124932334E+03 -0.16887266658E+03  0.47615946746E+03  0.90622106268E+02 0.  0.
        254    2    1    2    0    0  0.24391888237E+03 -0.36124932334E+03 -0.71131657712E+02  0.99793092277E+03  0.89487927627E+03 0.  0.
         23    2    4    4    0    0 -0.61988682748E+02 -0.40912152256E+03 -0.36711392405E+03  0.56090090997E+03  0.92812609926E+02 0.  0.
         23    2    4    4    0    0  0.30590756512E+03  0.47872199217E+02  0.29598226633E+03  0.43703001280E+03  0.86709539572E+02 0.  0.
         11    1    3    3    0    0 -0.22473574492E+03  0.36051605959E+03 -0.16831254240E+03  0.45695415108E+03  0.00000000000E+00 0.  1.
        -11    1    3    3    0    0 -0.19183137448E+02  0.73326375691E+00 -0.56012418221E+00  0.19205316379E+02  0.00000000000E+00 0. -1.
          3    1    6    6  502    0  0.20738327138E+03 -0.78393171068E-01  0.22739847400E+03  0.30776272252E+03  0.00000000000E+00 0. -1.
          3    1    5    5  503    0 -0.51228283437E+01 -0.68435849616E+02 -0.11257194876E+03  0.13184139156E+03  0.00000000000E+00 0. -1.
         -3    1    5    5    0  503 -0.56865854404E+02 -0.34068567294E+03 -0.25454197529E+03  0.42905951840E+03  0.00000000000E+00 0.  1.
         -3    1    6    6    0  502  0.98524293735E+02  0.47950592388E+02  0.68583792330E+02  0.12926729028E+03  0.00000000000E+00 0.  1.
<mgrwt>
<rscale>  0 0.14544210E+04</rscale>
<asrwt>0</asrwt>
<pdfrwt beam="1">  1        2 0.94929698E-01 0.14544210E+04</pdfrwt>
<pdfrwt beam="2">  1       -2 0.13185344E+00 0.14544210E+04</pdfrwt>
<totfact> 0.19461630E+01</totfact>
</mgrwt>
</event>
<event>
12    1  0.4820219E-008  0.1663973E+04  0.7818608E-02  0.8782183E-01
          1   -1    0    0  501    0  0.00000000000E+00  0.00000000000E+00  0.15347200767E+04  0.15347200767E+04  0.00000000000E+00 0. -1.
         -1   -1    0    0    0  501 -0.00000000000E+00 -0.00000000000E+00 -0.45102763372E+03  0.45102763372E+03  0.00000000000E+00 0.  1.
         23    2    1    2    0    0 -0.98164044655E+02 -0.40420970396E+03 -0.10561536216E+03  0.43887603788E+03  0.91847196276E+02 0.  0.
        254    2    1    2    0    0  0.98164044655E+02  0.40420970396E+03  0.11893078052E+04  0.15468716726E+04  0.89740584548E+03 0.  0.
         23    2    4    4    0    0 -0.12549914092E+03  0.54830100395E+03  0.36825567604E+03  0.67858276697E+03  0.92077702985E+02 0.  0.
         23    2    4    4    0    0  0.22366318557E+03 -0.14409129999E+03  0.82105212912E+03  0.86828890558E+03  0.94928928783E+02 0.  0.
         11    1    3    3    0    0 -0.36250129603E+02 -0.31047992324E+03 -0.91205956218E+02  0.32562306596E+03  0.00000000000E+00 0.  1.
        -11    1    3    3    0    0 -0.61913915052E+02 -0.93729780718E+02 -0.14409405946E+02  0.11325297193E+03  0.00000000000E+00 0. -1.
          4    1    5    5  502    0 -0.98361270185E+02  0.36853954411E+03  0.29654865849E+03  0.48315364212E+03  0.00000000000E+00 0. -1.
          1    1    6    6  503    0  0.90384966632E+02 -0.57239837793E+02  0.48258890183E+03  0.49430546162E+03  0.00000000000E+00 0. -1.
         -4    1    5    5    0  502 -0.27137870731E+02  0.17976145984E+03  0.71707017550E+02  0.19542912484E+03  0.00000000000E+00 0.  1.
         -1    1    6    6    0  503  0.13327821894E+03 -0.86851462197E+02  0.33846322729E+03  0.37398344396E+03  0.00000000000E+00 0.  1.
<mgrwt>
<rscale>  0 0.16639726E+04</rscale>
<asrwt>0</asrwt>
<pdfrwt beam="1">  1        1 0.23611078E+00 0.16639726E+04</pdfrwt>
<pdfrwt beam="2">  1       -1 0.69388867E-01 0.16639726E+04</pdfrwt>
<totfact> 0.12409657E+01</totfact>
</mgrwt>
</event>
<event>
12    1  0.4820219E-008  0.1064919E+04  0.7818608E-02  0.9240075E-01
          1   -1    0    0  501    0  0.00000000000E+00  0.00000000000E+00  0.32645553379E+03  0.32645553379E+03  0.00000000000E+00 0. -1.
         -1   -1    0    0    0  501 -0.00000000000E+00 -0.00000000000E+00 -0.86845871181E+03  0.86845871181E+03  0.00000000000E+00 0.  1.
         23    2    1    2    0    0 -0.73469274086E+02  0.40164453477E+02 -0.22415007645E+03  0.26022831830E+03  0.10229664371E+03 0.  0.
        254    2    1    2    0    0  0.73469274086E+02 -0.40164453477E+02 -0.31785310157E+03  0.93468592730E+03  0.87498358325E+03 0.  0.
         23    2    4    4    0    0  0.19175976386E+03  0.70063465310E+02  0.25057464995E+03  0.33663284299E+03  0.94092080316E+02 0.  0.
         23    2    4    4    0    0 -0.11829048977E+03 -0.11022791879E+03 -0.56842775152E+03  0.59805308431E+03  0.91730850340E+02 0.  0.
         11    1    3    3    0    0 -0.47965874506E+02  0.45169088902E+02 -0.22477367924E+03  0.23423103678E+03  0.00000000000E+00 0.  1.
        -11    1    3    3    0    0 -0.25503399580E+02 -0.50046354257E+01  0.62360279779E+00  0.25997281518E+02  0.00000000000E+00 0. -1.
          1    1    6    6  502    0  0.10274728827E+02  0.31843253773E+01 -0.13586485591E+02  0.17329240356E+02  0.00000000000E+00 0. -1.
          1    1    5    5  503    0  0.16824150816E+03  0.31763608291E+02  0.23119225934E+03  0.28768731751E+03  0.00000000000E+00 0.  1.
         -1    1    5    5    0  503  0.23518255697E+02  0.38299857018E+02  0.19382390611E+02  0.48945525479E+02  0.00000000000E+00 0. -1.
         -1    1    6    6    0  502 -0.12856521860E+03 -0.11341224416E+03 -0.55484126593E+03  0.58072384395E+03  0.00000000000E+00 0.  1.
<mgrwt>
<rscale>  0 0.10649191E+04</rscale>
<asrwt>0</asrwt>
<pdfrwt beam="1">  1        1 0.50223929E-01 0.10649191E+04</pdfrwt>
<pdfrwt beam="2">  1       -1 0.13360903E+00 0.10649191E+04</pdfrwt>
<totfact> 0.37088717E+01</totfact>
</mgrwt>
</event>
<event>
12    1  0.4820219E-008  0.2155961E+04  0.7818608E-02  0.8536985E-01
         -2   -1    0    0    0  501 -0.00000000000E+00  0.00000000000E+00  0.68534689116E+03  0.68534689116E+03  0.00000000000E+00 0.  1.
          2   -1    0    0  501    0  0.00000000000E+00 -0.00000000000E+00 -0.16955537394E+04  0.16955537394E+04  0.00000000000E+00 0. -1.
         23    2    1    2    0    0 -0.82991446828E+03  0.25744488983E+03 -0.22559643303E+03  0.90250822330E+03  0.92690056489E+02 0.  0.
        254    2    1    2    0    0  0.82991446828E+03 -0.25744488983E+03 -0.78461041521E+03  0.14783924073E+04  0.90277057453E+03 0.  0.
         23    2    4    4    0    0  0.33620259901E+03 -0.18442165061E+02 -0.84965010222E+03  0.91844806829E+03  0.90935454583E+02 0.  0.
         23    2    4    4    0    0  0.49371186926E+03 -0.23900272476E+03  0.65039687015E+02  0.55994433897E+03  0.91835666057E+02 0.  0.
         11    1    3    3    0    0 -0.39294240918E+03  0.15300747477E+03 -0.14594570793E+03  0.44622323329E+03  0.00000000000E+00 0.  1.
        -11    1    3    3    0    0 -0.43697205910E+03  0.10443741506E+03 -0.79650725103E+02  0.45628499001E+03  0.00000000000E+00 0. -1.
          2    1    5    5  502    0  0.23078717144E+03 -0.26425509993E+01 -0.67988951562E+03  0.71799683497E+03  0.00000000000E+00 0. -1.
          4    1    6    6  503    0  0.31708782499E+03 -0.13993195047E+03 -0.20848569649E+01  0.34659772958E+03  0.00000000000E+00 0. -1.
         -2    1    5    5    0  502  0.10541542758E+03 -0.15799614061E+02 -0.16976058660E+03  0.20045123332E+03  0.00000000000E+00 0.  1.
         -4    1    6    6    0  503  0.17662404428E+03 -0.99070774293E+02  0.67124543980E+02  0.21334660939E+03  0.00000000000E+00 0.  1.
<mgrwt>
<rscale>  0 0.21559615E+04</rscale>
<asrwt>0</asrwt>
<pdfrwt beam="1">  1        2 0.26085442E+00 0.21559615E+04</pdfrwt>
<pdfrwt beam="2">  1       -2 0.10543798E+00 0.21559615E+04</pdfrwt>
<totfact> 0.65850756E+00</totfact>
</mgrwt>
</event>
<event>
12    1  0.4820219E-008  0.1994541E+04  0.7818608E-02  0.8609177E-01
         -1   -1    0    0    0  501 -0.00000000000E+00  0.00000000000E+00  0.70902636917E+03  0.70902636917E+03  0.00000000000E+00 0.  1.
          1   -1    0    0  501    0  0.00000000000E+00 -0.00000000000E+00 -0.14026953101E+04  0.14026953101E+04  0.00000000000E+00 0. -1.
         23    2    1    2    0    0 -0.67049745525E+03  0.18466770464E+03 -0.68862202180E+03  0.98291417430E+03  0.90834940991E+02 0.  0.
        254    2    1    2    0    0  0.67049745525E+03 -0.18466770464E+03 -0.50469191543E+01  0.11288075050E+04  0.88910736882E+03 0.  0.
         23    2    4    4    0    0  0.64221012149E+03 -0.38956549078E+03  0.24068338222E+03  0.79386089397E+03  0.89952858468E+02 0.  0.
         23    2    4    4    0    0  0.28287333763E+02  0.20489778615E+03 -0.24573030138E+03  0.33494661102E+03  0.94987237025E+02 0.  0.
         11    1    3    3    0    0 -0.37114852203E+03  0.80472246532E+02 -0.31877036431E+03  0.49582411501E+03  0.00000000000E+00 0.  1.
        -11    1    3    3    0    0 -0.29934893322E+03  0.10419545811E+03 -0.36985165749E+03  0.48709005929E+03  0.00000000000E+00 0. -1.
          2    1    5    5  502    0  0.22056904845E+03 -0.87392283275E+02  0.62114647629E+02  0.24524751938E+03  0.00000000000E+00 0. -1.
          1    1    6    6  503    0  0.58162794467E+02  0.17744186992E+03 -0.20827131891E+03  0.27972391771E+03  0.00000000000E+00 0. -1.
         -2    1    5    5    0  502  0.42164107303E+03 -0.30217320751E+03  0.17856873460E+03  0.54861337459E+03  0.00000000000E+00 0.  1.
         -1    1    6    6    0  503 -0.29875460705E+02  0.27455916227E+02 -0.37458982472E+02  0.55222693306E+02  0.00000000000E+00 0.  1.
<mgrwt>
<rscale>  0 0.19945405E+04</rscale>
<asrwt>0</asrwt>
<pdfrwt beam="1">  1        1 0.21579928E+00 0.19945405E+04</pdfrwt>
<pdfrwt beam="2">  1       -1 0.10908098E+00 0.19945405E+04</pdfrwt>
<totfact> 0.55266771E+00</totfact>
</mgrwt>
</event>
<event>
12    1  0.4820219E-008  0.2302138E+04  0.7818608E-02  0.8477079E-01
         -1   -1    0    0    0  501 -0.00000000000E+00  0.00000000000E+00  0.56951407507E+03  0.56951407507E+03  0.00000000000E+00 0.  1.
          1   -1    0    0  501    0  0.00000000000E+00 -0.00000000000E+00 -0.23264746794E+04  0.23264746794E+04  0.00000000000E+00 0. -1.
         23    2    1    2    0    0  0.30630351659E+03 -0.15053065129E+03 -0.17801068595E+04  0.18148619819E+04  0.91990548323E+02 0.  0.
        254    2    1    2    0    0 -0.30630351659E+03  0.15053065129E+03  0.23146255174E+02  0.10811267725E+04  0.10255817997E+04 0.  0.
         23    2    4    4    0    0 -0.58199375737E+03  0.34747916090E+03  0.16547635171E+03  0.70365356478E+03  0.91035242443E+02 0.  0.
         23    2    4    4    0    0  0.27569024079E+03 -0.19694850961E+03 -0.14233009654E+03  0.37747320776E+03  0.86222629819E+02 0.  0.
         11    1    3    3    0    0  0.28585419372E+03 -0.15658417039E+03 -0.15576104454E+04  0.15913458210E+04  0.00000000000E+00 0. -1.
        -11    1    3    3    0    0  0.20449322871E+02  0.60535190960E+01 -0.22249641412E+03  0.22351616093E+03  0.00000000000E+00 0.  1.
          2    1    5    5  502    0 -0.44789844260E+03  0.26005738382E+03  0.86282132908E+02  0.52505948637E+03  0.00000000000E+00 0.  1.
          2    1    6    6  503    0  0.59313612880E+01 -0.24271278388E+01 -0.23412520188E+02  0.24273815065E+02  0.00000000000E+00 0. -1.
         -2    1    5    5    0  502 -0.13409531477E+03  0.87421777078E+02  0.79194218802E+02  0.17859407841E+03  0.00000000000E+00 0. -1.
         -2    1    6    6    0  503  0.26975887950E+03 -0.19452138177E+03 -0.11891757635E+03  0.35319939269E+03  0.00000000000E+00 0.  1.
<mgrwt>
<rscale>  0 0.23021382E+04</rscale>
<asrwt>0</asrwt>
<pdfrwt beam="1">  1        1 0.35791918E+00 0.23021382E+04</pdfrwt>
<pdfrwt beam="2">  1       -1 0.87617551E-01 0.23021382E+04</pdfrwt>
<totfact> 0.20666404E+00</totfact>
</mgrwt>
</event>
<event>
12    1  0.4820219E-008  0.1102535E+04  0.7818608E-02  0.9202725E-01
         -2   -1    0    0    0  501 -0.00000000000E+00  0.00000000000E+00  0.38905008731E+03  0.38905008731E+03  0.00000000000E+00 0.  1.
          2   -1    0    0  501    0  0.00000000000E+00 -0.00000000000E+00 -0.78112214256E+03  0.78112214256E+03  0.00000000000E+00 0. -1.
         23    2    1    2    0    0  0.13804178855E+03 -0.55756426146E+02  0.45309777285E+01  0.17443766819E+03  0.90794580676E+02 0.  0.
        254    2    1    2    0    0 -0.13804178855E+03  0.55756426146E+02 -0.39660303298E+03  0.99573456168E+03  0.90112653780E+03 0.  0.
         23    2    4    4    0    0  0.19765644754E+03  0.14377964927E+03  0.17764173628E+03  0.31860037928E+03  0.10103938050E+03 0.  0.
         23    2    4    4    0    0 -0.33569823609E+03 -0.88023223123E+02 -0.57424476925E+03  0.67713418240E+03  0.91171554960E+02 0.  0.
         13    1    3    3    0    0  0.46799199918E+02 -0.64488448737E+02 -0.14061912236E+02  0.80911448567E+02  0.00000000000E+00 0. -1.
        -13    1    3    3    0    0  0.91242588636E+02  0.87320225909E+01  0.18592889964E+02  0.93526219622E+02  0.00000000000E+00 0.  1.
          2    1    5    5  502    0  0.32003958462E+02 -0.85107861397E+01  0.49788765238E+02  0.59796387699E+02  0.00000000000E+00 0. -1.
          1    1    6    6  503    0 -0.71756044814E+01 -0.76475606235E+01  0.23563998856E+00  0.10489519025E+02  0.00000000000E+00 0. -1.
         -2    1    5    5    0  502  0.16565248908E+03  0.15229043541E+03  0.12785297104E+03  0.25880399158E+03  0.00000000000E+00 0.  1.
         -1    1    6    6    0  503 -0.32852263161E+03 -0.80375662500E+02 -0.57448040924E+03  0.66664466338E+03  0.00000000000E+00 0.  1.
<mgrwt>
<rscale>  0 0.11025346E+04</rscale>
<asrwt>0</asrwt>
<pdfrwt beam="1">  1        2 0.12017264E+00 0.11025346E+04</pdfrwt>
<pdfrwt beam="2">  1       -2 0.59853860E-01 0.11025346E+04</pdfrwt>
<totfact> 0.91921140E+01</totfact>
</mgrwt>
</event>
<event>
12    1  0.4820219E-008  0.2181397E+04  0.7818608E-02  0.8526211E-01
         -1   -1    0    0    0  501 -0.00000000000E+00  0.00000000000E+00  0.13531553756E+04  0.13531553756E+04  0.00000000000E+00 0.  1.
          1   -1    0    0  501    0  0.00000000000E+00 -0.00000000000E+00 -0.87914722423E+03  0.87914722423E+03  0.00000000000E+00 0. -1.
         23    2    1    2    0    0 -0.81405579543E+03  0.27651794126E+03  0.48113971223E+03  0.98949863291E+03  0.91995173365E+02 0.  0.
        254    2    1    2    0    0  0.81405579543E+03 -0.27651794126E+03 -0.71315608401E+01  0.12428039669E+04  0.89741954022E+03 0.  0.
         23    2    4    4    0    0  0.49395790258E+03  0.28057126470E+03 -0.10764739571E+03  0.58455858248E+03  0.86058877785E+02 0.  0.
         23    2    4    4    0    0  0.32009789285E+03 -0.55708920596E+03  0.10051583487E+03  0.65824538447E+03  0.10184551396E+03 0.  0.
         13    1    3    3    0    0 -0.58922861136E+02  0.12193285250E+02  0.61604413095E+02  0.86114362812E+02  0.00000000000E+00 0. -1.
        -13    1    3    3    0    0 -0.75513293430E+03  0.26432465601E+03  0.41953529913E+03  0.90338427009E+03  0.00000000000E+00 0.  1.
          2    1    6    6  502    0  0.82077411349E+02 -0.22821875121E+03  0.62810514647E+02  0.25053075781E+03  0.00000000000E+00 0.  1.
          2    1    5    5  503    0  0.26521362766E+03  0.14387801749E+03 -0.13805618883E+02  0.30204262502E+03  0.00000000000E+00 0. -1.
         -2    1    5    5    0  503  0.22874427492E+03  0.13669324721E+03 -0.93841776826E+02  0.28251595746E+03  0.00000000000E+00 0.  1.
         -2    1    6    6    0  502  0.23802048150E+03 -0.32887045475E+03  0.37705320222E+02  0.40771462666E+03  0.00000000000E+00 0. -1.
<mgrwt>
<rscale>  0 0.21813966E+04</rscale>
<asrwt>0</asrwt>
<pdfrwt beam="1">  1        1 0.13525342E+00 0.21813966E+04</pdfrwt>
<pdfrwt beam="2">  1       -1 0.20817775E+00 0.21813966E+04</pdfrwt>
<totfact> 0.22868628E+00</totfact>
</mgrwt>
</event>
<event>
12    1  0.4820219E-008  0.1845155E+04  0.7818608E-02  0.8682648E-01
         -1   -1    0    0    0  501 -0.00000000000E+00  0.00000000000E+00  0.36368159927E+03  0.36368159927E+03  0.00000000000E+00 0.  1.
          1   -1    0    0  501    0  0.00000000000E+00 -0.00000000000E+00 -0.23403689666E+04  0.23403689666E+04  0.00000000000E+00 0. -1.
         23    2    1    2    0    0  0.18637202134E+03  0.40827828360E+03  0.27263120491E+02  0.45868266401E+03  0.90668745038E+02 0.  0.
        254    2    1    2    0    0 -0.18637202134E+03 -0.40827828360E+03 -0.20039504878E+04  0.22453679018E+04  0.90798335327E+03 0.  0.
         23    2    4    4    0    0 -0.19755297939E+03  0.19870975937E+03 -0.24660457343E+03  0.38356985881E+03  0.88313491706E+02 0.  0.
         23    2    4    4    0    0  0.11180958045E+02 -0.60698804297E+03 -0.17573459144E+04  0.18617980430E+04  0.97302580221E+02 0.  0.
         11    1    3    3    0    0  0.32799410919E+02  0.42300767818E+02 -0.23684515138E+02  0.58533004125E+02  0.00000000000E+00 0. -1.
        -11    1    3    3    0    0  0.15357261042E+03  0.36597751579E+03  0.50947635630E+02  0.40014965989E+03  0.00000000000E+00 0.  1.
          4    1    5    5  502    0 -0.18310257179E+03  0.14848537820E+03 -0.16921473213E+03  0.29018629345E+03  0.00000000000E+00 0. -1.
          3    1    6    6  503    0 -0.19572610471E+02 -0.46071232069E+03 -0.14150430234E+04  0.14882827983E+04  0.00000000000E+00 0. -1.
         -4    1    5    5    0  502 -0.14450407599E+02  0.50224381163E+02 -0.77389841294E+02  0.93383565356E+02  0.00000000000E+00 0.  1.
         -3    1    6    6    0  503  0.30753568516E+02 -0.14627572228E+03 -0.34230289096E+03  0.37351524476E+03  0.00000000000E+00 0.  1.
<mgrwt>
<rscale>  0 0.18451549E+04</rscale>
<asrwt>0</asrwt>
<pdfrwt beam="1">  1        1 0.36005676E+00 0.18451549E+04</pdfrwt>
<pdfrwt beam="2">  1       -1 0.55951016E-01 0.18451549E+04</pdfrwt>
<totfact> 0.53067136E+00</totfact>
</mgrwt>
</event>
<event>
12    1  0.4820219E-008  0.1206733E+04  0.7818608E-02  0.9106983E-01
          1   -1    0    0  501    0  0.00000000000E+00  0.00000000000E+00  0.13260807446E+04  0.13260807446E+04  0.00000000000E+00 0. -1.
         -1   -1    0    0    0  501 -0.00000000000E+00 -0.00000000000E+00 -0.27453178751E+03  0.27453178751E+03  0.00000000000E+00 0.  1.
         23    2    1    2    0    0  0.13179966943E+03  0.95101705285E+02 -0.19230590276E+02  0.18857353559E+03  0.93673237970E+02 0.  0.
        254    2    1    2    0    0 -0.13179966943E+03 -0.95101705285E+02  0.10707795474E+04  0.14120389965E+04  0.90601865403E+03 0.  0.
         23    2    4    4    0    0 -0.18706478748E+03 -0.42960712009E+03  0.90558348586E+03  0.10237365409E+04  0.91649020180E+02 0.  0.
         23    2    4    4    0    0  0.55265118043E+02  0.33450541481E+03  0.16519606151E+03  0.38830245566E+03  0.92417273969E+02 0.  0.
         11    1    3    3    0    0  0.96989222522E+01  0.11175956772E+02 -0.36521540218E+02  0.39405507261E+02  0.00000000000E+00 0.  1.
        -11    1    3    3    0    0  0.12210074718E+03  0.83925748513E+02  0.17290949942E+02  0.14916802833E+03  0.00000000000E+00 0. -1.
          4    1    6    6  502    0  0.18846236052E+02  0.76808824658E+02 -0.17421813895E+01  0.79106329422E+02  0.00000000000E+00 0. -1.
          4    1    5    5  503    0 -0.58928129041E+02 -0.11255153258E+03  0.33808671689E+03  0.36116893556E+03  0.00000000000E+00 0. -1.
         -4    1    5    5    0  503 -0.12813665843E+03 -0.31705558752E+03  0.56749676897E+03  0.66256760530E+03  0.00000000000E+00 0.  1.
         -4    1    6    6    0  502  0.36418881991E+02  0.25769659015E+03  0.16693824290E+03  0.30919612624E+03  0.00000000000E+00 0.  1.
<mgrwt>
<rscale>  0 0.12067333E+04</rscale>
<asrwt>0</asrwt>
<pdfrwt beam="1">  1        1 0.20401242E+00 0.12067333E+04</pdfrwt>
<pdfrwt beam="2">  1       -1 0.42235660E-01 0.12067333E+04</pdfrwt>
<totfact> 0.47221043E+01</totfact>
</mgrwt>
</event>
<event>
12    1  0.4820219E-008  0.2694600E+04  0.7818608E-02  0.8336759E-01
          2   -1    0    0  501    0  0.00000000000E+00  0.00000000000E+00  0.21210969676E+04  0.21210969676E+04  0.00000000000E+00 0. -1.
         -2   -1    0    0    0  501 -0.00000000000E+00 -0.00000000000E+00 -0.85579151152E+03  0.85579151152E+03  0.00000000000E+00 0.  1.
         23    2    1    2    0    0  0.33567213891E+03  0.61719291579E+03 -0.49592696794E+03  0.86479640377E+03  0.91249012584E+02 0.  0.
        254    2    1    2    0    0 -0.33567213891E+03 -0.61719291579E+03  0.17612324240E+04  0.21120920753E+04  0.93026362028E+03 0.  0.
         23    2    4    4    0    0 -0.27509827856E+03 -0.84062405006E+03  0.15442368322E+04  0.17820621167E+04  0.93542168887E+02 0.  0.
         23    2    4    4    0    0 -0.60573860349E+02  0.22343113426E+03  0.21699559178E+03  0.33002995865E+03  0.90785584962E+02 0.  0.
         13    1    3    3    0    0  0.32949618513E+03  0.55120620606E+03 -0.44794859092E+03  0.78297762274E+03  0.00000000000E+00 0.  1.
        -13    1    3    3    0    0  0.61759537768E+01  0.65986709736E+02 -0.47978377022E+02  0.81818781026E+02  0.00000000000E+00 0. -1.
          4    1    5    5  502    0 -0.40943479018E+02 -0.11654789678E+03  0.15664730644E+03  0.19949476016E+03  0.00000000000E+00 0. -1.
          3    1    6    6  503    0 -0.60002720086E+02  0.15424366785E+03  0.19843315284E+03  0.25839340478E+03  0.00000000000E+00 0. -1.
         -4    1    5    5    0  502 -0.23415479954E+03 -0.72407615328E+03  0.13875895258E+04  0.15825673565E+04  0.00000000000E+00 0.  1.
         -3    1    6    6    0  503 -0.57114026302E+00  0.69187466418E+02  0.18562438941E+02  0.71636553867E+02  0.00000000000E+00 0.  1.
<mgrwt>
<rscale>  0 0.26945996E+04</rscale>
<asrwt>0</asrwt>
<pdfrwt beam="1">  1        2 0.32632261E+00 0.26945996E+04</pdfrwt>
<pdfrwt beam="2">  1       -2 0.13166023E+00 0.26945996E+04</pdfrwt>
<totfact> 0.21105548E+00</totfact>
</mgrwt>
</event>
<event>
12    1  0.4820219E-008  0.1177875E+04  0.7818608E-02  0.9132446E-01
          1   -1    0    0  501    0  0.00000000000E+00  0.00000000000E+00  0.12301808591E+04  0.12301808591E+04  0.00000000000E+00 0. -1.
         -1   -1    0    0    0  501 -0.00000000000E+00 -0.00000000000E+00 -0.28194804225E+03  0.28194804225E+03  0.00000000000E+00 0.  1.
         23    2    1    2    0    0 -0.20702743712E+03 -0.40239204493E+02  0.29680252205E+03  0.37500005505E+03  0.89742692708E+02 0.  0.
        254    2    1    2    0    0  0.20702743712E+03  0.40239204493E+02  0.65143029476E+03  0.11371288463E+04  0.90786619651E+03 0.  0.
         23    2    4    4    0    0  0.14973792827E+03  0.24801690862E+03 -0.12359691077E+03  0.32771770406E+03  0.90492337121E+02 0.  0.
         23    2    4    4    0    0  0.57289508846E+02 -0.20777770413E+03  0.77502720553E+03  0.80941114220E+03  0.89585521425E+02 0.  0.
         11    1    3    3    0    0 -0.16263792997E+03 -0.46349604315E+02  0.28007430852E+03  0.32717120959E+03  0.00000000000E+00 0. -1.
        -11    1    3    3    0    0 -0.44389507145E+02  0.61103998224E+01  0.16728213522E+02  0.47828845462E+02  0.00000000000E+00 0.  1.
          1    1    6    6  502    0  0.68488738541E+02 -0.12562901767E+03  0.58201987201E+03  0.59935005531E+03  0.00000000000E+00 0. -1.
          1    1    5    5  503    0  0.15178137180E+03  0.22385194787E+03 -0.13339115056E+03  0.30156339042E+03  0.00000000000E+00 0. -1.
         -1    1    5    5    0  503 -0.20434435287E+01  0.24164960744E+02  0.97942397829E+01  0.26154313643E+02  0.00000000000E+00 0.  1.
         -1    1    6    6    0  502 -0.11199229695E+02 -0.82148686452E+02  0.19300733352E+03  0.21006108689E+03  0.00000000000E+00 0.  1.
<mgrwt>
<rscale>  0 0.11778745E+04</rscale>
<asrwt>0</asrwt>
<pdfrwt beam="1">  1        1 0.18925859E+00 0.11778745E+04</pdfrwt>
<pdfrwt beam="2">  1       -1 0.43376623E-01 0.11778745E+04</pdfrwt>
<totfact> 0.52782183E+01</totfact>
</mgrwt>
</event>
<event>
12    1  0.4820219E-008  0.1718275E+04  0.7818608E-02  0.8751009E-01
         -1   -1    0    0    0  501 -0.00000000000E+00  0.00000000000E+00  0.59076941823E+03  0.59076941823E+03  0.00000000000E+00 0.  1.
          1   -1    0    0  501    0  0.00000000000E+00 -0.00000000000E+00 -0.12494173760E+04  0.12494173760E+04  0.00000000000E+00 0. -1.
         23    2    1    2    0    0 -0.17109448013E+03 -0.30808040174E+03 -0.78302304344E+03  0.86336210466E+03  0.89900957396E+02 0.  0.
        254    2    1    2    0    0  0.17109448013E+03  0.30808040174E+03  0.12437508571E+03  0.97682468953E+03  0.90251341102E+03 0.  0.
         23    2    4    4    0    0  0.14535017134E+03  0.46776371420E+03  0.40292534154E+03  0.64065279887E+03  0.90319506325E+02 0.  0.
         23    2    4    4    0    0  0.25744308791E+02 -0.15968331246E+03 -0.27855025583E+03  0.33617189066E+03  0.96227674480E+02 0.  0.
         11    1    3    3    0    0  0.93297413004E+01 -0.34823247674E+02 -0.69670324738E+02  0.78445247150E+02  0.00000000000E+00 0.  1.
        -11    1    3    3    0    0 -0.18042422143E+03 -0.27325715407E+03 -0.71335271870E+03  0.78491685751E+03  0.00000000000E+00 0. -1.
          4    1    5    5  502    0 -0.11443858607E+02  0.62606860424E+02  0.51965583153E+02  0.82164485664E+02  0.00000000000E+00 0. -1.
          1    1    6    6  503    0 -0.35730518995E+02 -0.46914136329E+02 -0.73722917906E+02  0.94406963725E+02  0.00000000000E+00 0. -1.
         -4    1    5    5    0  502  0.15679402995E+03  0.40515685377E+03  0.35095975838E+03  0.55848831321E+03  0.00000000000E+00 0.  1.
         -1    1    6    6    0  503  0.61474827786E+02 -0.11276917613E+03 -0.20482733792E+03  0.24176492693E+03  0.00000000000E+00 0.  1.
<mgrwt>
<rscale>  0 0.17182754E+04</rscale>
<asrwt>0</asrwt>
<pdfrwt beam="1">  1        1 0.19221806E+00 0.17182754E+04</pdfrwt>
<pdfrwt beam="2">  1       -1 0.90887604E-01 0.17182754E+04</pdfrwt>
<totfact> 0.11047753E+01</totfact>
</mgrwt>
</event>
<event>
12    1  0.4820219E-008  0.2968823E+04  0.7818608E-02  0.8252690E-01
          2   -1    0    0  501    0  0.00000000000E+00  0.00000000000E+00  0.31473355919E+04  0.31473355919E+04  0.00000000000E+00 0. -1.
         -2   -1    0    0    0  501 -0.00000000000E+00 -0.00000000000E+00 -0.70010893547E+03  0.70010893547E+03  0.00000000000E+00 0.  1.
         23    2    1    2    0    0  0.52517160344E+03 -0.91416025195E+03  0.21833892434E+04  0.24263837454E+04  0.93033930466E+02 0.  0.
        254    2    1    2    0    0 -0.52517160344E+03  0.91416025195E+03  0.26383741300E+03  0.14210607820E+04  0.91559236909E+03 0.  0.
         23    2    4    4    0    0 -0.47674881867E+03  0.81935381749E+03  0.55164072089E+03  0.11009364904E+04  0.95517310070E+02 0.  0.
         23    2    4    4    0    0 -0.48422784763E+02  0.94806434454E+02 -0.28780330790E+03  0.32012429163E+03  0.91190964236E+02 0.  0.
         11    1    3    3    0    0  0.49465425618E+03 -0.80666284131E+03  0.19720709224E+04  0.21873389073E+04  0.00000000000E+00 0. -1.
        -11    1    3    3    0    0  0.30517347254E+02 -0.10749741063E+03  0.21131832104E+03  0.23904483802E+03  0.00000000000E+00 0.  1.
          2    1    5    5  502    0 -0.10299935766E+03  0.12579957691E+03  0.66249927826E+02  0.17556609629E+03  0.00000000000E+00 0. -1.
          3    1    6    6  503    0 -0.15162070477E+02 -0.10335517429E+02 -0.92774359007E+01  0.20561666240E+02  0.00000000000E+00 0. -1.
         -2    1    5    5    0  502 -0.37374946101E+03  0.69355424058E+03  0.48539079307E+03  0.92537039408E+03  0.00000000000E+00 0.  1.
         -3    1    6    6    0  503 -0.33260714286E+02  0.10514195188E+03 -0.27852587199E+03  0.29956262539E+03  0.00000000000E+00 0.  1.
<mgrwt>
<rscale>  0 0.29688232E+04</rscale>
<asrwt>0</asrwt>
<pdfrwt beam="1">  1        2 0.48420547E+00 0.29688232E+04</pdfrwt>
<pdfrwt beam="2">  1       -2 0.10770907E+00 0.29688232E+04</pdfrwt>
<totfact> 0.83188620E-01</totfact>
</mgrwt>
</event>
<event>
12    1  0.4820219E-008  0.1756732E+04  0.7818608E-02  0.8729653E-01
          2   -1    0    0  501    0  0.00000000000E+00  0.00000000000E+00  0.17086186702E+04  0.17086186702E+04  0.00000000000E+00 0. -1.
         -2   -1    0    0    0  501 -0.00000000000E+00 -0.00000000000E+00 -0.45155003021E+03  0.45155003021E+03  0.00000000000E+00 0.  1.
         23    2    1    2    0    0  0.24586035594E+03  0.20027370114E+03  0.11457627106E+04  0.11923012344E+04  0.90846984565E+02 0.  0.
        254    2    1    2    0    0 -0.24586035594E+03 -0.20027370114E+03  0.11130592936E+03  0.96786746596E+03  0.90764616000E+03 0.  0.
         23    2    4    4    0    0 -0.25980119558E+03  0.19405165552E+03 -0.25436654429E+03  0.42225847927E+03  0.91908531826E+02 0.  0.
         23    2    4    4    0    0  0.13940839642E+02 -0.39432535666E+03  0.36567247365E+03  0.54560898669E+03  0.91027328078E+02 0.  0.
         13    1    3    3    0    0  0.11774775761E+03  0.64132806372E+02  0.34820783240E+03  0.37313033355E+03  0.00000000000E+00 0.  1.
        -13    1    3    3    0    0  0.12811259833E+03  0.13614089476E+03  0.79755487823E+03  0.81917090089E+03  0.00000000000E+00 0. -1.
          4    1    5    5  502    0 -0.14844345669E+03  0.62930447268E+02 -0.15469937834E+03  0.22344484484E+03  0.00000000000E+00 0. -1.
          3    1    6    6  503    0  0.24892138977E+02 -0.93556909625E+02  0.13638079331E+03  0.16724902004E+03  0.00000000000E+00 0. -1.
         -4    1    5    5    0  502 -0.11135773889E+03  0.13112120826E+03 -0.99667165953E+02  0.19881363443E+03  0.00000000000E+00 0.  1.
         -3    1    6    6    0  503 -0.10951299335E+02 -0.30076844703E+03  0.22929168035E+03  0.37835996665E+03  0.00000000000E+00 0.  1.
<mgrwt>
<rscale>  0 0.17567320E+04</rscale>
<asrwt>0</asrwt>
<pdfrwt beam="1">  1        2 0.26286441E+00 0.17567320E+04</pdfrwt>
<pdfrwt beam="2">  1       -2 0.69469236E-01 0.17567320E+04</pdfrwt>
<totfact> 0.17364672E+01</totfact>
</mgrwt>
</event>
<event>
12    1  0.4820219E-008  0.3227823E+04  0.7818608E-02  0.8181508E-01
         -1   -1    0    0    0  501 -0.00000000000E+00  0.00000000000E+00  0.97072556346E+03  0.97072556346E+03  0.00000000000E+00 0.  1.
          1   -1    0    0  501    0  0.00000000000E+00 -0.00000000000E+00 -0.26832613314E+04  0.26832613314E+04  0.00000000000E+00 0. -1.
         23    2    1    2    0    0  0.66316346556E+03  0.92456229842E+03 -0.18769636983E+04  0.21967587223E+04  0.90304671296E+02 0.  0.
        254    2    1    2    0    0 -0.66316346556E+03 -0.92456229842E+03  0.16442793034E+03  0.14572281726E+04  0.89547539156E+03 0.  0.
         23    2    4    4    0    0 -0.58958228434E+03 -0.10079412956E+04  0.35036193508E+03  0.12225106653E+04  0.90696835002E+02 0.  0.
         23    2    4    4    0    0 -0.73581181219E+02  0.83378997193E+02 -0.18593400474E+03  0.23471750722E+03  0.90302860850E+02 0.  0.
         13    1    3    3    0    0  0.49037421621E+03  0.71963869890E+03 -0.14947732073E+04  0.17299403661E+04  0.00000000000E+00 0. -1.
        -13    1    3    3    0    0  0.17278924934E+03  0.20492359952E+03 -0.38219049102E+03  0.46681835627E+03  0.00000000000E+00 0.  1.
          2    1    5    5  502    0 -0.14373423697E+03 -0.18030936981E+03  0.54091591635E+02  0.23684784146E+03  0.00000000000E+00 0. -1.
          4    1    6    6  503    0 -0.32046492706E+02  0.94115232684E+02 -0.14167550026E+03  0.17307975645E+03  0.00000000000E+00 0.  1.
         -2    1    5    5    0  502 -0.44584804737E+03 -0.82763192580E+03  0.29627034344E+03  0.98566282387E+03  0.00000000000E+00 0.  1.
         -4    1    6    6    0  503 -0.41534688513E+02 -0.10736235490E+02 -0.44258504475E+02  0.61637750776E+02  0.00000000000E+00 0. -1.
<mgrwt>
<rscale>  0 0.32278230E+04</rscale>
<asrwt>0</asrwt>
<pdfrwt beam="1">  1        1 0.41280943E+00 0.32278230E+04</pdfrwt>
<pdfrwt beam="2">  1       -1 0.14934240E+00 0.32278230E+04</pdfrwt>
<totfact> 0.29702842E-01</totfact>
</mgrwt>
</event>
<event>
12    1  0.4820219E-008  0.2075651E+04  0.7818608E-02  0.8572046E-01
          2   -1    0    0  501    0  0.00000000000E+00  0.00000000000E+00  0.15636704699E+04  0.15636704699E+04  0.00000000000E+00 0. -1.
         -2   -1    0    0    0  501 -0.00000000000E+00 -0.00000000000E+00 -0.68881639585E+03  0.68881639585E+03  0.00000000000E+00 0.  1.
         23    2    1    2    0    0 -0.14807555175E+03  0.62885116623E+02 -0.53712198860E+03  0.56795239430E+03  0.90493008752E+02 0.  0.
        254    2    1    2    0    0  0.14807555175E+03 -0.62885116623E+02  0.14119760626E+04  0.16845344714E+04  0.90448829569E+03 0.  0.
         23    2    4    4    0    0  0.11175029101E+03  0.20843699825E+03  0.98406085966E+01  0.25292104140E+03  0.89096048322E+02 0.  0.
         23    2    4    4    0    0  0.36325260745E+02 -0.27132211487E+03  0.14021354540E+04  0.14316134300E+04  0.92725222978E+02 0.  0.
         11    1    3    3    0    0 -0.14800779636E+03  0.44716062466E+02 -0.38712835158E+03  0.41686232094E+03  0.00000000000E+00 0.  1.
        -11    1    3    3    0    0 -0.67755390943E-01  0.18169054157E+02 -0.14999363702E+03  0.15109007336E+03  0.00000000000E+00 0. -1.
          4    1    5    5  502    0  0.25635461153E+02  0.13934710487E+02  0.26687070316E+02  0.39541784822E+02  0.00000000000E+00 0. -1.
          3    1    6    6  503    0 -0.30894701220E+02 -0.10854261092E+03  0.53408227458E+03  0.54587531265E+03  0.00000000000E+00 0. -1.
         -4    1    5    5    0  502  0.86114829855E+02  0.19450228776E+03 -0.16846461719E+02  0.21337925658E+03  0.00000000000E+00 0.  1.
         -3    1    6    6    0  503  0.67219961965E+02 -0.16277950396E+03  0.86805317943E+03  0.88573811735E+03  0.00000000000E+00 0.  1.
<mgrwt>
<rscale>  0 0.20756511E+04</rscale>
<asrwt>0</asrwt>
<pdfrwt beam="1">  1        2 0.24056469E+00 0.20756511E+04</pdfrwt>
<pdfrwt beam="2">  1       -2 0.10597175E+00 0.20756511E+04</pdfrwt>
<totfact> 0.77600735E+00</totfact>
</mgrwt>
</event>
<event>
12    1  0.4820219E-008  0.1634393E+04  0.7818608E-02  0.8799693E-01
          2   -1    0    0  501    0  0.00000000000E+00  0.00000000000E+00  0.13582201448E+04  0.13582201448E+04  0.00000000000E+00 0. -1.
         -2   -1    0    0    0  501 -0.00000000000E+00 -0.00000000000E+00 -0.49168046519E+03  0.49168046519E+03  0.00000000000E+00 0.  1.
         23    2    1    2    0    0 -0.10462983437E+03  0.55146378296E+03  0.25014350358E+03  0.62121011938E+03  0.90942475666E+02 0.  0.
        254    2    1    2    0    0  0.10462983437E+03 -0.55146378296E+03  0.61639617606E+03  0.12286904906E+04  0.90259424427E+03 0.  0.
         23    2    4    4    0    0  0.31103274816E+03 -0.59056506605E+03  0.12308336044E+03  0.68470156646E+03  0.90323052603E+02 0.  0.
         23    2    4    4    0    0 -0.20640291379E+03  0.39101283087E+02  0.49331281561E+03  0.54398892419E+03  0.91844120270E+02 0.  0.
         13    1    3    3    0    0 -0.29496182086E+02  0.28211022666E+03  0.16840132066E+03  0.32987150460E+03  0.00000000000E+00 0. -1.
        -13    1    3    3    0    0 -0.75133652282E+02  0.26935355630E+03  0.81742182924E+02  0.29133861479E+03  0.00000000000E+00 0.  1.
          1    1    5    5  502    0  0.28358488386E+03 -0.49617674298E+03  0.78864270577E+02  0.57691534891E+03  0.00000000000E+00 0. -1.
          3    1    6    6  503    0 -0.19809656526E+03  0.12990978647E+02  0.45890170975E+03  0.50000179390E+03  0.00000000000E+00 0. -1.
         -1    1    5    5    0  502  0.27447864296E+02 -0.94388323066E+02  0.44219089867E+02  0.10778621755E+03  0.00000000000E+00 0.  1.
         -3    1    6    6    0  503 -0.83063485353E+01  0.26110304441E+02  0.34411105860E+02  0.43987130282E+02  0.00000000000E+00 0.  1.
<mgrwt>
<rscale>  0 0.16343932E+04</rscale>
<asrwt>0</asrwt>
<pdfrwt beam="1">  1        2 0.20895694E+00 0.16343932E+04</pdfrwt>
<pdfrwt beam="2">  1       -2 0.75643149E-01 0.16343932E+04</pdfrwt>
<totfact> 0.22918325E+01</totfact>
</mgrwt>
</event>
<event>
12    1  0.4820219E-008  0.1542649E+04  0.7818608E-02  0.8856577E-01
         -1   -1    0    0    0  501 -0.00000000000E+00  0.00000000000E+00  0.36076028199E+03  0.36076028199E+03  0.00000000000E+00 0.  1.
          1   -1    0    0  501    0  0.00000000000E+00 -0.00000000000E+00 -0.16491327909E+04  0.16491327909E+04  0.00000000000E+00 0. -1.
         23    2    1    2    0    0 -0.25171750078E+02 -0.37295975109E+03 -0.84256165754E+03  0.92631779658E+03  0.91771022523E+02 0.  0.
        254    2    1    2    0    0  0.25171750078E+02  0.37295975109E+03 -0.44581085135E+03  0.10835752763E+04  0.91414193168E+03 0.  0.
         23    2    4    4    0    0  0.27274771291E+03 -0.10595419292E+02  0.15362094269E+03  0.32491392429E+03  0.86406518057E+02 0.  0.
         23    2    4    4    0    0 -0.24757596283E+03  0.38355517038E+03 -0.59943179403E+03  0.75866135199E+03  0.88544594479E+02 0.  0.
         11    1    3    3    0    0 -0.36715544164E+02 -0.23288536656E+03 -0.61748214769E+03  0.66095977779E+03  0.00000000000E+00 0.  1.
        -11    1    3    3    0    0  0.11543794085E+02 -0.14007438453E+03 -0.22507950985E+03  0.26535801879E+03  0.00000000000E+00 0. -1.
          4    1    5    5  502    0  0.10255890178E+03  0.34731317896E+02  0.76892674390E+02  0.13280465410E+03  0.00000000000E+00 0. -1.
          1    1    6    6  503    0 -0.16299259134E+03  0.20510317768E+03 -0.39871577747E+03  0.47708297971E+03  0.00000000000E+00 0. -1.
         -4    1    5    5    0  502  0.17018881113E+03 -0.45326737188E+02  0.76728268296E+02  0.19210927019E+03  0.00000000000E+00 0.  1.
         -1    1    6    6    0  503 -0.84583371492E+02  0.17845199270E+03 -0.20071601656E+03  0.28157837228E+03  0.00000000000E+00 0.  1.
<mgrwt>
<rscale>  0 0.15426492E+04</rscale>
<asrwt>0</asrwt>
<pdfrwt beam="1">  1        1 0.25371274E+00 0.15426492E+04</pdfrwt>
<pdfrwt beam="2">  1       -1 0.55501582E-01 0.15426492E+04</pdfrwt>
<totfact> 0.16339498E+01</totfact>
</mgrwt>
</event>
<event>
12    1  0.4820219E-008  0.1468507E+04  0.7818608E-02  0.8905670E-01
          2   -1    0    0  501    0  0.00000000000E+00  0.00000000000E+00  0.66544716435E+03  0.66544716435E+03  0.00000000000E+00 0. -1.
         -2   -1    0    0    0  501 -0.00000000000E+00 -0.00000000000E+00 -0.81017428612E+03  0.81017428612E+03  0.00000000000E+00 0.  1.
         23    2    1    2    0    0  0.25419633364E+03 -0.22305006992E+03  0.11878020677E+03  0.36993291132E+03  0.91512357778E+02 0.  0.
        254    2    1    2    0    0 -0.25419633364E+03  0.22305006992E+03 -0.26350732853E+03  0.11056885392E+04  0.10191878746E+04 0.  0.
         23    2    4    4    0    0  0.23226894442E+03  0.63032415419E+01 -0.46548901552E+03  0.52831795917E+03  0.91930675062E+02 0.  0.
         23    2    4    4    0    0 -0.48646527806E+03  0.21674682838E+03  0.20198168698E+03  0.57737057998E+03  0.94512064731E+02 0.  0.
         11    1    3    3    0    0  0.18630447303E+03 -0.14894189587E+03  0.12489250560E+03  0.26924186705E+03  0.00000000000E+00 0. -1.
        -11    1    3    3    0    0  0.67891860610E+02 -0.74108174056E+02 -0.61122988333E+01  0.10069104427E+03  0.00000000000E+00 0.  1.
          4    1    5    5  502    0  0.19856099883E+03  0.17990850790E+02 -0.44389853493E+03  0.48661694410E+03  0.00000000000E+00 0.  1.
          3    1    6    6  503    0 -0.17914516567E+03  0.13008903527E+03  0.90204255750E+02  0.23906684261E+03  0.00000000000E+00 0. -1.
         -4    1    5    5    0  502  0.33707945596E+02 -0.11687609248E+02 -0.21590480584E+02  0.41701015072E+02  0.00000000000E+00 0. -1.
         -3    1    6    6    0  503 -0.30732011239E+03  0.86657793114E+02  0.11177743123E+03  0.33830373737E+03  0.00000000000E+00 0.  1.
<mgrwt>
<rscale>  0 0.14685070E+04</rscale>
<asrwt>0</asrwt>
<pdfrwt beam="1">  1        2 0.10237649E+00 0.14685070E+04</pdfrwt>
<pdfrwt beam="2">  1       -2 0.12464220E+00 0.14685070E+04</pdfrwt>
<totfact> 0.20419085E+01</totfact>
</mgrwt>
</event>
<event>
12    1  0.4820219E-008  0.2699476E+04  0.7818608E-02  0.8335175E-01
          1   -1    0    0  501    0  0.00000000000E+00  0.00000000000E+00  0.12475524817E+04  0.12475524817E+04  0.00000000000E+00 0. -1.
         -1   -1    0    0    0  501 -0.00000000000E+00 -0.00000000000E+00 -0.14602934541E+04  0.14602934541E+04  0.00000000000E+00 0.  1.
         23    2    1    2    0    0 -0.98226849897E+03 -0.19136033825E+03  0.56920335848E+03  0.11548942204E+04  0.91203146036E+02 0.  0.
        254    2    1    2    0    0  0.98226849897E+03  0.19136033825E+03 -0.78194433085E+03  0.15529517154E+04  0.89372921555E+03 0.  0.
         23    2    4    4    0    0 -0.52724013171E+02  0.14954220651E+03 -0.40887847895E+03  0.44821454472E+03  0.92584958053E+02 0.  0.
         23    2    4    4    0    0  0.10349925121E+04  0.41818131744E+02 -0.37306585189E+03  0.11047371707E+04  0.91147299043E+02 0.  0.
         13    1    3    3    0    0 -0.55149975139E+03 -0.11560894681E+03  0.37134676115E+03  0.67484503509E+03  0.00000000000E+00 0. -1.
        -13    1    3    3    0    0 -0.43076874758E+03 -0.75751391437E+02  0.19785659733E+03  0.48004918530E+03  0.00000000000E+00 0.  1.
          4    1    5    5  502    0  0.26678199583E+02  0.33023050698E+02 -0.86890211534E+02  0.96706551333E+02  0.00000000000E+00 0. -1.
          1    1    6    6  503    0  0.83676660829E+03 -0.71635517495E+00 -0.28912757924E+03  0.88530990449E+03  0.00000000000E+00 0. -1.
         -4    1    5    5    0  502 -0.79402212754E+02  0.11651915581E+03 -0.32198826742E+03  0.35150799339E+03  0.00000000000E+00 0.  1.
         -1    1    6    6    0  503  0.19822590386E+03  0.42534486919E+02 -0.83938272651E+02  0.21942726620E+03  0.00000000000E+00 0.  1.
<mgrwt>
<rscale>  0 0.26994760E+04</rscale>
<asrwt>0</asrwt>
<pdfrwt beam="1">  1        1 0.19193115E+00 0.26994760E+04</pdfrwt>
<pdfrwt beam="2">  1       -1 0.22466053E+00 0.26994760E+04</pdfrwt>
<totfact> 0.88253510E-01</totfact>
</mgrwt>
</event>
<event>
12    1  0.4820219E-008  0.2012732E+04  0.7818608E-02  0.8600691E-01
          2   -1    0    0  501    0  0.00000000000E+00  0.00000000000E+00  0.75469867876E+03  0.75469867876E+03  0.00000000000E+00 0. -1.
         -2   -1    0    0    0  501 -0.00000000000E+00 -0.00000000000E+00 -0.13419567275E+04  0.13419567275E+04  0.00000000000E+00 0.  1.
         23    2    1    2    0    0 -0.37870477130E+03 -0.70496006210E+03 -0.23296956641E+03  0.83834257473E+03  0.90318662398E+02 0.  0.
        254    2    1    2    0    0  0.37870477130E+03  0.70496006210E+03 -0.35428848232E+03  0.12583128315E+04  0.90412657317E+03 0.  0.
         23    2    4    4    0    0  0.20831681089E+03  0.90169540824E+03 -0.29550245822E+03  0.97592415862E+03  0.93036324158E+02 0.  0.
         23    2    4    4    0    0  0.17038796041E+03 -0.19673534615E+03 -0.58786024094E+02  0.28238867290E+03  0.92470062593E+02 0.  0.
         13    1    3    3    0    0 -0.71626818794E+02 -0.11301477758E+03 -0.60565124757E+01  0.13393812924E+03  0.00000000000E+00 0.  1.
        -13    1    3    3    0    0 -0.30707795251E+03 -0.59194528452E+03 -0.22691305393E+03  0.70440444549E+03  0.00000000000E+00 0. -1.
          1    1    5    5  502    0  0.28299792734E+01  0.46650964394E+00 -0.70393028542E+01  0.76011971826E+01  0.00000000000E+00 0. -1.
          3    1    6    6  503    0 -0.34134802880E+01 -0.41093180076E+02  0.20378212418E+01  0.41285033752E+02  0.00000000000E+00 0. -1.
         -1    1    5    5    0  502  0.20548683161E+03  0.90122889860E+03 -0.28846315537E+03  0.96832296144E+03  0.00000000000E+00 0.  1.
         -3    1    6    6    0  503  0.17380144070E+03 -0.15564216607E+03 -0.60823845336E+02  0.24110363915E+03  0.00000000000E+00 0.  1.
<mgrwt>
<rscale>  0 0.20127324E+04</rscale>
<asrwt>0</asrwt>
<pdfrwt beam="1">  1        2 0.11610749E+00 0.20127324E+04</pdfrwt>
<pdfrwt beam="2">  1       -2 0.20645488E+00 0.20127324E+04</pdfrwt>
<totfact> 0.41647624E+00</totfact>
</mgrwt>
</event>
<event>
12    1  0.4820219E-008  0.1776366E+04  0.7818608E-02  0.8718969E-01
         -1   -1    0    0    0  501 -0.00000000000E+00  0.00000000000E+00  0.44527155883E+03  0.44527155883E+03  0.00000000000E+00 0.  1.
          1   -1    0    0  501    0  0.00000000000E+00 -0.00000000000E+00 -0.17716592714E+04  0.17716592714E+04  0.00000000000E+00 0. -1.
         23    2    1    2    0    0  0.54782120544E+03  0.76412153033E+02 -0.43574988337E+02  0.56202300106E+03  0.89577808948E+02 0.  0.
        254    2    1    2    0    0 -0.54782120544E+03 -0.76412153033E+02 -0.12828127242E+04  0.16549078291E+04  0.88722294116E+03 0.  0.
         23    2    4    4    0    0 -0.30274628538E+03  0.39524592362E+03 -0.60081054738E+03  0.78546230973E+03  0.90017069061E+02 0.  0.
         23    2    4    4    0    0 -0.24507492006E+03 -0.47165807665E+03 -0.68200217682E+03  0.86944551941E+03  0.91024635797E+02 0.  0.
         13    1    3    3    0    0  0.53893513648E+03  0.86504987070E+02 -0.47813429871E+02  0.54792364267E+03  0.00000000000E+00 0.  1.
        -13    1    3    3    0    0  0.88860689568E+01 -0.10092834037E+02  0.42384415342E+01  0.14099358391E+02  0.00000000000E+00 0. -1.
          2    1    5    5  502    0 -0.10307697830E+03  0.90636019792E+02 -0.12030203254E+03  0.18251665834E+03  0.00000000000E+00 0. -1.
          4    1    6    6  503    0 -0.40327806533E+02 -0.16067446332E+03 -0.18302456709E+03  0.24686151442E+03  0.00000000000E+00 0. -1.
         -2    1    5    5    0  502 -0.19966930708E+03  0.30460990382E+03 -0.48050851484E+03  0.60294565139E+03  0.00000000000E+00 0.  1.
         -4    1    6    6    0  503 -0.20474711352E+03 -0.31098361333E+03 -0.49897760972E+03  0.62258400498E+03  0.00000000000E+00 0.  1.
<mgrwt>
<rscale>  0 0.17763665E+04</rscale>
<asrwt>0</asrwt>
<pdfrwt beam="1">  1        1 0.27256297E+00 0.17763665E+04</pdfrwt>
<pdfrwt beam="2">  1       -1 0.68503315E-01 0.17763665E+04</pdfrwt>
<totfact> 0.86848402E+00</totfact>
</mgrwt>
</event>
<event>
12    1  0.4820219E-008  0.1687224E+04  0.7818608E-02  0.8768684E-01
         -2   -1    0    0    0  501 -0.00000000000E+00  0.00000000000E+00  0.56602669182E+03  0.56602669182E+03  0.00000000000E+00 0.  1.
          2   -1    0    0  501    0  0.00000000000E+00 -0.00000000000E+00 -0.12573286369E+04  0.12573286369E+04  0.00000000000E+00 0. -1.
         23    2    1    2    0    0 -0.37210687902E+03  0.25307558156E+03 -0.67342848253E+03  0.81457515393E+03  0.86694757154E+02 0.  0.
        254    2    1    2    0    0  0.37210687902E+03 -0.25307558156E+03 -0.17873462535E+02  0.10087801748E+04  0.90266671646E+03 0.  0.
         23    2    4    4    0    0 -0.23134917903E+03 -0.14101468847E+03 -0.21465678454E+03  0.35817495616E+03  0.93830587083E+02 0.  0.
         23    2    4    4    0    0  0.60345605805E+03 -0.11206089308E+03  0.19678332200E+03  0.65060521863E+03  0.88581131957E+02 0.  0.
         11    1    3    3    0    0 -0.20831594679E+03  0.14959725400E+03 -0.30655902027E+03  0.39969151229E+03  0.00000000000E+00 0. -1.
        -11    1    3    3    0    0 -0.16379093223E+03  0.10347832755E+03 -0.36686946226E+03  0.41488364163E+03  0.00000000000E+00 0.  1.
          3    1    6    6  502    0  0.44960104774E+03 -0.11923706652E+03  0.16337810685E+03  0.49300201415E+03  0.00000000000E+00 0. -1.
          3    1    5    5  503    0 -0.22680610775E+03 -0.11501825591E+03 -0.16867474092E+03  0.30515795570E+03  0.00000000000E+00 0. -1.
         -3    1    5    5    0  503 -0.45430712827E+01 -0.25996432565E+02 -0.45982043618E+02  0.53017000463E+02  0.00000000000E+00 0.  1.
         -3    1    6    6    0  502  0.15385501031E+03  0.71761734389E+01  0.33405215148E+02  0.15760320448E+03  0.00000000000E+00 0.  1.
<mgrwt>
<rscale>  0 0.16872244E+04</rscale>
<asrwt>0</asrwt>
<pdfrwt beam="1">  1        2 0.19343517E+00 0.16872244E+04</pdfrwt>
<pdfrwt beam="2">  1       -2 0.87081030E-01 0.16872244E+04</pdfrwt>
<totfact> 0.19019943E+01</totfact>
</mgrwt>
</event>
<event>
12    1  0.4820219E-008  0.4285583E+04  0.7818608E-02  0.7949289E-01
         -1   -1    0    0    0  501 -0.00000000000E+00  0.00000000000E+00  0.25997711785E+04  0.25997711785E+04  0.00000000000E+00 0.  1.
          1   -1    0    0  501    0  0.00000000000E+00 -0.00000000000E+00 -0.17661382604E+04  0.17661382604E+04  0.00000000000E+00 0. -1.
         23    2    1    2    0    0 -0.17882680213E+04 -0.98635642570E+03  0.56675568560E+03  0.21212557856E+04  0.87821331873E+02 0.  0.
        254    2    1    2    0    0  0.17882680213E+04  0.98635642570E+03  0.26687723243E+03  0.22446536533E+04  0.89243770169E+03 0.  0.
         23    2    4    4    0    0  0.15231904344E+04  0.10221593843E+04 -0.28121038767E+02  0.18367936116E+04  0.90005958631E+02 0.  0.
         23    2    4    4    0    0  0.26507758690E+03 -0.35802958561E+02  0.29499827120E+03  0.40786004165E+03  0.88192146148E+02 0.  0.
         11    1    3    3    0    0 -0.60225636434E+03 -0.30933328180E+03  0.22552834776E+03  0.71362654327E+03  0.00000000000E+00 0.  1.
        -11    1    3    3    0    0 -0.11860116570E+04 -0.67702314390E+03  0.34122733784E+03  0.14076292423E+04  0.00000000000E+00 0. -1.
          4    1    5    5  502    0  0.17371272708E+03  0.12462296702E+03 -0.31446525523E+02  0.21609229377E+03  0.00000000000E+00 0. -1.
          1    1    6    6  503    0  0.67327682790E+02  0.10649444827E+02  0.12749328841E+03  0.14457166436E+03  0.00000000000E+00 0. -1.
         -4    1    5    5    0  502  0.13494777073E+04  0.89753641724E+03  0.33254867563E+01  0.16207013178E+04  0.00000000000E+00 0.  1.
         -1    1    6    6    0  503  0.19774990411E+03 -0.46452403389E+02  0.16750498278E+03  0.26328837729E+03  0.00000000000E+00 0.  1.
<mgrwt>
<rscale>  0 0.42855830E+04</rscale>
<asrwt>0</asrwt>
<pdfrwt beam="1">  1        1 0.27171358E+00 0.42855830E+04</pdfrwt>
<pdfrwt beam="2">  1       -1 0.39996480E+00 0.42855830E+04</pdfrwt>
<totfact> 0.23502513E-02</totfact>
</mgrwt>
</event>
<event>
12    1  0.4820219E-008  0.1888776E+04  0.7818608E-02  0.8660464E-01
          1   -1    0    0  501    0  0.00000000000E+00  0.00000000000E+00  0.18448114550E+04  0.18448114550E+04  0.00000000000E+00 0. -1.
         -1   -1    0    0    0  501 -0.00000000000E+00 -0.00000000000E+00 -0.48344705857E+03  0.48344705857E+03  0.00000000000E+00 0.  1.
         23    2    1    2    0    0 -0.63399632792E+03 -0.30364350958E+03  0.74656415408E+03  0.10296789456E+04  0.93434308842E+02 0.  0.
        254    2    1    2    0    0  0.63399632792E+03  0.30364350958E+03  0.61480024232E+03  0.12985795680E+04  0.90231858657E+03 0.  0.
         23    2    4    4    0    0  0.21824944963E+03 -0.82819858545E+02  0.67604691994E+03  0.72018231232E+03  0.84446277525E+02 0.  0.
         23    2    4    4    0    0  0.41574687829E+03  0.38646336812E+03 -0.61246677622E+02  0.57839725564E+03  0.92697508634E+02 0.  0.
         11    1    3    3    0    0 -0.20240748024E+03 -0.13355841512E+03  0.30019424731E+03  0.38590571960E+03  0.00000000000E+00 0.  1.
        -11    1    3    3    0    0 -0.43158884768E+03 -0.17008509446E+03  0.44636990677E+03  0.64377322596E+03  0.00000000000E+00 0. -1.
          1    1    5    5  502    0  0.18597505695E+03 -0.10054945902E+03  0.57562353579E+03  0.61322049091E+03  0.00000000000E+00 0. -1.
          3    1    6    6  503    0  0.35918447075E+03  0.31964502894E+03 -0.19003350582E+02  0.48119388596E+03  0.00000000000E+00 0. -1.
         -1    1    5    5    0  502  0.32274392677E+02  0.17729600471E+02  0.10042338415E+03  0.10696182141E+03  0.00000000000E+00 0.  1.
         -3    1    6    6    0  503  0.56562407539E+02  0.66818339184E+02 -0.42243327040E+02  0.97203369681E+02  0.00000000000E+00 0.  1.
<mgrwt>
<rscale>  0 0.18887760E+04</rscale>
<asrwt>0</asrwt>
<pdfrwt beam="1">  1        1 0.28381714E+00 0.18887760E+04</pdfrwt>
<pdfrwt beam="2">  1       -1 0.74376471E-01 0.18887760E+04</pdfrwt>
<totfact> 0.64711275E+00</totfact>
</mgrwt>
</event>
<event>
12    1  0.4820219E-008  0.2202075E+04  0.7818608E-02  0.8517565E-01
          2   -1    0    0  501    0  0.00000000000E+00  0.00000000000E+00  0.16134077220E+04  0.16134077220E+04  0.00000000000E+00 0. -1.
         -2   -1    0    0    0  501 -0.00000000000E+00 -0.00000000000E+00 -0.75138073391E+03  0.75138073391E+03  0.00000000000E+00 0.  1.
         23    2    1    2    0    0  0.72702762266E+02  0.84334432477E+03 -0.45541496339E+01  0.85135751891E+03  0.90959018025E+02 0.  0.
        254    2    1    2    0    0 -0.72702762266E+02 -0.84334432477E+03  0.86658113772E+03  0.15134309370E+04  0.90719071371E+03 0.  0.
         23    2    4    4    0    0  0.13495833526E+03 -0.78061835103E+03  0.22244976827E+03  0.82771979606E+03  0.89763016697E+02 0.  0.
         23    2    4    4    0    0 -0.20766109752E+03 -0.62725973749E+02  0.64413136944E+03  0.68571114094E+03  0.90757195318E+02 0.  0.
         13    1    3    3    0    0  0.29133723180E+02  0.71023704938E+03 -0.14122581429E+02  0.71097460394E+03  0.00000000000E+00 0.  1.
        -13    1    3    3    0    0  0.43569039086E+02  0.13310727539E+03  0.95684317955E+01  0.14038291497E+03  0.00000000000E+00 0. -1.
          4    1    5    5  502    0  0.32534057678E+02 -0.13783670499E+03  0.75319179652E+02  0.16040698543E+03  0.00000000000E+00 0. -1.
          1    1    6    6  503    0 -0.20358676298E+02 -0.11813325543E+02  0.19523179777E+03  0.19664558276E+03  0.00000000000E+00 0. -1.
         -4    1    5    5    0  502  0.10242427758E+03 -0.64278164604E+03  0.14713058862E+03  0.66731281063E+03  0.00000000000E+00 0.  1.
         -1    1    6    6    0  503 -0.18730242122E+03 -0.50912648206E+02  0.44889957167E+03  0.48906555817E+03  0.00000000000E+00 0.  1.
<mgrwt>
<rscale>  0 0.22020749E+04</rscale>
<asrwt>0</asrwt>
<pdfrwt beam="1">  1        2 0.24821657E+00 0.22020749E+04</pdfrwt>
<pdfrwt beam="2">  1       -2 0.11559704E+00 0.22020749E+04</pdfrwt>
<totfact> 0.58329379E+00</totfact>
</mgrwt>
</event>
<event>
12    1  0.4820219E-008  0.1247099E+04  0.7818608E-02  0.9072601E-01
         -1   -1    0    0    0  501 -0.00000000000E+00  0.00000000000E+00  0.32960043899E+03  0.32960043899E+03  0.00000000000E+00 0.  1.
          1   -1    0    0  501    0  0.00000000000E+00 -0.00000000000E+00 -0.11796526184E+04  0.11796526184E+04  0.00000000000E+00 0. -1.
         23    2    1    2    0    0 -0.25550720989E+02  0.21033645345E+03 -0.44584809902E+03  0.50208530544E+03  0.91732565357E+02 0.  0.
        254    2    1    2    0    0  0.25550720989E+02 -0.21033645345E+03 -0.40420408042E+03  0.10071677520E+04  0.89783722301E+03 0.  0.
         23    2    4    4    0    0  0.19728933959E+03 -0.49434390726E+03 -0.10312316679E+03  0.54960264587E+03  0.90164841565E+02 0.  0.
         23    2    4    4    0    0 -0.17173861860E+03  0.28400745381E+03 -0.30108091363E+03  0.45756510612E+03  0.92529578218E+02 0.  0.
         11    1    3    3    0    0 -0.22787836759E+02  0.15024993537E+03 -0.21339893757E+03  0.26197983728E+03  0.00000000000E+00 0. -1.
        -11    1    3    3    0    0 -0.27628842304E+01  0.60086518077E+02 -0.23244916144E+03  0.24010546816E+03  0.00000000000E+00 0.  1.
          1    1    5    5  502    0  0.12443032224E+03 -0.19412153141E+03 -0.53542562452E+02  0.23671265290E+03  0.00000000000E+00 0. -1.
          3    1    6    6  503    0 -0.13709873315E+03  0.15540555641E+03 -0.14801484227E+03  0.25466712219E+03  0.00000000000E+00 0. -1.
         -1    1    5    5    0  502  0.72859017344E+02 -0.30022237586E+03 -0.49580604335E+02  0.31288999297E+03  0.00000000000E+00 0.  1.
         -3    1    6    6    0  503 -0.34639885453E+02  0.12860189740E+03 -0.15306607136E+03  0.20289798393E+03  0.00000000000E+00 0.  1.
<mgrwt>
<rscale>  0 0.12470991E+04</rscale>
<asrwt>0</asrwt>
<pdfrwt beam="1">  1        1 0.18148502E+00 0.12470991E+04</pdfrwt>
<pdfrwt beam="2">  1       -1 0.50707761E-01 0.12470991E+04</pdfrwt>
<totfact> 0.42617051E+01</totfact>
</mgrwt>
</event>
<event>
12    1  0.4820219E-008  0.2159694E+04  0.7818608E-02  0.8535394E-01
          1   -1    0    0  501    0  0.00000000000E+00  0.00000000000E+00  0.11722062791E+04  0.11722062791E+04  0.00000000000E+00 0. -1.
         -1   -1    0    0    0  501 -0.00000000000E+00 -0.00000000000E+00 -0.99476470957E+03  0.99476470957E+03  0.00000000000E+00 0.  1.
         23    2    1    2    0    0 -0.59343305024E+03 -0.60860118904E+03  0.33241702041E+03  0.91714278434E+03  0.89953426806E+02 0.  0.
        254    2    1    2    0    0  0.59343305024E+03  0.60860118904E+03 -0.15497545091E+03  0.12498282043E+04  0.90304759421E+03 0.  0.
         23    2    4    4    0    0 -0.94444776800E+02 -0.13166940008E+03 -0.14263324565E+03  0.23495687364E+03  0.92756902283E+02 0.  0.
         23    2    4    4    0    0  0.68787782704E+03  0.74027058913E+03 -0.12342205260E+02  0.10148713306E+04  0.92924903396E+02 0.  0.
         13    1    3    3    0    0 -0.82960126397E+02 -0.11649255017E+03  0.83864182131E+02  0.16578931770E+03  0.00000000000E+00 0. -1.
        -13    1    3    3    0    0 -0.51047292384E+03 -0.49210863887E+03  0.24855283828E+03  0.75135346665E+03  0.00000000000E+00 0.  1.
          1    1    5    5  502    0  0.86498113360E+01 -0.22910369076E+01  0.74100946292E+01  0.11617985569E+02  0.00000000000E+00 0. -1.
          3    1    6    6  503    0  0.32239688904E+03  0.35617424358E+03  0.40113749478E+02  0.48208812342E+03  0.00000000000E+00 0. -1.
         -1    1    5    5    0  502 -0.10309458814E+03 -0.12937836318E+03 -0.15004334028E+03  0.22333888807E+03  0.00000000000E+00 0.  1.
         -3    1    6    6    0  503  0.36548093800E+03  0.38409634555E+03 -0.52455954738E+02  0.53278320722E+03  0.00000000000E+00 0.  1.
<mgrwt>
<rscale>  0 0.21596939E+04</rscale>
<asrwt>0</asrwt>
<pdfrwt beam="1">  1        1 0.18033943E+00 0.21596939E+04</pdfrwt>
<pdfrwt beam="2">  1       -1 0.15304072E+00 0.21596939E+04</pdfrwt>
<totfact> 0.33862112E+00</totfact>
</mgrwt>
</event>
<event>
12    1  0.4820219E-008  0.2678336E+04  0.7818608E-02  0.8342069E-01
         -2   -1    0    0    0  501 -0.00000000000E+00  0.00000000000E+00  0.17028819102E+04  0.17028819102E+04  0.00000000000E+00 0. -1.
          2   -1    0    0  501    0  0.00000000000E+00 -0.00000000000E+00 -0.10531388466E+04  0.10531388466E+04  0.00000000000E+00 0.  1.
         23    2    1    2    0    0 -0.16179816282E+03 -0.28302048729E+03  0.14568125796E+04  0.14955211743E+04  0.89450818348E+02 0.  0.
        254    2    1    2    0    0  0.16179816282E+03  0.28302048729E+03 -0.80706951603E+03  0.12604995826E+04  0.91171198974E+03 0.  0.
         23    2    4    4    0    0 -0.74817416741E+02 -0.13101012255E+03 -0.75195160688E+03  0.77145491260E+03  0.83367649745E+02 0.  0.
         23    2    4    4    0    0  0.23661557956E+03  0.41403060984E+03 -0.55117909141E+02  0.48904466996E+03  0.93372517017E+02 0.  0.
         11    1    3    3    0    0 -0.22335666746E+02 -0.59853159042E+01  0.52524105828E+02  0.57388916252E+02  0.00000000000E+00 0.  1.
        -11    1    3    3    0    0 -0.13946249607E+03 -0.27703517139E+03  0.14042884738E+04  0.14381322581E+04  0.00000000000E+00 0. -1.
          4    1    5    5  502    0 -0.28947939042E+02  0.40065977581E+01 -0.15268221182E+03  0.15545383175E+03  0.00000000000E+00 0. -1.
          3    1    6    6  503    0  0.13153991900E+03  0.13886607479E+03 -0.16661336777E+02  0.19200035718E+03  0.00000000000E+00 0. -1.
         -4    1    5    5    0  502 -0.45869477699E+02 -0.13501672031E+03 -0.59926939507E+03  0.61600108085E+03  0.00000000000E+00 0.  1.
         -3    1    6    6    0  503  0.10507566056E+03  0.27516453506E+03 -0.38456572364E+02  0.29704431278E+03  0.00000000000E+00 0.  1.
<mgrwt>
<rscale>  0 0.26783361E+04</rscale>
<asrwt>0</asrwt>
<pdfrwt beam="1">  1        2 0.16202136E+00 0.26783361E+04</pdfrwt>
<pdfrwt beam="2">  1       -2 0.26198183E+00 0.26783361E+04</pdfrwt>
<totfact> 0.11110728E+00</totfact>
</mgrwt>
</event>
<event>
12    1  0.4820219E-008  0.1637909E+04  0.7818608E-02  0.8797591E-01
          2   -1    0    0  501    0  0.00000000000E+00  0.00000000000E+00  0.20930149327E+04  0.20930149327E+04  0.00000000000E+00 0. -1.
         -2   -1    0    0    0  501 -0.00000000000E+00 -0.00000000000E+00 -0.32044046837E+03  0.32044046837E+03  0.00000000000E+00 0.  1.
         23    2    1    2    0    0 -0.51548989649E+03 -0.10799883959E+03  0.70954002085E+03  0.88822573899E+03  0.90024105007E+02 0.  0.
        254    2    1    2    0    0  0.51548989649E+03  0.10799883959E+03  0.10630344435E+04  0.15252296621E+04  0.95858735197E+03 0.  0.
         23    2    4    4    0    0  0.49299643438E+03  0.22521602287E+03  0.11144317131E+03  0.56118222760E+03  0.93478183949E+02 0.  0.
         23    2    4    4    0    0  0.22493462113E+02 -0.11721718328E+03  0.95159127217E+03  0.96404743449E+03  0.98059587917E+02 0.  0.
         11    1    3    3    0    0 -0.37306838632E+02  0.24090157515E+01  0.21602405163E+02  0.43177163807E+02  0.00000000000E+00 0. -1.
        -11    1    3    3    0    0 -0.47818305786E+03 -0.11040785534E+03  0.68793761569E+03  0.84504857519E+03  0.00000000000E+00 0.  1.
          2    1    5    5  502    0  0.85843012807E+01  0.14146970540E+02  0.18237778712E+02  0.24626075130E+02  0.00000000000E+00 0. -1.
          2    1    6    6  503    0  0.54588113255E+01 -0.48335136872E+02  0.12071555701E+03  0.13014733874E+03  0.00000000000E+00 0. -1.
         -2    1    5    5    0  502  0.48441213310E+03  0.21106905233E+03  0.93205392601E+02  0.53655615247E+03  0.00000000000E+00 0.  1.
         -2    1    6    6    0  503  0.17034650788E+02 -0.68882046407E+02  0.83087571516E+03  0.83390009575E+03  0.00000000000E+00 0.  1.
<mgrwt>
<rscale>  0 0.16379093E+04</rscale>
<asrwt>0</asrwt>
<pdfrwt beam="1">  1        2 0.32200229E+00 0.16379093E+04</pdfrwt>
<pdfrwt beam="2">  1       -2 0.49298535E-01 0.16379093E+04</pdfrwt>
<totfact> 0.22088416E+01</totfact>
</mgrwt>
</event>
<event>
12    1  0.4820219E-008  0.1930706E+04  0.7818608E-02  0.8639721E-01
         -1   -1    0    0    0  501 -0.00000000000E+00  0.00000000000E+00  0.66573650674E+03  0.66573650674E+03  0.00000000000E+00 0.  1.
          1   -1    0    0  501    0  0.00000000000E+00 -0.00000000000E+00 -0.13998130166E+04  0.13998130166E+04  0.00000000000E+00 0. -1.
         23    2    1    2    0    0  0.32986640882E+03 -0.11592585547E+03  0.44237914137E+03  0.57128314029E+03  0.91730420435E+02 0.  0.
        254    2    1    2    0    0 -0.32986640882E+03  0.11592585547E+03 -0.11764556513E+04  0.14942663831E+04  0.85236932874E+03 0.  0.
         23    2    4    4    0    0  0.21560228749E+03 -0.14591760861E+03 -0.19389668649E+03  0.33671515636E+03  0.89469976068E+02 0.  0.
         23    2    4    4    0    0 -0.54546869630E+03  0.26184346408E+03 -0.98255896476E+03  0.11575512267E+04  0.91676741275E+02 0.  0.
         11    1    3    3    0    0  0.33192320273E+03 -0.11274007433E+03  0.41322740382E+03  0.54188580360E+03  0.00000000000E+00 0.  1.
        -11    1    3    3    0    0 -0.20567939190E+01 -0.31857811425E+01  0.29151737544E+02  0.29397336691E+02  0.00000000000E+00 0. -1.
          2    1    5    5  502    0  0.14401984147E+03 -0.14366642795E+03 -0.14950917343E+03  0.25245742254E+03  0.00000000000E+00 0.  1.
          4    1    6    6  503    0 -0.78998418608E+02  0.49227427048E+02 -0.21793847448E+03  0.23698368799E+03  0.00000000000E+00 0. -1.
         -2    1    5    5    0  502  0.71582446018E+02 -0.22511806585E+01 -0.44387513067E+02  0.84257733820E+02  0.00000000000E+00 0. -1.
         -4    1    6    6    0  503 -0.46647027770E+03  0.21261603703E+03 -0.76462049028E+03  0.92056753872E+03  0.00000000000E+00 0.  1.
<mgrwt>
<rscale>  0 0.19307062E+04</rscale>
<asrwt>0</asrwt>
<pdfrwt beam="1">  1        1 0.21535585E+00 0.19307062E+04</pdfrwt>
<pdfrwt beam="2">  1       -1 0.10242100E+00 0.19307062E+04</pdfrwt>
<totfact> 0.64688371E+00</totfact>
</mgrwt>
</event>
<event>
12    1  0.4820219E-008  0.1604195E+04  0.7818608E-02  0.8817975E-01
         -2   -1    0    0    0  501 -0.00000000000E+00  0.00000000000E+00  0.43857940647E+03  0.43857940647E+03  0.00000000000E+00 0.  1.
          2   -1    0    0  501    0  0.00000000000E+00 -0.00000000000E+00 -0.14669190619E+04  0.14669190619E+04  0.00000000000E+00 0. -1.
         23    2    1    2    0    0 -0.90177121909E+02 -0.42813878192E+03 -0.73914938894E+03  0.86366968676E+03  0.90270586297E+02 0.  0.
        254    2    1    2    0    0  0.90177121909E+02  0.42813878192E+03 -0.28919026653E+03  0.10418287816E+04  0.90018968563E+03 0.  0.
         23    2    4    4    0    0 -0.35799033865E+03 -0.33174461434E+01 -0.72999353845E+02  0.37655655841E+03  0.91092524405E+02 0.  0.
         23    2    4    4    0    0  0.44816746056E+03  0.43145622807E+03 -0.21619091268E+03  0.66527222324E+03  0.94021650920E+02 0.  0.
         11    1    3    3    0    0  0.13402498705E+02 -0.13345349127E+03 -0.20860838084E+03  0.24800588271E+03  0.00000000000E+00 0.  1.
        -11    1    3    3    0    0 -0.10357962061E+03 -0.29468529065E+03 -0.53054100811E+03  0.61566380405E+03  0.00000000000E+00 0. -1.
          1    1    5    5  502    0 -0.14329276387E+03 -0.45645459930E+02 -0.35757646230E+02  0.15457986109E+03  0.00000000000E+00 0. -1.
          3    1    6    6  503    0  0.13567623304E+03  0.15474179856E+03 -0.29041996270E+02  0.20783768181E+03  0.00000000000E+00 0. -1.
         -1    1    5    5    0  502 -0.21469757478E+03  0.42328013786E+02 -0.37241707615E+02  0.22197669732E+03  0.00000000000E+00 0.  1.
         -3    1    6    6    0  503  0.31249122753E+03  0.27671442951E+03 -0.18714891642E+03  0.45743454143E+03  0.00000000000E+00 0.  1.
<mgrwt>
<rscale>  0 0.16041951E+04</rscale>
<asrwt>0</asrwt>
<pdfrwt beam="1">  1        2 0.22567985E+00 0.16041951E+04</pdfrwt>
<pdfrwt beam="2">  1       -2 0.67473756E-01 0.16041951E+04</pdfrwt>
<totfact> 0.25584451E+01</totfact>
</mgrwt>
</event>
<event>
12    1  0.4820219E-008  0.1717958E+04  0.7818608E-02  0.8751188E-01
          2   -1    0    0  501    0  0.00000000000E+00  0.00000000000E+00  0.69675332365E+03  0.69675332365E+03  0.00000000000E+00 0. -1.
         -2   -1    0    0    0  501 -0.00000000000E+00 -0.00000000000E+00 -0.10589763413E+04  0.10589763413E+04  0.00000000000E+00 0.  1.
         23    2    1    2    0    0  0.24042488831E+03  0.26367514899E+03 -0.66171561556E+03  0.75710755277E+03  0.89529768661E+02 0.  0.
        254    2    1    2    0    0 -0.24042488831E+03 -0.26367514899E+03  0.29949259795E+03  0.99862211213E+03  0.88330153147E+03 0.  0.
         23    2    4    4    0    0 -0.91189495973E+02 -0.45147095073E+03  0.49037576542E+03  0.67886047571E+03  0.90783316936E+02 0.  0.
         23    2    4    4    0    0 -0.14923539233E+03  0.18779580174E+03 -0.19088316747E+03  0.31976163642E+03  0.90954136952E+02 0.  0.
         13    1    3    3    0    0  0.14761109692E+03  0.99925075267E+02 -0.28877453706E+03  0.33935938157E+03  0.00000000000E+00 0. -1.
        -13    1    3    3    0    0  0.92813791388E+02  0.16375007372E+03 -0.37294107849E+03  0.41774817120E+03  0.00000000000E+00 0.  1.
          2    1    5    5  502    0 -0.72182334651E+02 -0.38329733682E+03  0.45639193493E+03  0.60035051106E+03  0.00000000000E+00 0.  1.
          1    1    6    6  503    0 -0.80398162391E+02  0.99808475240E+02 -0.44604511675E+02  0.13570246390E+03  0.00000000000E+00 0. -1.
         -2    1    5    5    0  502 -0.19007161321E+02 -0.68173613909E+02  0.33983830484E+02  0.78509964649E+02  0.00000000000E+00 0. -1.
         -1    1    6    6    0  503 -0.68837229943E+02  0.87987326505E+02 -0.14627865579E+03  0.18405917253E+03  0.00000000000E+00 0.  1.
<mgrwt>
<rscale>  0 0.17179584E+04</rscale>
<asrwt>0</asrwt>
<pdfrwt beam="1">  1        2 0.10719282E+00 0.17179584E+04</pdfrwt>
<pdfrwt beam="2">  1       -2 0.16291944E+00 0.17179584E+04</pdfrwt>
<totfact> 0.93826921E+00</totfact>
</mgrwt>
</event>
<event>
12    1  0.4820219E-008  0.1476404E+04  0.7818608E-02  0.8900297E-01
         -3   -1    0    0    0  501 -0.00000000000E+00  0.00000000000E+00  0.36329296396E+03  0.36329296396E+03  0.00000000000E+00 0.  1.
          3   -1    0    0  501    0  0.00000000000E+00 -0.00000000000E+00 -0.15000074796E+04  0.15000074796E+04  0.00000000000E+00 0. -1.
         23    2    1    2    0    0  0.28725938664E+02 -0.31925524202E+02  0.21085156771E+03  0.24265014542E+03  0.11214406278E+03 0.  0.
        254    2    1    2    0    0 -0.28725938664E+02  0.31925524202E+02 -0.13475660833E+04  0.16206502981E+04  0.89929340106E+03 0.  0.
         23    2    4    4    0    0 -0.16266229926E+02 -0.42421513436E+03 -0.60725559499E+03  0.74663057054E+03  0.92058572438E+02 0.  0.
         23    2    4    4    0    0 -0.12459708738E+02  0.45614065856E+03 -0.74031048834E+03  0.87401972758E+03  0.87357428500E+02 0.  0.
         13    1    3    3    0    0 -0.10844862345E+02  0.38017211721E+02  0.63193825004E+02  0.74541122509E+02  0.00000000000E+00 0.  1.
        -13    1    3    3    0    0  0.39570801009E+02 -0.69942735923E+02  0.14765774271E+03  0.16810902291E+03  0.00000000000E+00 0. -1.
          2    1    5    5  502    0  0.26000719093E+02 -0.70205819904E+02 -0.74751962414E+02  0.10579579588E+03  0.00000000000E+00 0.  1.
          3    1    6    6  503    0 -0.35556014535E+02  0.32576952267E+03 -0.57926035302E+03  0.66553179387E+03  0.00000000000E+00 0. -1.
         -2    1    5    5    0  502 -0.42266949018E+02 -0.35400931446E+03 -0.53250363258E+03  0.64083477466E+03  0.00000000000E+00 0. -1.
         -3    1    6    6    0  503  0.23096305797E+02  0.13037113590E+03 -0.16105013532E+03  0.20848793371E+03  0.00000000000E+00 0.  1.
<mgrwt>
<rscale>  0 0.14764040E+04</rscale>
<asrwt>0</asrwt>
<pdfrwt beam="1">  1        3 0.23077038E+00 0.14764040E+04</pdfrwt>
<pdfrwt beam="2">  1       -3 0.55891226E-01 0.14764040E+04</pdfrwt>
<totfact> 0.76533287E-01</totfact>
</mgrwt>
</event>
<event>
12    1  0.4820219E-008  0.3276867E+04  0.7818608E-02  0.8168807E-01
         -1   -1    0    0    0  501 -0.00000000000E+00  0.00000000000E+00  0.49345679680E+03  0.49345679680E+03  0.00000000000E+00 0.  1.
          1   -1    0    0  501    0  0.00000000000E+00 -0.00000000000E+00 -0.54401202174E+04  0.54401202174E+04  0.00000000000E+00 0. -1.
         23    2    1    2    0    0  0.23270610630E+03 -0.82047252408E+03 -0.28966156161E+02  0.85813535747E+03  0.90719120703E+02 0.  0.
        254    2    1    2    0    0 -0.23270610630E+03  0.82047252408E+03 -0.49176972645E+04  0.50754416568E+04  0.92143058960E+03 0.  0.
         23    2    4    4    0    0  0.75817715566E+01  0.33132245243E+03 -0.41407245907E+03  0.53816392336E+03  0.91281741331E+02 0.  0.
         23    2    4    4    0    0 -0.24028787786E+03  0.48915007165E+03 -0.45036248054E+04  0.45372777334E+04  0.85128052277E+02 0.  0.
         13    1    3    3    0    0  0.26553821072E+01 -0.79372057128E+00 -0.58481484577E+01  0.64716216564E+01  0.00000000000E+00 0. -1.
        -13    1    3    3    0    0  0.23005072419E+03 -0.81967880351E+03 -0.23118007704E+02  0.85166373582E+03  0.00000000000E+00 0.  1.
          2    1    5    5  502    0  0.16233206018E+01  0.32986338670E+03 -0.41672445847E+03  0.53148072716E+03  0.00000000000E+00 0. -1.
          1    1    6    6  503    0 -0.41070281237E+02  0.87273921834E+02 -0.56244000613E+03  0.57065073901E+03  0.00000000000E+00 0.  1.
         -2    1    5    5    0  502  0.59584509548E+01  0.14590657327E+01  0.26519994031E+01  0.66831961984E+01  0.00000000000E+00 0.  1.
         -1    1    6    6    0  503 -0.19921759662E+03  0.40187614981E+03 -0.39411847993E+04  0.39666269944E+04  0.00000000000E+00 0. -1.
<mgrwt>
<rscale>  0 0.32768670E+04</rscale>
<asrwt>0</asrwt>
<pdfrwt beam="1">  1        1 0.83694161E+00 0.32768670E+04</pdfrwt>
<pdfrwt beam="2">  1       -1 0.75916427E-01 0.32768670E+04</pdfrwt>
<totfact> 0.27896555E-03</totfact>
</mgrwt>
</event>
<event>
12    1  0.4820219E-008  0.1523355E+04  0.7818608E-02  0.8869069E-01
          2   -1    0    0  501    0  0.00000000000E+00  0.00000000000E+00  0.12124110264E+04  0.12124110264E+04  0.00000000000E+00 0. -1.
         -2   -1    0    0    0  501 -0.00000000000E+00 -0.00000000000E+00 -0.47851136543E+03  0.47851136543E+03  0.00000000000E+00 0.  1.
         23    2    1    2    0    0 -0.65914490318E+02  0.61835628881E+02 -0.29417946334E+03  0.32137342070E+03  0.92579446159E+02 0.  0.
        254    2    1    2    0    0  0.65914490318E+02 -0.61835628881E+02  0.10280791243E+04  0.13695489711E+04  0.90030513352E+03 0.  0.
         23    2    4    4    0    0 -0.12395384887E+03 -0.23216144059E+03 -0.26140392069E+02  0.28118969853E+03  0.95503064416E+02 0.  0.
         23    2    4    4    0    0  0.18986833919E+03  0.17032581171E+03  0.10542195164E+04  0.10883592726E+04  0.89923574132E+02 0.  0.
         11    1    3    3    0    0 -0.26993787587E+01  0.60361660486E+01  0.63933130501E+01  0.91976300211E+01  0.00000000000E+00 0. -1.
        -11    1    3    3    0    0 -0.63215111559E+02  0.55799462832E+02 -0.30057277639E+03  0.31217579068E+03  0.00000000000E+00 0.  1.
          4    1    5    5  502    0 -0.34397599640E+00 -0.90893457736E+02 -0.21584372971E+02  0.93421754080E+02  0.00000000000E+00 0. -1.
          3    1    6    6  503    0 -0.79145455188E+01  0.21553470123E+02  0.91644311801E+02  0.94476833089E+02  0.00000000000E+00 0. -1.
         -4    1    5    5    0  502 -0.12360987288E+03 -0.14126798286E+03 -0.45560190974E+01  0.18776794445E+03  0.00000000000E+00 0.  1.
         -3    1    6    6    0  503  0.19778288471E+03  0.14877234159E+03  0.96257520455E+03  0.99388243949E+03  0.00000000000E+00 0.  1.
<mgrwt>
<rscale>  0 0.15233548E+04</rscale>
<asrwt>0</asrwt>
<pdfrwt beam="1">  1        2 0.18652477E+00 0.15233548E+04</pdfrwt>
<pdfrwt beam="2">  1       -2 0.73617134E-01 0.15233548E+04</pdfrwt>
<totfact> 0.29887118E+01</totfact>
</mgrwt>
</event>
<event>
12    1  0.4820219E-008  0.1399553E+04  0.7818608E-02  0.8954142E-01
          2   -1    0    0  501    0  0.00000000000E+00  0.00000000000E+00  0.21477936342E+04  0.21477936342E+04  0.00000000000E+00 0. -1.
         -2   -1    0    0    0  501 -0.00000000000E+00 -0.00000000000E+00 -0.22799544476E+03  0.22799544476E+03  0.00000000000E+00 0.  1.
         23    2    1    2    0    0 -0.19513201713E+03  0.20273215102E+03  0.11118128761E+04  0.11504733343E+04  0.91017537445E+02 0.  0.
        254    2    1    2    0    0  0.19513201713E+03 -0.20273215102E+03  0.80798531335E+03  0.12253157448E+04  0.87714398965E+03 0.  0.
         23    2    4    4    0    0  0.24551254516E+03  0.21317769918E+03  0.32854354767E+02  0.33941144612E+03  0.91649221875E+02 0.  0.
         23    2    4    4    0    0 -0.50380528033E+02 -0.41590985020E+03  0.77513095858E+03  0.88590429863E+03  0.92082692669E+02 0.  0.
         13    1    3    3    0    0 -0.16757711814E+02  0.87739725654E+01  0.21275837465E+03  0.21359758773E+03  0.00000000000E+00 0.  1.
        -13    1    3    3    0    0 -0.17837430531E+03  0.19395817845E+03  0.89905450148E+03  0.93687574652E+03  0.00000000000E+00 0. -1.
          1    1    5    5  502    0  0.23190708121E+03  0.15732560926E+03  0.24211294421E+02  0.28127998226E+03  0.00000000000E+00 0. -1.
          3    1    6    6  503    0 -0.62064569480E+02 -0.16901013742E+03  0.28791836945E+03  0.33957830437E+03  0.00000000000E+00 0. -1.
         -1    1    5    5    0  502  0.13605463950E+02  0.55852089922E+02  0.86430603462E+01  0.58131463856E+02  0.00000000000E+00 0.  1.
         -3    1    6    6    0  503  0.11684041447E+02 -0.24689971278E+03  0.48721258913E+03  0.54632599426E+03  0.00000000000E+00 0.  1.
<mgrwt>
<rscale>  0 0.13995530E+04</rscale>
<asrwt>0</asrwt>
<pdfrwt beam="1">  1        2 0.33042978E+00 0.13995530E+04</pdfrwt>
<pdfrwt beam="2">  1       -2 0.35076224E-01 0.13995530E+04</pdfrwt>
<totfact> 0.41075598E+01</totfact>
</mgrwt>
</event>
<event>
12    1  0.4820219E-008  0.1743999E+04  0.7818608E-02  0.8736660E-01
          2   -1    0    0  501    0  0.00000000000E+00  0.00000000000E+00  0.26914753616E+04  0.26914753616E+04  0.00000000000E+00 0.  1.
         -2   -1    0    0    0  501 -0.00000000000E+00 -0.00000000000E+00 -0.28251546635E+03  0.28251546635E+03  0.00000000000E+00 0. -1.
         23    2    1    2    0    0 -0.25709779604E+03  0.43734132747E+02  0.18862690907E+04  0.19063607860E+04  0.90489850719E+02 0.  0.
        254    2    1    2    0    0  0.25709779604E+03 -0.43734132747E+02  0.52269080463E+03  0.10676300419E+04  0.89365333218E+03 0.  0.
         23    2    4    4    0    0  0.17581347451E+03 -0.43357022782E+03  0.44510690170E+03  0.65194521109E+03  0.89548221904E+02 0.  0.
         23    2    4    4    0    0  0.81284321534E+02  0.38983609508E+03  0.77583902930E+02  0.41568483085E+03  0.90527866743E+02 0.  0.
         11    1    3    3    0    0 -0.29562451711E+02 -0.93113523932E+01  0.46360009340E+03  0.46463500346E+03  0.00000000000E+00 0. -1.
        -11    1    3    3    0    0 -0.22753534433E+03  0.53045485140E+02  0.14226689972E+04  0.14417257826E+04  0.00000000000E+00 0.  1.
          3    1    6    6  502    0  0.90029197032E+02  0.33684497974E+03  0.41839943138E+02  0.35117001229E+03  0.00000000000E+00 0. -1.
          3    1    5    5  503    0  0.69152280116E+02 -0.28616970830E+03  0.27395724211E+03  0.40215383909E+03  0.00000000000E+00 0. -1.
         -3    1    5    5    0  503  0.10666119439E+03 -0.14740051953E+03  0.17114965959E+03  0.24979137200E+03  0.00000000000E+00 0.  1.
         -3    1    6    6    0  502 -0.87448754981E+01  0.52991115339E+02  0.35743959792E+02  0.64514818561E+02  0.00000000000E+00 0.  1.
<mgrwt>
<rscale>  0 0.17439993E+04</rscale>
<asrwt>0</asrwt>
<pdfrwt beam="1">  1        2 0.41407311E+00 0.17439993E+04</pdfrwt>
<pdfrwt beam="2">  1       -2 0.43463920E-01 0.17439993E+04</pdfrwt>
<totfact> 0.12818668E+01</totfact>
</mgrwt>
</event>
<event>
12    1  0.4820219E-008  0.1197255E+04  0.7818608E-02  0.9115262E-01
         -2   -1    0    0    0  501 -0.00000000000E+00  0.00000000000E+00  0.31490671455E+03  0.31490671455E+03  0.00000000000E+00 0. -1.
          2   -1    0    0  501    0  0.00000000000E+00 -0.00000000000E+00 -0.11379721869E+04  0.11379721869E+04  0.00000000000E+00 0.  1.
         23    2    1    2    0    0 -0.38226270389E+01  0.61427540295E+02 -0.47469347177E+03  0.48809180868E+03  0.95455572824E+02 0.  0.
        254    2    1    2    0    0  0.38226270389E+01 -0.61427540295E+02 -0.34837200060E+03  0.96478709278E+03  0.89758739319E+03 0.  0.
         23    2    4    4    0    0 -0.23866614225E+03 -0.23230332594E+03  0.15137796277E+03  0.37663653140E+03  0.89517743925E+02 0.  0.
         23    2    4    4    0    0  0.24248876929E+03  0.17087578564E+03 -0.49974996337E+03  0.58815056138E+03  0.90397564239E+02 0.  0.
         13    1    3    3    0    0 -0.39896500502E+02  0.33830388651E+02 -0.12561817108E+03  0.13607406386E+03  0.00000000000E+00 0. -1.
        -13    1    3    3    0    0  0.36073873463E+02  0.27597151644E+02 -0.34907530068E+03  0.35201774483E+03  0.00000000000E+00 0.  1.
          3    1    6    6  502    0  0.10817660162E+03  0.81313224771E+02 -0.31479919876E+03  0.34265515202E+03  0.00000000000E+00 0. -1.
          3    1    5    5  503    0 -0.18769404750E+03 -0.19592923445E+03  0.82593866343E+02  0.28361781879E+03  0.00000000000E+00 0.  1.
         -3    1    5    5    0  503 -0.50972094745E+02 -0.36374091490E+02  0.68784096427E+02  0.93018712611E+02  0.00000000000E+00 0. -1.
         -3    1    6    6    0  502  0.13431216766E+03  0.89562560870E+02 -0.18495076460E+03  0.24549540937E+03  0.00000000000E+00 0.  1.
<mgrwt>
<rscale>  0 0.11972553E+04</rscale>
<asrwt>0</asrwt>
<pdfrwt beam="1">  1        2 0.17507265E+00 0.11972553E+04</pdfrwt>
<pdfrwt beam="2">  1       -2 0.48447186E-01 0.11972553E+04</pdfrwt>
<totfact> 0.82206115E+01</totfact>
</mgrwt>
</event>
<event>
12    1  0.4820219E-008  0.1262717E+04  0.7818608E-02  0.9059665E-01
         -1   -1    0    0    0  501 -0.00000000000E+00  0.00000000000E+00  0.40594353740E+03  0.40594353740E+03  0.00000000000E+00 0.  1.
          1   -1    0    0  501    0  0.00000000000E+00 -0.00000000000E+00 -0.98194280212E+03  0.98194280212E+03  0.00000000000E+00 0. -1.
         23    2    1    2    0    0  0.17261690792E+03 -0.23549575849E+03 -0.86359551938E+02  0.31658801735E+03  0.86689972624E+02 0.  0.
        254    2    1    2    0    0 -0.17261690792E+03  0.23549575849E+03 -0.48963971278E+03  0.10712983222E+04  0.90701609555E+03 0.  0.
         23    2    4    4    0    0  0.22063357893E+03  0.15330363533E+03 -0.58270148129E+03  0.64896552426E+03  0.97129061695E+02 0.  0.
         23    2    4    4    0    0 -0.39325048685E+03  0.82192123161E+02  0.93061768509E+02  0.42233279791E+03  0.91120847857E+02 0.  0.
         13    1    3    3    0    0  0.43005710869E+02 -0.81642174854E+02 -0.67910823477E+02  0.11457231702E+03  0.00000000000E+00 0. -1.
        -13    1    3    3    0    0  0.12961119705E+03 -0.15385358364E+03 -0.18448728461E+02  0.20201570033E+03  0.00000000000E+00 0.  1.
          4    1    5    5  502    0  0.19162306527E+03  0.15523160092E+03 -0.45027253041E+03  0.51338250916E+03  0.00000000000E+00 0.  1.
          3    1    6    6  503    0  0.29331437043E+01 -0.29129410984E+01  0.69137318979E+01  0.80553241144E+01  0.00000000000E+00 0. -1.
         -4    1    5    5    0  502  0.29010513663E+02 -0.19279655827E+01 -0.13242895088E+03  0.13558301510E+03  0.00000000000E+00 0. -1.
         -3    1    6    6    0  503 -0.39618363055E+03  0.85105064259E+02  0.86148036611E+02  0.41427747379E+03  0.00000000000E+00 0.  1.
<mgrwt>
<rscale>  0 0.12627167E+04</rscale>
<asrwt>0</asrwt>
<pdfrwt beam="1">  1        1 0.15106812E+00 0.12627167E+04</pdfrwt>
<pdfrwt beam="2">  1       -1 0.62452852E-01 0.12627167E+04</pdfrwt>
<totfact> 0.40057521E+01</totfact>
</mgrwt>
</event>
<event>
12    1  0.4820219E-008  0.1374803E+04  0.7818608E-02  0.8972262E-01
          2   -1    0    0  501    0  0.00000000000E+00  0.00000000000E+00  0.56515737890E+03  0.56515737890E+03  0.00000000000E+00 0. -1.
         -2   -1    0    0    0  501 -0.00000000000E+00 -0.00000000000E+00 -0.83608719276E+03  0.83608719276E+03  0.00000000000E+00 0.  1.
         23    2    1    2    0    0  0.40912057198E+02 -0.71483635791E+02 -0.46636839664E+03  0.48232454260E+03  0.91398995619E+02 0.  0.
        254    2    1    2    0    0 -0.40912057198E+02  0.71483635791E+02  0.19543858278E+03  0.91892002907E+03  0.89411077254E+03 0.  0.
         23    2    4    4    0    0 -0.28545312179E+03  0.28144956268E+03 -0.15008634793E+03  0.43796876660E+03  0.92700526500E+02 0.  0.
         23    2    4    4    0    0  0.24454106459E+03 -0.20996592688E+03  0.34552493071E+03  0.48095126246E+03  0.89669484209E+02 0.  0.
         13    1    3    3    0    0  0.19666787202E+02  0.18727067984E+02 -0.65986424786E+02  0.71356105907E+02  0.00000000000E+00 0. -1.
        -13    1    3    3    0    0  0.21245269996E+02 -0.90210703776E+02 -0.40038197185E+03  0.41096843669E+03  0.00000000000E+00 0.  1.
          3    1    5    5  502    0 -0.23706357478E+03  0.25943974605E+03 -0.15595321770E+03  0.38448605492E+03  0.00000000000E+00 0. -1.
          3    1    6    6  503    0  0.95123109319E+02 -0.13548902338E+03  0.14541586596E+03  0.22034394809E+03  0.00000000000E+00 0. -1.
         -3    1    5    5    0  502 -0.48389547014E+02  0.22009816623E+02  0.58668697667E+01  0.53482711681E+02  0.00000000000E+00 0.  1.
         -3    1    6    6    0  503  0.14941795527E+03 -0.74476903500E+02  0.20010906475E+03  0.26060731438E+03  0.00000000000E+00 0.  1.
<mgrwt>
<rscale>  0 0.13748030E+04</rscale>
<asrwt>0</asrwt>
<pdfrwt beam="1">  1        2 0.86947289E-01 0.13748030E+04</pdfrwt>
<pdfrwt beam="2">  1       -2 0.12862880E+00 0.13748030E+04</pdfrwt>
<totfact> 0.23174435E+01</totfact>
</mgrwt>
</event>
<event>
12    1  0.4820219E-008  0.1276362E+04  0.7818608E-02  0.9048523E-01
         -2   -1    0    0    0  501 -0.00000000000E+00  0.00000000000E+00  0.31650393966E+03  0.31650393966E+03  0.00000000000E+00 0.  1.
          2   -1    0    0  501    0  0.00000000000E+00 -0.00000000000E+00 -0.12867925743E+04  0.12867925743E+04  0.00000000000E+00 0. -1.
         23    2    1    2    0    0  0.24808683182E+03  0.16126285701E+02 -0.40375279733E+02  0.26786217667E+03  0.91174828026E+02 0.  0.
        254    2    1    2    0    0 -0.24808683182E+03 -0.16126285701E+02 -0.92991335493E+03  0.13354343373E+04  0.92565592332E+03 0.  0.
         23    2    4    4    0    0  0.30038581059E+02 -0.43620788863E+03 -0.42311392227E+03  0.61480289797E+03  0.88190553268E+02 0.  0.
         23    2    4    4    0    0 -0.27812541288E+03  0.42008160293E+03 -0.50679943266E+03  0.72063143933E+03  0.92960787454E+02 0.  0.
         11    1    3    3    0    0  0.86945019618E+02 -0.96552672258E+00  0.28903290767E+02  0.91628428424E+02  0.00000000000E+00 0. -1.
        -11    1    3    3    0    0  0.16114181220E+03  0.17091812424E+02 -0.69278570500E+02  0.17623374825E+03  0.00000000000E+00 0.  1.
          4    1    6    6  502    0 -0.17151561131E+03  0.17529044623E+03 -0.24859846324E+03  0.34920701795E+03  0.00000000000E+00 0. -1.
          4    1    5    5  503    0  0.12479303765E+02 -0.34278414467E+03 -0.37516139039E+03  0.50833332736E+03  0.00000000000E+00 0. -1.
         -4    1    5    5    0  503  0.17559277293E+02 -0.93423743957E+02 -0.47952531876E+02  0.10646957062E+03  0.00000000000E+00 0.  1.
         -4    1    6    6    0  502 -0.10660980156E+03  0.24479115670E+03 -0.25820096942E+03  0.37142442138E+03  0.00000000000E+00 0.  1.
<mgrwt>
<rscale>  0 0.12763619E+04</rscale>
<asrwt>0</asrwt>
<pdfrwt beam="1">  1        2 0.19796808E+00 0.12763619E+04</pdfrwt>
<pdfrwt beam="2">  1       -2 0.48692915E-01 0.12763619E+04</pdfrwt>
<totfact> 0.65966923E+01</totfact>
</mgrwt>
</event>
<event>
12    1  0.4820219E-008  0.1347113E+04  0.7818608E-02  0.8993017E-01
         -1   -1    0    0    0  501 -0.00000000000E+00  0.00000000000E+00  0.45473786304E+03  0.45473786304E+03  0.00000000000E+00 0.  1.
          1   -1    0    0  501    0  0.00000000000E+00 -0.00000000000E+00 -0.99766962368E+03  0.99766962368E+03  0.00000000000E+00 0. -1.
         23    2    1    2    0    0  0.25610962224E+03  0.16543972828E+03  0.51254068231E+02  0.32301276337E+03  0.93529800006E+02 0.  0.
        254    2    1    2    0    0 -0.25610962224E+03 -0.16543972828E+03 -0.59418582887E+03  0.11293947234E+04  0.91077615230E+03 0.  0.
         23    2    4    4    0    0 -0.55926565370E+02  0.22296511433E+03  0.12963943642E+03  0.27907222232E+03  0.90739731500E+02 0.  0.
         23    2    4    4    0    0 -0.20018305687E+03 -0.38840484261E+03 -0.72382526529E+03  0.85032250103E+03  0.90519407095E+02 0.  0.
         13    1    3    3    0    0  0.11315605928E+03  0.25693848597E+02 -0.22745919972E+01  0.11605878414E+03  0.00000000000E+00 0. -1.
        -13    1    3    3    0    0  0.14295356297E+03  0.13974587968E+03  0.53528660228E+02  0.20695397923E+03  0.00000000000E+00 0.  1.
          1    1    5    5  502    0 -0.51241051841E+02  0.60373044866E+02  0.16373241974E+02  0.80861814183E+02  0.00000000000E+00 0. -1.
          3    1    6    6  503    0 -0.63813383022E+02 -0.18923201374E+03 -0.26438322187E+03  0.33132973135E+03  0.00000000000E+00 0. -1.
         -1    1    5    5    0  502 -0.46855135290E+01  0.16259206947E+03  0.11326619444E+03  0.19821040814E+03  0.00000000000E+00 0.  1.
         -3    1    6    6    0  503 -0.13636967385E+03 -0.19917282888E+03 -0.45944204343E+03  0.51899276968E+03  0.00000000000E+00 0.  1.
<mgrwt>
<rscale>  0 0.13471127E+04</rscale>
<asrwt>0</asrwt>
<pdfrwt beam="1">  1        1 0.15348763E+00 0.13471127E+04</pdfrwt>
<pdfrwt beam="2">  1       -1 0.69959672E-01 0.13471127E+04</pdfrwt>
<totfact> 0.30734883E+01</totfact>
</mgrwt>
</event>
<event>
12    1  0.4820219E-008  0.1960804E+04  0.7818608E-02  0.8625169E-01
         -1   -1    0    0    0  501 -0.00000000000E+00  0.00000000000E+00  0.15582780725E+04  0.15582780725E+04  0.00000000000E+00 0.  1.
          1   -1    0    0  501    0  0.00000000000E+00 -0.00000000000E+00 -0.61682692927E+03  0.61682692927E+03  0.00000000000E+00 0. -1.
         23    2    1    2    0    0 -0.60666635763E+03  0.70809316713E+02  0.86969752117E+03  0.10668946718E+04  0.93981027810E+02 0.  0.
        254    2    1    2    0    0  0.60666635763E+03 -0.70809316713E+02  0.71753622036E+02  0.11082103299E+04  0.92191297002E+03 0.  0.
         23    2    4    4    0    0  0.14468244169E+03  0.25630871837E+03 -0.29613447911E+03  0.42715655572E+03  0.90221534736E+02 0.  0.
         23    2    4    4    0    0  0.46198391593E+03 -0.32711803508E+03  0.36788810114E+03  0.68105377422E+03  0.89762135413E+02 0.  0.
         13    1    3    3    0    0 -0.50276779289E+03  0.44939144755E+02  0.76928875198E+03  0.92010877847E+03  0.00000000000E+00 0. -1.
        -13    1    3    3    0    0 -0.10389856474E+03  0.25870171957E+02  0.10040876919E+03  0.14678589334E+03  0.00000000000E+00 0.  1.
          3    1    6    6  502    0  0.28653956387E+03 -0.15579347631E+03  0.18337555421E+03  0.37416991168E+03  0.00000000000E+00 0. -1.
          3    1    5    5  503    0  0.13852359566E+03  0.25813709296E+03 -0.26391489143E+03  0.39430269494E+03  0.00000000000E+00 0. -1.
         -3    1    5    5    0  503  0.61588460392E+01 -0.18283745927E+01 -0.32219587675E+02  0.32853860779E+02  0.00000000000E+00 0.  1.
         -3    1    6    6    0  502  0.17544435206E+03 -0.17132455877E+03  0.18451254693E+03  0.30688386253E+03  0.00000000000E+00 0.  1.
<mgrwt>
<rscale>  0 0.19608038E+04</rscale>
<asrwt>0</asrwt>
<pdfrwt beam="1">  1        1 0.94896451E-01 0.19608038E+04</pdfrwt>
<pdfrwt beam="2">  1       -1 0.23973509E+00 0.19608038E+04</pdfrwt>
<totfact> 0.24923536E+00</totfact>
</mgrwt>
</event>
<event>
12    1  0.4820219E-008  0.1929328E+04  0.7818608E-02  0.8640394E-01
         -2   -1    0    0    0  501 -0.00000000000E+00  0.00000000000E+00  0.96860270564E+03  0.96860270564E+03  0.00000000000E+00 0.  1.
          2   -1    0    0  501    0  0.00000000000E+00 -0.00000000000E+00 -0.96074132225E+03  0.96074132225E+03  0.00000000000E+00 0. -1.
         23    2    1    2    0    0 -0.56235498716E+01 -0.61572712471E+03  0.43361794558E+03  0.75915169457E+03  0.95578534288E+02 0.  0.
        254    2    1    2    0    0  0.56235498716E+01  0.61572712471E+03 -0.42575656219E+03  0.11701923333E+04  0.89940532036E+03 0.  0.
         23    2    4    4    0    0  0.34334888965E+03 -0.29060510911E+02 -0.11645673171E+03  0.37450063419E+03  0.89194065578E+02 0.  0.
         23    2    4    4    0    0 -0.33772533978E+03  0.64478763562E+03 -0.30929983048E+03  0.79569169913E+03  0.87460818335E+02 0.  0.
         11    1    3    3    0    0  0.27127524528E+01 -0.25245664084E+03  0.12171125863E+03  0.28027726452E+03  0.00000000000E+00 0. -1.
        -11    1    3    3    0    0 -0.83363023244E+01 -0.36327048387E+03  0.31190668695E+03  0.47887443005E+03  0.00000000000E+00 0.  1.
          2    1    5    5  502    0  0.70728496335E+02  0.26995093012E+02 -0.93540309071E+01  0.76280752060E+02  0.00000000000E+00 0. -1.
          1    1    6    6  503    0 -0.13753135670E+03  0.32675044735E+03 -0.11544376755E+03  0.37283775612E+03  0.00000000000E+00 0. -1.
         -2    1    5    5    0  502  0.27262039331E+03 -0.56055603923E+02 -0.10710270080E+03  0.29821988213E+03  0.00000000000E+00 0.  1.
         -1    1    6    6    0  503 -0.20019398307E+03  0.31803718827E+03 -0.19385606293E+03  0.42285394301E+03  0.00000000000E+00 0.  1.
<mgrwt>
<rscale>  0 0.19293280E+04</rscale>
<asrwt>0</asrwt>
<pdfrwt beam="1">  1        2 0.14780636E+00 0.19293280E+04</pdfrwt>
<pdfrwt beam="2">  1       -2 0.14901580E+00 0.19293280E+04</pdfrwt>
<totfact> 0.76085913E+00</totfact>
</mgrwt>
</event>
<event>
12    1  0.4820219E-008  0.2277113E+04  0.7818608E-02  0.8487000E-01
         -2   -1    0    0    0  501 -0.00000000000E+00  0.00000000000E+00  0.10123819574E+04  0.10123819574E+04  0.00000000000E+00 0.  1.
          2   -1    0    0  501    0  0.00000000000E+00 -0.00000000000E+00 -0.12804561818E+04  0.12804561818E+04  0.00000000000E+00 0. -1.
         23    2    1    2    0    0  0.51402459926E+03 -0.54415746911E+03 -0.72703682175E+03  0.10458396567E+04  0.69781140066E+02 0.  0.
        254    2    1    2    0    0 -0.51402459926E+03  0.54415746911E+03  0.45896259739E+03  0.12469984825E+04  0.88545463451E+03 0.  0.
         23    2    4    4    0    0 -0.43115997438E+03  0.16811285025E+03 -0.17214710697E+03  0.50212749180E+03  0.91304642009E+02 0.  0.
         23    2    4    4    0    0 -0.82864624871E+02  0.37604461886E+03  0.63110970436E+03  0.74487099072E+03  0.90869315240E+02 0.  0.
         11    1    3    3    0    0  0.21232949632E+03 -0.22733325746E+03 -0.25486968512E+03  0.40214771085E+03  0.00000000000E+00 0. -1.
        -11    1    3    3    0    0  0.30169510294E+03 -0.31682421165E+03 -0.47216713664E+03  0.64369194584E+03  0.00000000000E+00 0.  1.
          2    1    5    5  502    0 -0.34783856849E+03  0.94662163317E+02 -0.13662922022E+03  0.38551282561E+03  0.00000000000E+00 0. -1.
          4    1    6    6  503    0 -0.19300023591E+02  0.10824589144E+03  0.26446838749E+03  0.28641437098E+03  0.00000000000E+00 0.  1.
         -2    1    5    5    0  502 -0.83321405890E+02  0.73450686928E+02 -0.35517886751E+02  0.11661466618E+03  0.00000000000E+00 0.  1.
         -4    1    6    6    0  503 -0.63564601280E+02  0.26779872743E+03  0.36664131687E+03  0.45845661974E+03  0.00000000000E+00 0. -1.
<mgrwt>
<rscale>  0 0.22771129E+04</rscale>
<asrwt>0</asrwt>
<pdfrwt beam="1">  1        2 0.19699326E+00 0.22771129E+04</pdfrwt>
<pdfrwt beam="2">  1       -2 0.15575107E+00 0.22771129E+04</pdfrwt>
<totfact> 0.41778205E+00</totfact>
</mgrwt>
</event>
<event>
12    1  0.4820219E-008  0.1244406E+04  0.7818608E-02  0.9074852E-01
          2   -1    0    0  501    0  0.00000000000E+00  0.00000000000E+00  0.14615937118E+04  0.14615937118E+04  0.00000000000E+00 0. -1.
         -2   -1    0    0    0  501 -0.00000000000E+00 -0.00000000000E+00 -0.26487307860E+03  0.26487307860E+03  0.00000000000E+00 0.  1.
         23    2    1    2    0    0  0.36740136597E+02 -0.25763910988E+03  0.10005783633E+03  0.29364906379E+03  0.92143656761E+02 0.  0.
        254    2    1    2    0    0 -0.36740136597E+02  0.25763910988E+03  0.10966627968E+04  0.14328177266E+04  0.88462963948E+03 0.  0.
         23    2    4    4    0    0 -0.24883443965E+03 -0.12008719331E+03  0.48653224611E+02  0.29504783475E+03  0.91359598150E+02 0.  0.
         23    2    4    4    0    0  0.21209430305E+03  0.37772630319E+03  0.10480095722E+04  0.11377698918E+04  0.92385657728E+02 0.  0.
         13    1    3    3    0    0  0.47575337639E+02 -0.26031764427E+03  0.98560143906E+02  0.28238766021E+03  0.00000000000E+00 0. -1.
        -13    1    3    3    0    0 -0.10835201042E+02  0.26785343952E+01  0.14976924203E+01  0.11261403586E+02  0.00000000000E+00 0.  1.
          2    1    5    5  502    0 -0.32803248209E+02 -0.41615962464E+02  0.37535650425E+02  0.64937404303E+02  0.00000000000E+00 0. -1.
          3    1    6    6  503    0 -0.90525297288E+01  0.19633836266E+02  0.41117524677E+02  0.46455211296E+02  0.00000000000E+00 0. -1.
         -2    1    5    5    0  502 -0.21603119144E+03 -0.78471230851E+02  0.11117574186E+02  0.23011043045E+03  0.00000000000E+00 0.  1.
         -3    1    6    6    0  503  0.22114683278E+03  0.35809246692E+03  0.10068920475E+04  0.10913146805E+04  0.00000000000E+00 0.  1.
<mgrwt>
<rscale>  0 0.12444064E+04</rscale>
<asrwt>0</asrwt>
<pdfrwt beam="1">  1        2 0.22486057E+00 0.12444064E+04</pdfrwt>
<pdfrwt beam="2">  1       -2 0.40749705E-01 0.12444064E+04</pdfrwt>
<totfact> 0.74840705E+01</totfact>
</mgrwt>
</event>
<event>
12    1  0.4820219E-008  0.2355522E+04  0.7818608E-02  0.8456346E-01
          2   -1    0    0  501    0  0.00000000000E+00  0.00000000000E+00  0.12827446886E+04  0.12827446886E+04  0.00000000000E+00 0.  1.
         -2   -1    0    0    0  501 -0.00000000000E+00 -0.00000000000E+00 -0.10813694384E+04  0.10813694384E+04  0.00000000000E+00 0. -1.
         23    2    1    2    0    0  0.13842434786E+03  0.17773175267E+03  0.10727372970E+04  0.10998001609E+04  0.89695092177E+02 0.  0.
        254    2    1    2    0    0 -0.13842434786E+03 -0.17773175267E+03 -0.87136204678E+03  0.12643139661E+04  0.88795726946E+03 0.  0.
         23    2    4    4    0    0 -0.32771531680E+03  0.78837179173E+02 -0.19962412057E+02  0.35049197861E+03  0.93986698471E+02 0.  0.
         23    2    4    4    0    0  0.18929096894E+03 -0.25656893184E+03 -0.85139963472E+03  0.91382198752E+03  0.92361242767E+02 0.  0.
         11    1    3    3    0    0  0.20202637620E+02  0.93155996699E+02  0.36113773960E+03  0.37350589453E+03  0.00000000000E+00 0.  1.
        -11    1    3    3    0    0  0.11822171024E+03  0.84575755969E+02  0.71159955738E+03  0.72629426635E+03  0.00000000000E+00 0. -1.
          4    1    5    5  502    0 -0.12592817132E+02 -0.80368842655E+01  0.15703114560E+02  0.21673909636E+02  0.00000000000E+00 0. -1.
          4    1    6    6  503    0  0.17165170840E+02 -0.92107789320E+02 -0.22675863237E+03  0.24535273648E+03  0.00000000000E+00 0. -1.
         -4    1    5    5    0  502 -0.31512249966E+03  0.86874063438E+02 -0.35665526617E+02  0.32881806897E+03  0.00000000000E+00 0.  1.
         -4    1    6    6    0  503  0.17212579810E+03 -0.16446114252E+03 -0.62464100235E+03  0.66846925104E+03  0.00000000000E+00 0.  1.
<mgrwt>
<rscale>  0 0.23555219E+04</rscale>
<asrwt>0</asrwt>
<pdfrwt beam="1">  1        2 0.19734534E+00 0.23555219E+04</pdfrwt>
<pdfrwt beam="2">  1       -2 0.16636453E+00 0.23555219E+04</pdfrwt>
<totfact> 0.34562577E+00</totfact>
</mgrwt>
</event>
<event>
12    1  0.4820219E-008  0.1207332E+04  0.7818608E-02  0.9106463E-01
          2   -1    0    0  501    0  0.00000000000E+00  0.00000000000E+00  0.21704202001E+04  0.21704202001E+04  0.00000000000E+00 0.  1.
         -2   -1    0    0    0  501 -0.00000000000E+00 -0.00000000000E+00 -0.16789957555E+03  0.16789957555E+03  0.00000000000E+00 0. -1.
         23    2    1    2    0    0 -0.23919407772E+03  0.93142700875E+02  0.44723753086E+03  0.52502415115E+03  0.98689314199E+02 0.  0.
        254    2    1    2    0    0  0.23919407772E+03 -0.93142700875E+02  0.15552830937E+04  0.18132956245E+04  0.89624000736E+03 0.  0.
         23    2    4    4    0    0 -0.69285908749E+02  0.23975397847E+02  0.14498955452E+04  0.14546216613E+04  0.91387793402E+02 0.  0.
         23    2    4    4    0    0  0.30847998647E+03 -0.11711809872E+03  0.10538754852E+03  0.35867396320E+03  0.93080209486E+02 0.  0.
         11    1    3    3    0    0 -0.13972117908E+03  0.71875916096E+02  0.35287052585E+03  0.38627161844E+03  0.00000000000E+00 0. -1.
        -11    1    3    3    0    0 -0.99472898638E+02  0.21266784779E+02  0.94367005008E+02  0.13875253271E+03  0.00000000000E+00 0.  1.
          1    1    5    5  502    0 -0.81791175014E+02 -0.42145077865E+01  0.12071386476E+04  0.12099137460E+04  0.00000000000E+00 0. -1.
          1    1    6    6  503    0  0.15441842120E+03 -0.92087446033E+01  0.50754786808E+02  0.16280632103E+03  0.00000000000E+00 0. -1.
         -1    1    5    5    0  502  0.12505266265E+02  0.28189905633E+02  0.24275689759E+03  0.24470791526E+03  0.00000000000E+00 0.  1.
         -1    1    6    6    0  503  0.15406156527E+03 -0.10790935412E+03  0.54632761716E+02  0.19586764218E+03  0.00000000000E+00 0.  1.
<mgrwt>
<rscale>  0 0.12073320E+04</rscale>
<asrwt>0</asrwt>
<pdfrwt beam="1">  1        2 0.33391078E+00 0.12073320E+04</pdfrwt>
<pdfrwt beam="2">  1       -2 0.25830705E-01 0.12073320E+04</pdfrwt>
<totfact> 0.71720860E+01</totfact>
</mgrwt>
</event>
<event>
12    1  0.4820219E-008  0.1091542E+04  0.7818608E-02  0.9213475E-01
          1   -1    0    0  501    0  0.00000000000E+00  0.00000000000E+00  0.11917694172E+04  0.11917694172E+04  0.00000000000E+00 0. -1.
         -1   -1    0    0    0  501 -0.00000000000E+00 -0.00000000000E+00 -0.24993570732E+03  0.24993570732E+03  0.00000000000E+00 0.  1.
         23    2    1    2    0    0 -0.12004094186E+03 -0.69890018598E+02  0.16507386043E+03  0.23441282426E+03  0.91681788580E+02 0.  0.
        254    2    1    2    0    0  0.12004094186E+03  0.69890018598E+02  0.77675984944E+03  0.12072923002E+04  0.91373102832E+03 0.  0.
         23    2    4    4    0    0  0.47152098501E+03  0.13824236017E+02  0.66968023429E+03  0.82419130420E+03  0.91085349569E+02 0.  0.
         23    2    4    4    0    0 -0.35148004316E+03  0.56065782581E+02  0.10707961514E+03  0.38310099605E+03  0.92837150312E+02 0.  0.
         11    1    3    3    0    0 -0.95976050184E+02 -0.86654524070E+02  0.10145101042E+03  0.16435545706E+03  0.00000000000E+00 0. -1.
        -11    1    3    3    0    0 -0.24064891671E+02  0.16764505472E+02  0.63622850010E+02  0.70057367195E+02  0.00000000000E+00 0.  1.
          4    1    5    5  502    0  0.47276054703E+03  0.12901050092E+02  0.64681095171E+03  0.80126985415E+03  0.00000000000E+00 0. -1.
          1    1    6    6  503    0 -0.35401844699E+03  0.63634046701E+02  0.10635113076E+03  0.37508521129E+03  0.00000000000E+00 0. -1.
         -4    1    5    5    0  502 -0.12395620215E+01  0.92318592512E+00  0.22869282585E+02  0.22921450046E+02  0.00000000000E+00 0.  1.
         -1    1    6    6    0  503  0.25384038360E+01 -0.75682641200E+01  0.72848438033E+00  0.80157847599E+01  0.00000000000E+00 0.  1.
<mgrwt>
<rscale>  0 0.10915415E+04</rscale>
<asrwt>0</asrwt>
<pdfrwt beam="1">  1        1 0.18334914E+00 0.10915415E+04</pdfrwt>
<pdfrwt beam="2">  1       -1 0.38451648E-01 0.10915415E+04</pdfrwt>
<totfact> 0.70667662E+01</totfact>
</mgrwt>
</event>
<event>
12    1  0.4820219E-008  0.1439677E+04  0.7818608E-02  0.8925589E-01
          2   -1    0    0  501    0  0.00000000000E+00  0.00000000000E+00  0.23582824083E+04  0.23582824083E+04  0.00000000000E+00 0. -1.
         -2   -1    0    0    0  501 -0.00000000000E+00 -0.00000000000E+00 -0.21972240754E+03  0.21972240754E+03  0.00000000000E+00 0.  1.
         23    2    1    2    0    0 -0.42569468174E+03  0.53006430497E+02  0.51814900676E+03  0.67775922042E+03  0.82786012881E+02 0.  0.
        254    2    1    2    0    0  0.42569468174E+03 -0.53006430497E+02  0.16204109940E+04  0.19002455954E+04  0.89508429194E+03 0.  0.
         23    2    4    4    0    0  0.67447212608E+02  0.17108165774E+03 -0.17237767860E+02  0.20656179434E+03  0.92480128329E+02 0.  0.
         23    2    4    4    0    0  0.35824746913E+03 -0.22408808824E+03  0.16376487619E+04  0.16936838011E+04  0.90081243105E+02 0.  0.
         11    1    3    3    0    0 -0.40973191523E+03  0.33195863313E+02  0.48089766691E+03  0.63264901307E+03  0.00000000000E+00 0.  1.
        -11    1    3    3    0    0 -0.15962766504E+02  0.19810567185E+02  0.37251339848E+02  0.45110207350E+02  0.00000000000E+00 0. -1.
          1    1    5    5  502    0  0.24033176162E+02  0.64279812424E+00 -0.19045329205E+02  0.30671343472E+02  0.00000000000E+00 0. -1.
          1    1    6    6  503    0  0.13424129827E+03 -0.13187066649E+03  0.64377570819E+03  0.67071436640E+03  0.00000000000E+00 0. -1.
         -1    1    5    5    0  502  0.43414036446E+02  0.17043885962E+03  0.18075613450E+01  0.17589045087E+03  0.00000000000E+00 0.  1.
         -1    1    6    6    0  503  0.22400617086E+03 -0.92217421756E+02  0.99387305368E+03  0.10229694347E+04  0.00000000000E+00 0.  1.
<mgrwt>
<rscale>  0 0.14396770E+04</rscale>
<asrwt>0</asrwt>
<pdfrwt beam="1">  1        2 0.36281266E+00 0.14396770E+04</pdfrwt>
<pdfrwt beam="2">  1       -2 0.33803449E-01 0.14396770E+04</pdfrwt>
<totfact> 0.33449058E+01</totfact>
</mgrwt>
</event>
<event>
12    1  0.4820219E-008  0.1708495E+04  0.7818608E-02  0.8756534E-01
         -2   -1    0    0    0  501 -0.00000000000E+00  0.00000000000E+00  0.18120170552E+03  0.18120170552E+03  0.00000000000E+00 0.  1.
          2   -1    0    0  501    0  0.00000000000E+00 -0.00000000000E+00 -0.40272183103E+04  0.40272183103E+04  0.00000000000E+00 0. -1.
         23    2    1    2    0    0 -0.41217008319E+03 -0.18228149547E+03 -0.24911918147E+04  0.25332380439E+04  0.90264103778E+02 0.  0.
        254    2    1    2    0    0  0.41217008319E+03  0.18228149547E+03 -0.13548247901E+04  0.16751819719E+04  0.87611283870E+03 0.  0.
         23    2    4    4    0    0  0.15225560780E+03 -0.18998730566E+03 -0.11323219331E+04  0.11619844219E+04  0.93690394762E+02 0.  0.
         23    2    4    4    0    0  0.25991447539E+03  0.37226880113E+03 -0.22250285697E+03  0.51319755003E+03  0.87889755864E+02 0.  0.
         11    1    3    3    0    0 -0.31373858851E+03 -0.10136066924E+03 -0.19092283237E+04  0.19374877236E+04  0.00000000000E+00 0. -1.
        -11    1    3    3    0    0 -0.98431494685E+02 -0.80920826237E+02 -0.58196349103E+03  0.59575032032E+03  0.00000000000E+00 0.  1.
          2    1    5    5  502    0  0.11447751675E+03 -0.18529470876E+03 -0.10308033255E+04  0.10535628727E+04  0.00000000000E+00 0. -1.
          3    1    6    6  503    0  0.16836872246E+03  0.19369595224E+03 -0.16243555628E+03  0.30372925207E+03  0.00000000000E+00 0. -1.
         -2    1    5    5    0  502  0.37778091051E+02 -0.46925969016E+01 -0.10151860765E+03  0.10842154919E+03  0.00000000000E+00 0.  1.
         -3    1    6    6    0  503  0.91545752926E+02  0.17857284889E+03 -0.60067300696E+02  0.20946829796E+03  0.00000000000E+00 0.  1.
<mgrwt>
<rscale>  0 0.17084950E+04</rscale>
<asrwt>0</asrwt>
<pdfrwt beam="1">  1        2 0.61957207E+00 0.17084950E+04</pdfrwt>
<pdfrwt beam="2">  1       -2 0.27877184E-01 0.17084950E+04</pdfrwt>
<totfact> 0.36972484E+00</totfact>
</mgrwt>
</event>
<event>
12    1  0.4820219E-008  0.2104294E+04  0.7818608E-02  0.8559354E-01
          2   -1    0    0  501    0  0.00000000000E+00  0.00000000000E+00  0.46237273288E+04  0.46237273288E+04  0.00000000000E+00 0.  1.
         -2   -1    0    0    0  501 -0.00000000000E+00 -0.00000000000E+00 -0.23942013980E+03  0.23942013980E+03  0.00000000000E+00 0. -1.
         23    2    1    2    0    0 -0.39932913940E+03 -0.45788612996E+03  0.31875381234E+04  0.32461660751E+04  0.89841133986E+02 0.  0.
        254    2    1    2    0    0  0.39932913940E+03  0.45788612996E+03  0.11967690657E+04  0.16169813936E+04  0.90180328288E+03 0.  0.
         23    2    4    4    0    0  0.13129759386E+03 -0.25026033914E+03  0.18519676448E+03  0.35010912397E+03  0.91702026212E+02 0.  0.
         23    2    4    4    0    0  0.26803154554E+03  0.70814646910E+03  0.10115723012E+04  0.12668722696E+04  0.91512271508E+02 0.  0.
         11    1    3    3    0    0 -0.33213659397E+03 -0.32335688293E+03  0.23670700269E+04  0.24120312816E+04  0.00000000000E+00 0.  1.
        -11    1    3    3    0    0 -0.67192545433E+02 -0.13452924702E+03  0.82046809644E+03  0.83413479351E+03  0.00000000000E+00 0. -1.
          1    1    5    5  502    0  0.90072954887E+02 -0.23353610000E+03  0.14047741793E+03  0.28702988024E+03  0.00000000000E+00 0. -1.
          1    1    6    6  503    0  0.21442145130E+03  0.44946538145E+03  0.63859745404E+03  0.80981627311E+03  0.00000000000E+00 0. -1.
         -1    1    5    5    0  502  0.41224638972E+02 -0.16724239148E+02  0.44719346547E+02  0.63079243726E+02  0.00000000000E+00 0.  1.
         -1    1    6    6    0  503  0.53610094246E+02  0.25868108766E+03  0.37297484715E+03  0.45705599648E+03  0.00000000000E+00 0.  1.
<mgrwt>
<rscale>  0 0.21042941E+04</rscale>
<asrwt>0</asrwt>
<pdfrwt beam="1">  1        2 0.71134260E+00 0.21042941E+04</pdfrwt>
<pdfrwt beam="2">  1       -2 0.36833871E-01 0.21042941E+04</pdfrwt>
<totfact> 0.60014650E-01</totfact>
</mgrwt>
</event>
<event>
12    1  0.4820219E-008  0.2496817E+04  0.7818608E-02  0.8404120E-01
          1   -1    0    0  501    0  0.00000000000E+00  0.00000000000E+00  0.12222634875E+04  0.12222634875E+04  0.00000000000E+00 0. -1.
         -1   -1    0    0    0  501 -0.00000000000E+00 -0.00000000000E+00 -0.12751132405E+04  0.12751132405E+04  0.00000000000E+00 0.  1.
         23    2    1    2    0    0  0.72169425682E+03 -0.71302391469E+03 -0.41653026667E+03  0.11004919853E+04  0.91320552552E+02 0.  0.
        254    2    1    2    0    0 -0.72169425682E+03  0.71302391469E+03  0.36368051369E+03  0.13968847428E+04  0.88869441618E+03 0.  0.
         23    2    4    4    0    0 -0.69070884861E+02 -0.18670762946E+03  0.14230096902E+03  0.25974785966E+03  0.87114056151E+02 0.  0.
         23    2    4    4    0    0 -0.65262337196E+03  0.89973154416E+03  0.22137954466E+03  0.11371368831E+04  0.92936919419E+02 0.  0.
         11    1    3    3    0    0  0.34507635464E+03 -0.29300020776E+03 -0.21787811251E+03  0.50239196270E+03  0.00000000000E+00 0. -1.
        -11    1    3    3    0    0  0.37661790219E+03 -0.42002370693E+03 -0.19865215416E+03  0.59810002256E+03  0.00000000000E+00 0.  1.
          4    1    5    5  502    0 -0.37208144115E+02 -0.17812098338E+03  0.10557815532E+03  0.21037651388E+03  0.00000000000E+00 0. -1.
          1    1    6    6  503    0 -0.58900595568E+03  0.83436232753E+03  0.22516319334E+03  0.10458427095E+04  0.00000000000E+00 0. -1.
         -4    1    5    5    0  502 -0.31862740746E+02 -0.85866460826E+01  0.36722813699E+02  0.49371345786E+02  0.00000000000E+00 0.  1.
         -1    1    6    6    0  503 -0.63617416280E+02  0.65369216623E+02 -0.37836486748E+01  0.91294173600E+02  0.00000000000E+00 0.  1.
<mgrwt>
<rscale>  0 0.24968175E+04</rscale>
<asrwt>0</asrwt>
<pdfrwt beam="1">  1        1 0.18804054E+00 0.24968175E+04</pdfrwt>
<pdfrwt beam="2">  1       -1 0.19617127E+00 0.24968175E+04</pdfrwt>
<totfact> 0.14634166E+00</totfact>
</mgrwt>
</event>
<event>
12    1  0.4820219E-008  0.1227359E+04  0.7818608E-02  0.9089241E-01
          2   -1    0    0  501    0  0.00000000000E+00  0.00000000000E+00  0.40720694519E+03  0.40720694519E+03  0.00000000000E+00 0. -1.
         -2   -1    0    0    0  501 -0.00000000000E+00 -0.00000000000E+00 -0.92484318031E+03  0.92484318031E+03  0.00000000000E+00 0.  1.
         23    2    1    2    0    0  0.17123224470E+03  0.18908633032E+03 -0.21224850697E+03  0.34437068351E+03  0.92019655562E+02 0.  0.
        254    2    1    2    0    0 -0.17123224470E+03 -0.18908633032E+03 -0.30538772815E+03  0.98767944200E+03  0.90397726393E+03 0.  0.
         23    2    4    4    0    0 -0.28790951932E+03 -0.33073873758E+03  0.16469700015E+03  0.47518872182E+03  0.79995097531E+02 0.  0.
         23    2    4    4    0    0  0.11667727462E+03  0.14165240726E+03 -0.47008472830E+03  0.51249072018E+03  0.89376146676E+02 0.  0.
         11    1    3    3    0    0  0.13756136592E+03  0.10262313198E+03 -0.99610913412E+02  0.19843631392E+03  0.00000000000E+00 0.  1.
        -11    1    3    3    0    0  0.33670878783E+02  0.86463198341E+02 -0.11263759356E+03  0.14593436959E+03  0.00000000000E+00 0. -1.
          3    1    6    6  502    0  0.14130479142E+02  0.85494178609E+02 -0.18163114326E+03  0.20124312962E+03  0.00000000000E+00 0. -1.
          3    1    5    5  503    0 -0.15934796986E+03 -0.17532780771E+03  0.13091447737E+03  0.27068471704E+03  0.00000000000E+00 0. -1.
         -3    1    5    5    0  503 -0.12856154946E+03 -0.15541092987E+03  0.33782522783E+02  0.20450400477E+03  0.00000000000E+00 0.  1.
         -3    1    6    6    0  502  0.10254679548E+03  0.56158228655E+02 -0.28845358504E+03  0.31124759057E+03  0.00000000000E+00 0.  1.
<mgrwt>
<rscale>  0 0.12273591E+04</rscale>
<asrwt>0</asrwt>
<pdfrwt beam="1">  1        2 0.62647223E-01 0.12273591E+04</pdfrwt>
<pdfrwt beam="2">  1       -2 0.14228356E+00 0.12273591E+04</pdfrwt>
<totfact> 0.26405835E+01</totfact>
</mgrwt>
</event>
<event>
12    1  0.4820219E-008  0.1463406E+04  0.7818608E-02  0.8909159E-01
          2   -1    0    0  501    0  0.00000000000E+00  0.00000000000E+00  0.92131696863E+03  0.92131696863E+03  0.00000000000E+00 0. -1.
         -2   -1    0    0    0  501 -0.00000000000E+00 -0.00000000000E+00 -0.58111288459E+03  0.58111288459E+03  0.00000000000E+00 0.  1.
         23    2    1    2    0    0 -0.11811467491E+03  0.36389295308E+02  0.53833636448E+03  0.56003092207E+03  0.92484242507E+02 0.  0.
        254    2    1    2    0    0  0.11811467491E+03 -0.36389295308E+02 -0.19813228043E+03  0.94239893115E+03  0.91300826264E+03 0.  0.
         23    2    4    4    0    0 -0.30594132844E+03  0.11675934986E+02  0.17852742869E+03  0.36608789683E+03  0.91716309913E+02 0.  0.
         23    2    4    4    0    0  0.42405600336E+03 -0.48065230294E+02 -0.37665970912E+03  0.57631103432E+03  0.90156039530E+02 0.  0.
         13    1    3    3    0    0 -0.68025523593E+02 -0.41793717571E+01  0.41799070654E+03  0.42351053088E+03  0.00000000000E+00 0. -1.
        -13    1    3    3    0    0 -0.50089151320E+02  0.40568667065E+02  0.12034565794E+03  0.13652039119E+03  0.00000000000E+00 0.  1.
          1    1    5    5  502    0 -0.22869217274E+03  0.36136863101E+02  0.16409390490E+03  0.28378300226E+03  0.00000000000E+00 0. -1.
          3    1    6    6  503    0  0.40002396936E+03 -0.29504769498E+02 -0.36893350164E+03  0.54497856482E+03  0.00000000000E+00 0. -1.
         -1    1    5    5    0  502 -0.77249155700E+02 -0.24460928114E+02  0.14433523788E+02  0.82304894566E+02  0.00000000000E+00 0.  1.
         -3    1    6    6    0  503  0.24032033999E+02 -0.18560460795E+02 -0.77262074801E+01  0.31332469502E+02  0.00000000000E+00 0.  1.
<mgrwt>
<rscale>  0 0.14634058E+04</rscale>
<asrwt>0</asrwt>
<pdfrwt beam="1">  1        2 0.14174107E+00 0.14634058E+04</pdfrwt>
<pdfrwt beam="2">  1       -2 0.89401981E-01 0.14634058E+04</pdfrwt>
<totfact> 0.29503260E+01</totfact>
</mgrwt>
</event>
<event>
12    1  0.4820219E-008  0.1067811E+04  0.7818608E-02  0.9237146E-01
          2   -1    0    0  501    0  0.00000000000E+00  0.00000000000E+00  0.45898326636E+03  0.45898326636E+03  0.00000000000E+00 0. -1.
         -2   -1    0    0    0  501 -0.00000000000E+00 -0.00000000000E+00 -0.62105811079E+03  0.62105811079E+03  0.00000000000E+00 0.  1.
         23    2    1    2    0    0 -0.54983458796E+02 -0.88505694164E+02 -0.81892511826E+02  0.16079995652E+03  0.91070323840E+02 0.  0.
        254    2    1    2    0    0  0.54983458796E+02  0.88505694164E+02 -0.80182332597E+02  0.91924142063E+03  0.90979071456E+03 0.  0.
         23    2    4    4    0    0 -0.12525168640E+03  0.15307389522E+03  0.36662968890E+03  0.42615555895E+03  0.89842246758E+02 0.  0.
         23    2    4    4    0    0  0.18023514519E+03 -0.64568201053E+02 -0.44681202149E+03  0.49308586168E+03  0.82697788880E+02 0.  0.
         13    1    3    3    0    0  0.22037979487E+02 -0.59958421149E+01 -0.26763565586E+02  0.35183960911E+02  0.00000000000E+00 0. -1.
        -13    1    3    3    0    0 -0.77021438283E+02 -0.82509852049E+02 -0.55128946240E+02  0.12561599561E+03  0.00000000000E+00 0.  1.
          1    1    5    5  502    0 -0.51208738422E+02  0.49461005308E+01  0.79569709316E+02  0.94753033946E+02  0.00000000000E+00 0. -1.
          3    1    6    6  503    0  0.27021158968E+02 -0.62828713360E+01 -0.15737182325E+02  0.31894770915E+02  0.00000000000E+00 0. -1.
         -1    1    5    5    0  502 -0.74042947975E+02  0.14812779469E+03  0.28705997958E+03  0.33140252500E+03  0.00000000000E+00 0.  1.
         -3    1    6    6    0  503  0.15321398623E+03 -0.58285329717E+02 -0.43107483917E+03  0.46119109076E+03  0.00000000000E+00 0.  1.
<mgrwt>
<rscale>  0 0.10678114E+04</rscale>
<asrwt>0</asrwt>
<pdfrwt beam="1">  1        2 0.70612811E-01 0.10678114E+04</pdfrwt>
<pdfrwt beam="2">  1       -2 0.95547401E-01 0.10678114E+04</pdfrwt>
<totfact> 0.62212527E+01</totfact>
</mgrwt>
</event>
<event>
12    1  0.4820219E-008  0.1459700E+04  0.7818608E-02  0.8911704E-01
         -2   -1    0    0    0  501 -0.00000000000E+00  0.00000000000E+00  0.58843245205E+03  0.58843245205E+03  0.00000000000E+00 0.  1.
          2   -1    0    0  501    0  0.00000000000E+00 -0.00000000000E+00 -0.90525372697E+03  0.90525372697E+03  0.00000000000E+00 0. -1.
         23    2    1    2    0    0 -0.17231139960E+03 -0.33342207286E+03 -0.37975168027E+03  0.54197352327E+03  0.93072359801E+02 0.  0.
        254    2    1    2    0    0  0.17231139960E+03  0.33342207286E+03  0.62930405355E+02  0.95171265574E+03  0.87231602420E+03 0.  0.
         23    2    4    4    0    0  0.43675381731E+03  0.43338092712E+03 -0.72231196494E+02  0.62592182390E+03  0.89374822886E+02 0.  0.
         23    2    4    4    0    0 -0.26444241771E+03 -0.99958854257E+02  0.13516160185E+03  0.32579083184E+03  0.89159647071E+02 0.  0.
         13    1    3    3    0    0 -0.95259406092E+02 -0.97262643316E+02 -0.16223558561E+03  0.21178942719E+03  0.00000000000E+00 0. -1.
        -13    1    3    3    0    0 -0.77051993506E+02 -0.23615942955E+03 -0.21751609466E+03  0.33018409608E+03  0.00000000000E+00 0.  1.
          1    1    6    6  502    0 -0.89894775785E+02  0.80736203358E+01  0.29756545319E+02  0.95035288435E+02  0.00000000000E+00 0. -1.
          1    1    5    5  503    0  0.27449755873E+03  0.21483946860E+03 -0.57928151569E+02  0.35335616276E+03  0.00000000000E+00 0. -1.
         -1    1    5    5    0  503  0.16225625858E+03  0.21854145852E+03 -0.14303044925E+02  0.27256566114E+03  0.00000000000E+00 0.  1.
         -1    1    6    6    0  502 -0.17454764193E+03 -0.10803247459E+03  0.10540505653E+03  0.23075554340E+03  0.00000000000E+00 0.  1.
<mgrwt>
<rscale>  0 0.14596995E+04</rscale>
<asrwt>0</asrwt>
<pdfrwt beam="1">  1        2 0.13926980E+00 0.14596995E+04</pdfrwt>
<pdfrwt beam="2">  1       -2 0.90528070E-01 0.14596995E+04</pdfrwt>
<totfact> 0.29392707E+01</totfact>
</mgrwt>
</event>
<event>
12    1  0.4820219E-008  0.1642424E+04  0.7818608E-02  0.8794901E-01
          2   -1    0    0  501    0  0.00000000000E+00  0.00000000000E+00  0.14663074041E+04  0.14663074041E+04  0.00000000000E+00 0.  1.
         -2   -1    0    0    0  501 -0.00000000000E+00 -0.00000000000E+00 -0.45992336021E+03  0.45992336021E+03  0.00000000000E+00 0. -1.
         23    2    1    2    0    0  0.34701511335E+03 -0.38278704897E+03  0.64281080084E+02  0.52863381469E+03  0.91521795356E+02 0.  0.
        254    2    1    2    0    0 -0.34701511335E+03  0.38278704897E+03  0.94210296380E+03  0.13975969496E+04  0.89374147573E+03 0.  0.
         23    2    4    4    0    0  0.26849325594E+03  0.10100961767E+03  0.10862321828E+03  0.32002744021E+03  0.91252329265E+02 0.  0.
         23    2    4    4    0    0 -0.61550836929E+03  0.28177743130E+03  0.83347974553E+03  0.10775695094E+04  0.90655876508E+02 0.  0.
         11    1    3    3    0    0  0.27266883853E+03 -0.31752067071E+03  0.16717220258E+02  0.41886410360E+03  0.00000000000E+00 0. -1.
        -11    1    3    3    0    0  0.74346274823E+02 -0.65266378258E+02  0.47563859826E+02  0.10976971109E+03  0.00000000000E+00 0.  1.
          2    1    5    5  502    0  0.44839157373E+02 -0.49239386918E+01  0.46691805825E+02  0.64922414753E+02  0.00000000000E+00 0. -1.
          3    1    6    6  503    0 -0.48286885988E+02  0.40684538665E+02  0.48936509192E+02  0.79885148662E+02  0.00000000000E+00 0. -1.
         -2    1    5    5    0  502  0.22365409856E+03  0.10593355636E+03  0.61931412451E+02  0.25510502546E+03  0.00000000000E+00 0.  1.
         -3    1    6    6    0  503 -0.56722148330E+03  0.24109289264E+03  0.78454323633E+03  0.99768436075E+03  0.00000000000E+00 0.  1.
<mgrwt>
<rscale>  0 0.16424239E+04</rscale>
<asrwt>0</asrwt>
<pdfrwt beam="1">  1        2 0.22558575E+00 0.16424239E+04</pdfrwt>
<pdfrwt beam="2">  1       -2 0.70757441E-01 0.16424239E+04</pdfrwt>
<totfact> 0.23017421E+01</totfact>
</mgrwt>
</event>
<event>
12    1  0.4820219E-008  0.3184738E+04  0.7818608E-02  0.8192860E-01
          2   -1    0    0  501    0  0.00000000000E+00  0.00000000000E+00  0.36026088528E+04  0.36026088528E+04  0.00000000000E+00 0.  1.
         -2   -1    0    0    0  501 -0.00000000000E+00 -0.00000000000E+00 -0.70383406688E+03  0.70383406688E+03  0.00000000000E+00 0. -1.
         23    2    1    2    0    0 -0.10744519332E+03  0.76899167636E+03 -0.34138129107E+03  0.85318190657E+03  0.92116838457E+02 0.  0.
        254    2    1    2    0    0  0.10744519332E+03 -0.76899167636E+03  0.32401560769E+04  0.34532610131E+04  0.90747316958E+03 0.  0.
         23    2    4    4    0    0  0.25510455414E+02 -0.73384170191E+03  0.32425006315E+04  0.33258297661E+04  0.90326413094E+02 0.  0.
         23    2    4    4    0    0  0.81934737902E+02 -0.35149974454E+02 -0.23445545679E+01  0.12743124697E+03  0.91018700211E+02 0.  0.
         11    1    3    3    0    0 -0.84953068102E+02  0.73943966197E+03 -0.31869585910E+03  0.80966356475E+03  0.00000000000E+00 0. -1.
        -11    1    3    3    0    0 -0.22492125215E+02  0.29552014390E+02 -0.22685431969E+02  0.43518341820E+02  0.00000000000E+00 0.  1.
          2    1    5    5  502    0 -0.13395865131E+02 -0.24733454220E+02  0.17090138500E+03  0.17320068231E+03  0.00000000000E+00 0. -1.
          4    1    6    6  503    0 -0.10945735188E+02 -0.86825688028E+01  0.23603262015E+02  0.27428271866E+02  0.00000000000E+00 0. -1.
         -2    1    5    5    0  502  0.38906320545E+02 -0.70910824769E+03  0.30715992465E+04  0.31526290838E+04  0.00000000000E+00 0.  1.
         -4    1    6    6    0  503  0.92880473090E+02 -0.26467405651E+02 -0.25947816583E+02  0.10000297510E+03  0.00000000000E+00 0.  1.
<mgrwt>
<rscale>  0 0.31847379E+04</rscale>
<asrwt>0</asrwt>
<pdfrwt beam="1">  1        2 0.55424750E+00 0.31847379E+04</pdfrwt>
<pdfrwt beam="2">  1       -2 0.10828217E+00 0.31847379E+04</pdfrwt>
<totfact> 0.39504899E-01</totfact>
</mgrwt>
</event>
<event>
12    1  0.4820219E-008  0.1704816E+04  0.7818608E-02  0.8758623E-01
          2   -1    0    0  501    0  0.00000000000E+00  0.00000000000E+00  0.95786341845E+03  0.95786341845E+03  0.00000000000E+00 0. -1.
         -2   -1    0    0    0  501 -0.00000000000E+00 -0.00000000000E+00 -0.75856232001E+03  0.75856232001E+03  0.00000000000E+00 0.  1.
         23    2    1    2    0    0  0.37306657520E+01  0.59095157911E+03  0.25306769203E+03  0.64907521481E+03  0.89541560308E+02 0.  0.
        254    2    1    2    0    0 -0.37306657520E+01 -0.59095157911E+03 -0.53766593588E+02  0.10673505236E+04  0.88719141510E+03 0.  0.
         23    2    4    4    0    0 -0.10742326485E+03 -0.78878480269E+03  0.55067023475E+02  0.80294228585E+03  0.89234043618E+02 0.  0.
         23    2    4    4    0    0  0.10369259910E+03  0.19783322359E+03 -0.10883361706E+03  0.26440823779E+03  0.90425773698E+02 0.  0.
         11    1    3    3    0    0  0.28797614017E+02  0.36053872023E+03  0.11613589607E+03  0.37987500275E+03  0.00000000000E+00 0. -1.
        -11    1    3    3    0    0 -0.25066948265E+02  0.23041285887E+03  0.13693179596E+03  0.26920021206E+03  0.00000000000E+00 0.  1.
          2    1    5    5  502    0 -0.10885200564E+03 -0.47706288261E+03  0.32602055720E+02  0.49040865320E+03  0.00000000000E+00 0. -1.
          2    1    6    6  503    0  0.51169066062E+02  0.16955446983E+03 -0.58990584308E+02  0.18667319196E+03  0.00000000000E+00 0.  1.
         -2    1    5    5    0  502  0.14287407949E+01 -0.31172192008E+03  0.22464967755E+02  0.31253363265E+03  0.00000000000E+00 0.  1.
         -2    1    6    6    0  503  0.52523533034E+02  0.28278753760E+02 -0.49843032755E+02  0.77735045834E+02  0.00000000000E+00 0. -1.
<mgrwt>
<rscale>  0 0.17048156E+04</rscale>
<asrwt>0</asrwt>
<pdfrwt beam="1">  1        2 0.14736360E+00 0.17048156E+04</pdfrwt>
<pdfrwt beam="2">  1       -2 0.11670190E+00 0.17048156E+04</pdfrwt>
<totfact> 0.14516731E+01</totfact>
</mgrwt>
</event>
<event>
12    1  0.4820219E-008  0.2158137E+04  0.7818608E-02  0.8536057E-01
          1   -1    0    0  501    0  0.00000000000E+00  0.00000000000E+00  0.12218796372E+04  0.12218796372E+04  0.00000000000E+00 0. -1.
         -1   -1    0    0    0  501 -0.00000000000E+00 -0.00000000000E+00 -0.95294854025E+03  0.95294854025E+03  0.00000000000E+00 0.  1.
         23    2    1    2    0    0 -0.10536699190E+03  0.52547594317E+03 -0.58590190452E+03  0.79837242636E+03  0.83007949066E+02 0.  0.
        254    2    1    2    0    0  0.10536699190E+03 -0.52547594317E+03  0.85483300146E+03  0.13764557511E+04  0.93630326521E+03 0.  0.
         23    2    4    4    0    0  0.16763358391E+03  0.23657312876E+03  0.18818037998E+03  0.35795256062E+03  0.93007077880E+02 0.  0.
         23    2    4    4    0    0 -0.62266592014E+02 -0.76204907194E+03  0.66665262149E+03  0.10185031905E+04  0.91253025814E+02 0.  0.
         11    1    3    3    0    0 -0.27231581341E+02  0.25794712970E+03 -0.33237979436E+03  0.42160954500E+03  0.00000000000E+00 0.  1.
        -11    1    3    3    0    0 -0.78135410557E+02  0.26752881348E+03 -0.25352211017E+03  0.37676288136E+03  0.00000000000E+00 0. -1.
          2    1    5    5  502    0 -0.10416135909E+02  0.42241298920E+01  0.11294898304E+02  0.15934675658E+02  0.00000000000E+00 0.  1.
          3    1    6    6  503    0  0.67358047676E+01 -0.39322647915E+03  0.37298661257E+03  0.54202532056E+03  0.00000000000E+00 0. -1.
         -2    1    5    5    0  502  0.17804971982E+03  0.23234899887E+03  0.17688548167E+03  0.34201788496E+03  0.00000000000E+00 0. -1.
         -3    1    6    6    0  503 -0.69002396782E+02 -0.36882259279E+03  0.29366600892E+03  0.47647786990E+03  0.00000000000E+00 0.  1.
<mgrwt>
<rscale>  0 0.21581366E+04</rscale>
<asrwt>0</asrwt>
<pdfrwt beam="1">  1        1 0.18798148E+00 0.21581366E+04</pdfrwt>
<pdfrwt beam="2">  1       -1 0.14660747E+00 0.21581366E+04</pdfrwt>
<totfact> 0.34969862E+00</totfact>
</mgrwt>
</event>
<event>
12    1  0.4820219E-008  0.1674651E+04  0.7818608E-02  0.8775955E-01
          2   -1    0    0  501    0  0.00000000000E+00  0.00000000000E+00  0.98071493504E+03  0.98071493504E+03  0.00000000000E+00 0. -1.
         -2   -1    0    0    0  501 -0.00000000000E+00 -0.00000000000E+00 -0.71490090037E+03  0.71490090037E+03  0.00000000000E+00 0.  1.
         23    2    1    2    0    0  0.14702228704E+03  0.55244845288E+03 -0.54715659167E+02  0.58167273526E+03  0.92382474529E+02 0.  0.
        254    2    1    2    0    0 -0.14702228704E+03 -0.55244845288E+03  0.32052969383E+03  0.11139431002E+04  0.90073031467E+03 0.  0.
         23    2    4    4    0    0  0.13365472917E+03 -0.71219304875E+03  0.23647527810E+03  0.76768386531E+03  0.91298601204E+02 0.  0.
         23    2    4    4    0    0 -0.28067701621E+03  0.15974459586E+03  0.84054415728E+02  0.34625923485E+03  0.92370934691E+02 0.  0.
         11    1    3    3    0    0  0.28265207748E+02  0.60425801390E+02 -0.34534727483E+02  0.75118884743E+02  0.00000000000E+00 0. -1.
        -11    1    3    3    0    0  0.11875707929E+03  0.49202265149E+03 -0.20180931685E+02  0.50655385051E+03  0.00000000000E+00 0.  1.
          2    1    5    5  502    0 -0.10340162786E+02 -0.23940186168E+02  0.16768374542E+02  0.31003707278E+02  0.00000000000E+00 0. -1.
          3    1    6    6  503    0 -0.19075878205E+03  0.56795542488E+02  0.55380822082E+02  0.20659545501E+03  0.00000000000E+00 0. -1.
         -2    1    5    5    0  502  0.14399489195E+03 -0.68825286258E+03  0.21970690356E+03  0.73668015803E+03  0.00000000000E+00 0.  1.
         -3    1    6    6    0  503 -0.89918234159E+02  0.10294905338E+03  0.28673593646E+02  0.13966377983E+03  0.00000000000E+00 0.  1.
<mgrwt>
<rscale>  0 0.16746510E+04</rscale>
<asrwt>0</asrwt>
<pdfrwt beam="1">  1        2 0.15087922E+00 0.16746510E+04</pdfrwt>
<pdfrwt beam="2">  1       -2 0.10998475E+00 0.16746510E+04</pdfrwt>
<totfact> 0.16245722E+01</totfact>
</mgrwt>
</event>
<event>
12    1  0.4820219E-008  0.1372953E+04  0.7818608E-02  0.8973633E-01
         -2   -1    0    0    0  501 -0.00000000000E+00  0.00000000000E+00  0.15589508010E+03  0.15589508010E+03  0.00000000000E+00 0.  1.
          2   -1    0    0  501    0  0.00000000000E+00 -0.00000000000E+00 -0.30228655756E+04  0.30228655756E+04  0.00000000000E+00 0. -1.
         23    2    1    2    0    0  0.16606136192E+02  0.45094519555E+02 -0.17139702510E+04  0.17178481182E+04  0.10487543296E+03 0.  0.
        254    2    1    2    0    0 -0.16606136192E+02 -0.45094519555E+02 -0.11530002444E+04  0.14609125374E+04  0.89584965196E+03 0.  0.
         23    2    4    4    0    0 -0.34720990182E+02  0.41600614729E+03 -0.54856048427E+03  0.69546358957E+03  0.92110465011E+02 0.  0.
         23    2    4    4    0    0  0.18114853990E+02 -0.46110066685E+03 -0.60443976017E+03  0.76544894788E+03  0.87308047867E+02 0.  0.
         13    1    3    3    0    0  0.12183192434E+02  0.13498539529E+02 -0.44482165989E+02  0.48055216558E+02  0.00000000000E+00 0.  1.
        -13    1    3    3    0    0  0.44229437579E+01  0.31595980026E+02 -0.16694880850E+04  0.16697929017E+04  0.00000000000E+00 0. -1.
          1    1    6    6  502    0  0.13630572661E+02 -0.33028113510E+03 -0.49285811408E+03  0.59344801064E+03  0.00000000000E+00 0. -1.
          1    1    5    5  503    0 -0.48946266093E+02  0.39809488065E+03 -0.49416306842E+03  0.63645299053E+03  0.00000000000E+00 0. -1.
         -1    1    5    5    0  503  0.14225275911E+02  0.17911266644E+02 -0.54397415847E+02  0.59010599035E+02  0.00000000000E+00 0.  1.
         -1    1    6    6    0  502  0.44842813292E+01 -0.13081953175E+03 -0.11158164609E+03  0.17200093724E+03  0.00000000000E+00 0.  1.
<mgrwt>
<rscale>  0 0.13729528E+04</rscale>
<asrwt>0</asrwt>
<pdfrwt beam="1">  1        2 0.46505626E+00 0.13729528E+04</pdfrwt>
<pdfrwt beam="2">  1       -2 0.23983857E-01 0.13729528E+04</pdfrwt>
<totfact> 0.25660716E+01</totfact>
</mgrwt>
</event>
<event>
12    1  0.4820219E-008  0.1353754E+04  0.7818608E-02  0.8987991E-01
         -1   -1    0    0    0  501 -0.00000000000E+00  0.00000000000E+00  0.21233918021E+03  0.21233918021E+03  0.00000000000E+00 0.  1.
          1   -1    0    0  501    0  0.00000000000E+00 -0.00000000000E+00 -0.21576921569E+04  0.21576921569E+04  0.00000000000E+00 0. -1.
         23    2    1    2    0    0 -0.14207836773E+03  0.26198205809E+03 -0.17114359296E+03  0.35464093275E+03  0.87516857990E+02 0.  0.
        254    2    1    2    0    0  0.14207836773E+03 -0.26198205809E+03 -0.17742093837E+04  0.20153904043E+04  0.90838245433E+03 0.  0.
         23    2    4    4    0    0 -0.17249067811E+03  0.13727146141E+03 -0.12739430325E+04  0.12962498374E+04  0.93468190838E+02 0.  0.
         23    2    4    4    0    0  0.31456904584E+03 -0.39925351951E+03 -0.50026635116E+03  0.71914056692E+03  0.92410364357E+02 0.  0.
         13    1    3    3    0    0 -0.33344660004E+02  0.26051994802E+02 -0.56749116695E+02  0.70788664556E+02  0.00000000000E+00 0. -1.
        -13    1    3    3    0    0 -0.10873370772E+03  0.23593006329E+03 -0.11439447627E+03  0.28385226819E+03  0.00000000000E+00 0.  1.
          2    1    5    5  502    0 -0.30069682435E+02  0.28316941595E+02 -0.50450859507E+03  0.50619656012E+03  0.00000000000E+00 0. -1.
          4    1    6    6  503    0  0.22367061299E+02 -0.61954778000E+02 -0.35559606052E+02  0.74854295340E+02  0.00000000000E+00 0. -1.
         -2    1    5    5    0  502 -0.14242099568E+03  0.10895451982E+03 -0.76943443746E+03  0.79005327728E+03  0.00000000000E+00 0.  1.
         -4    1    6    6    0  503  0.29220198454E+03 -0.33729874151E+03 -0.46470674511E+03  0.64428627158E+03  0.00000000000E+00 0.  1.
<mgrwt>
<rscale>  0 0.13537542E+04</rscale>
<asrwt>0</asrwt>
<pdfrwt beam="1">  1        1 0.33195264E+00 0.13537542E+04</pdfrwt>
<pdfrwt beam="2">  1       -1 0.32667566E-01 0.13537542E+04</pdfrwt>
<totfact> 0.20032587E+01</totfact>
</mgrwt>
</event>
<event>
12    1  0.4820219E-008  0.1694688E+04  0.7818608E-02  0.8764400E-01
          1   -1    0    0  501    0  0.00000000000E+00  0.00000000000E+00  0.13311183867E+04  0.13311183867E+04  0.00000000000E+00 0. -1.
         -1   -1    0    0    0  501 -0.00000000000E+00 -0.00000000000E+00 -0.53938962630E+03  0.53938962630E+03  0.00000000000E+00 0.  1.
         23    2    1    2    0    0  0.58448395254E+03 -0.11460944138E+03  0.22114590123E+03  0.64543295810E+03  0.11367224350E+03 0.  0.
        254    2    1    2    0    0 -0.58448395254E+03  0.11460944138E+03  0.57058285912E+03  0.12250750549E+04  0.90580752705E+03 0.  0.
         23    2    4    4    0    0  0.49300931765E+02 -0.14671708524E+03 -0.14532639457E+03  0.22951592471E+03  0.87185513486E+02 0.  0.
         23    2    4    4    0    0 -0.63378488430E+03  0.26132652661E+03  0.71590925370E+03  0.99555913014E+03  0.92935940330E+02 0.  0.
         13    1    3    3    0    0  0.82371188200E+02 -0.22748301219E+02 -0.81664035138E+01  0.85843974746E+02  0.00000000000E+00 0.  1.
        -13    1    3    3    0    0  0.50211276434E+03 -0.91861140156E+02  0.22931230474E+03  0.55958898335E+03  0.00000000000E+00 0. -1.
          4    1    5    5  502    0  0.32679162688E+02 -0.14349707955E+03 -0.15176264734E+03  0.21140302893E+03  0.00000000000E+00 0. -1.
          3    1    6    6  503    0 -0.56893177604E+03  0.22647454893E+03  0.67484359965E+03  0.91125625984E+03  0.00000000000E+00 0. -1.
         -4    1    5    5    0  502  0.16621769076E+02 -0.32200056833E+01  0.64362527632E+01  0.18112895778E+02  0.00000000000E+00 0.  1.
         -3    1    6    6    0  503 -0.64853108267E+02  0.34851977686E+02  0.41065654041E+02  0.84302870309E+02  0.00000000000E+00 0.  1.
<mgrwt>
<rscale>  0 0.16946875E+04</rscale>
<asrwt>0</asrwt>
<pdfrwt beam="1">  1        1 0.20478744E+00 0.16946875E+04</pdfrwt>
<pdfrwt beam="2">  1       -1 0.82983020E-01 0.16946875E+04</pdfrwt>
<totfact> 0.11800541E+01</totfact>
</mgrwt>
</event>
<event>
12    1  0.4820219E-008  0.1956116E+04  0.7818608E-02  0.8627417E-01
          2   -1    0    0  501    0  0.00000000000E+00  0.00000000000E+00  0.13329735619E+04  0.13329735619E+04  0.00000000000E+00 0. -1.
         -2   -1    0    0    0  501 -0.00000000000E+00 -0.00000000000E+00 -0.71764206808E+03  0.71764206808E+03  0.00000000000E+00 0.  1.
         23    2    1    2    0    0 -0.29327100199E+03 -0.41301703831E+03  0.84863539544E+03  0.99277773796E+03  0.93992808553E+02 0.  0.
        254    2    1    2    0    0  0.29327100199E+03  0.41301703831E+03 -0.23330390164E+03  0.10578378920E+04  0.89888783544E+03 0.  0.
         23    2    4    4    0    0 -0.10077596927E+03 -0.19271056808E+02  0.25586564396E+03  0.28983061553E+03  0.89484011570E+02 0.  0.
         23    2    4    4    0    0  0.39404697126E+03  0.43228809512E+03 -0.48916954560E+03  0.76800727647E+03  0.91664167644E+02 0.  0.
         11    1    3    3    0    0 -0.16983677790E+03 -0.27415697142E+03  0.61349071768E+03  0.69309266103E+03  0.00000000000E+00 0. -1.
        -11    1    3    3    0    0 -0.12343422408E+03 -0.13886006689E+03  0.23514467776E+03  0.29968507693E+03  0.00000000000E+00 0.  1.
          4    1    5    5  502    0 -0.36329162132E+01  0.85905705920E+01 -0.46340519479E+01  0.10414913382E+02  0.00000000000E+00 0. -1.
          1    1    6    6  503    0  0.17460430465E+03  0.19637416456E+03 -0.16133075729E+03  0.30834572959E+03  0.00000000000E+00 0. -1.
         -4    1    5    5    0  502 -0.97143053060E+02 -0.27861627400E+02  0.26049969591E+03  0.27941570215E+03  0.00000000000E+00 0.  1.
         -1    1    6    6    0  503  0.21944266661E+03  0.23591393056E+03 -0.32783878831E+03  0.45966154688E+03  0.00000000000E+00 0.  1.
<mgrwt>
<rscale>  0 0.19561165E+04</rscale>
<asrwt>0</asrwt>
<pdfrwt beam="1">  1        2 0.20507286E+00 0.19561165E+04</pdfrwt>
<pdfrwt beam="2">  1       -2 0.11040647E+00 0.19561165E+04</pdfrwt>
<totfact> 0.96044604E+00</totfact>
</mgrwt>
</event>
<event>
12    1  0.4820219E-008  0.2756575E+04  0.7818608E-02  0.8316878E-01
          2   -1    0    0  501    0  0.00000000000E+00  0.00000000000E+00  0.28776481479E+04  0.28776481479E+04  0.00000000000E+00 0.  1.
         -2   -1    0    0    0  501 -0.00000000000E+00 -0.00000000000E+00 -0.66014878004E+03  0.66014878004E+03  0.00000000000E+00 0. -1.
         23    2    1    2    0    0 -0.70591318432E+03 -0.63096227510E+02 -0.29621556404E+03  0.77360660473E+03  0.91809371988E+02 0.  0.
        254    2    1    2    0    0  0.70591318432E+03  0.63096227510E+02  0.25137149319E+04  0.27641903232E+04  0.90536778512E+03 0.  0.
         23    2    4    4    0    0  0.24683409193E+02 -0.22084530443E+03  0.14705476203E+03  0.28343059974E+03  0.96570609697E+02 0.  0.
         23    2    4    4    0    0  0.68122977513E+03  0.28394153194E+03  0.23666601699E+04  0.24807597235E+04  0.91605926863E+02 0.  0.
         11    1    3    3    0    0 -0.49296977839E+02 -0.15456265004E+02  0.74440455586E-01  0.51663272189E+02  0.00000000000E+00 0.  1.
        -11    1    3    3    0    0 -0.65661620648E+03 -0.47639962506E+02 -0.29629000449E+03  0.72194333254E+03  0.00000000000E+00 0. -1.
          4    1    5    5  502    0  0.27846796086E+02 -0.85331474614E+01  0.25820884066E+02  0.38922701754E+02  0.00000000000E+00 0.  1.
          3    1    6    6  503    0  0.60048277050E+03  0.27183101596E+03  0.20296114385E+04  0.21339621014E+04  0.00000000000E+00 0. -1.
         -4    1    5    5    0  502 -0.31633868930E+01 -0.21231215697E+03  0.12123387796E+03  0.24450789799E+03  0.00000000000E+00 0. -1.
         -3    1    6    6    0  503  0.80747004629E+02  0.12110515977E+02  0.33704873142E+03  0.34679762212E+03  0.00000000000E+00 0.  1.
<mgrwt>
<rscale>  0 0.27565746E+04</rscale>
<asrwt>0</asrwt>
<pdfrwt beam="1">  1        2 0.44271509E+00 0.27565746E+04</pdfrwt>
<pdfrwt beam="2">  1       -2 0.10156135E+00 0.27565746E+04</pdfrwt>
<totfact> 0.14410554E+00</totfact>
</mgrwt>
</event>
<event>
12    1  0.4820219E-008  0.1467464E+04  0.7818608E-02  0.8906382E-01
          2   -1    0    0  501    0  0.00000000000E+00  0.00000000000E+00  0.23570563505E+04  0.23570563505E+04  0.00000000000E+00 0. -1.
         -2   -1    0    0    0  501 -0.00000000000E+00 -0.00000000000E+00 -0.22840451676E+03  0.22840451676E+03  0.00000000000E+00 0.  1.
         23    2    1    2    0    0  0.25196405211E+03  0.37071931873E+03  0.56658451049E+03  0.72833001071E+03  0.92346630354E+02 0.  0.
        254    2    1    2    0    0 -0.25196405211E+03 -0.37071931873E+03  0.15620673233E+04  0.18571308566E+04  0.89886706422E+03 0.  0.
         23    2    4    4    0    0  0.18664572007E+03  0.12778229181E+03  0.82614685465E+03  0.86140894203E+03  0.91333460739E+02 0.  0.
         23    2    4    4    0    0 -0.43860977218E+03 -0.49850161054E+03  0.73592046865E+03  0.99572191455E+03  0.94872582872E+02 0.  0.
         11    1    3    3    0    0 -0.33201155709E+01  0.27450511042E+01  0.25878109327E+02  0.26234233652E+02  0.00000000000E+00 0. -1.
        -11    1    3    3    0    0  0.25528416768E+03  0.36797426762E+03  0.54070640116E+03  0.70209577706E+03  0.00000000000E+00 0.  1.
          3    1    6    6  502    0 -0.19532563326E+02 -0.72601709800E+00  0.15524962129E+02  0.24961421835E+02  0.00000000000E+00 0. -1.
          3    1    5    5  503    0  0.86652797153E+02  0.86417619669E+02  0.29546142931E+03  0.31980332777E+03  0.00000000000E+00 0. -1.
         -3    1    5    5    0  503  0.99992922919E+02  0.41364672139E+02  0.53068542533E+03  0.54160561426E+03  0.00000000000E+00 0.  1.
         -3    1    6    6    0  502 -0.41907720886E+03 -0.49777559344E+03  0.72039550652E+03  0.97076049272E+03  0.00000000000E+00 0.  1.
<mgrwt>
<rscale>  0 0.14674635E+04</rscale>
<asrwt>0</asrwt>
<pdfrwt beam="1">  1        2 0.36262404E+00 0.14674635E+04</pdfrwt>
<pdfrwt beam="2">  1       -2 0.35139158E-01 0.14674635E+04</pdfrwt>
<totfact> 0.31042374E+01</totfact>
</mgrwt>
</event>
<event>
12    1  0.4820219E-008  0.2168978E+04  0.7818608E-02  0.8531452E-01
          2   -1    0    0  501    0  0.00000000000E+00  0.00000000000E+00  0.39746823206E+04  0.39746823206E+04  0.00000000000E+00 0. -1.
         -2   -1    0    0    0  501 -0.00000000000E+00 -0.00000000000E+00 -0.29590200816E+03  0.29590200816E+03  0.00000000000E+00 0.  1.
         23    2    1    2    0    0 -0.43894557793E+03  0.78577261276E+03  0.13512094164E+04  0.16260860255E+04  0.90978327818E+02 0.  0.
        254    2    1    2    0    0  0.43894557793E+03 -0.78577261276E+03  0.23275708961E+04  0.26444983033E+04  0.87502753115E+03 0.  0.
         23    2    4    4    0    0  0.85068920736E+02  0.13085285869E+03  0.84078785968E+03  0.86002184027E+03  0.91401033137E+02 0.  0.
         23    2    4    4    0    0  0.35387665720E+03 -0.91662547144E+03  0.14867830364E+04  0.17844764630E+04  0.91659730486E+02 0.  0.
         11    1    3    3    0    0 -0.24491655937E+02  0.13486430835E+02  0.48298378263E+02  0.55807332583E+02  0.00000000000E+00 0. -1.
        -11    1    3    3    0    0 -0.41445392200E+03  0.77228618192E+03  0.13029110381E+04  0.15702786929E+04  0.00000000000E+00 0.  1.
          1    1    5    5  502    0  0.78996133398E+02  0.64562306993E+02  0.34450183161E+03  0.35929123641E+03  0.00000000000E+00 0. -1.
          3    1    6    6  503    0  0.15285618807E+03 -0.52244361150E+03  0.82255235527E+03  0.98635932529E+03  0.00000000000E+00 0. -1.
         -1    1    5    5    0  502  0.60727873379E+01  0.66290551692E+02  0.49628602807E+03  0.50073060387E+03  0.00000000000E+00 0.  1.
         -3    1    6    6    0  503  0.20102046913E+03 -0.39418185994E+03  0.66423068117E+03  0.79811713772E+03  0.00000000000E+00 0.  1.
<mgrwt>
<rscale>  0 0.21689781E+04</rscale>
<asrwt>0</asrwt>
<pdfrwt beam="1">  1        2 0.61148955E+00 0.21689781E+04</pdfrwt>
<pdfrwt beam="2">  1       -2 0.45523389E-01 0.21689781E+04</pdfrwt>
<totfact> 0.15149061E+00</totfact>
</mgrwt>
</event>
<event>
12    1  0.4820219E-008  0.1536273E+04  0.7818608E-02  0.8860684E-01
          1   -1    0    0  501    0  0.00000000000E+00  0.00000000000E+00  0.16111543174E+04  0.16111543174E+04  0.00000000000E+00 0. -1.
         -1   -1    0    0    0  501 -0.00000000000E+00 -0.00000000000E+00 -0.36621776413E+03  0.36621776413E+03  0.00000000000E+00 0.  1.
         23    2    1    2    0    0 -0.29014250455E+03  0.95060951890E+02 -0.93286714343E+02  0.33188348698E+03  0.90691677316E+02 0.  0.
        254    2    1    2    0    0  0.29014250455E+03 -0.95060951890E+02  0.13382232676E+04  0.16454885946E+04  0.90750864642E+03 0.  0.
         23    2    4    4    0    0  0.42582852082E+03 -0.50537064580E+02  0.17506034026E+03  0.47004195696E+03  0.80058694299E+02 0.  0.
         23    2    4    4    0    0 -0.13568601627E+03 -0.44523887310E+02  0.11631629274E+04  0.11754466376E+04  0.91289269379E+02 0.  0.
         13    1    3    3    0    0 -0.13847244573E+02 -0.84335868817E+01  0.10272941333E+02  0.19193876461E+02  0.00000000000E+00 0. -1.
        -13    1    3    3    0    0 -0.27629525998E+03  0.10349453877E+03 -0.10355965568E+03  0.31268961052E+03  0.00000000000E+00 0.  1.
          2    1    5    5  502    0  0.29099890658E+03 -0.48234967271E+02  0.15651920726E+03  0.33392400025E+03  0.00000000000E+00 0. -1.
          1    1    6    6  503    0 -0.13645290672E+03 -0.49555614135E+02  0.85467105347E+03  0.86691277778E+03  0.00000000000E+00 0. -1.
         -2    1    5    5    0  502  0.13482961424E+03 -0.23020973088E+01  0.18541133002E+02  0.13611795672E+03  0.00000000000E+00 0.  1.
         -1    1    6    6    0  503  0.76689045105E+00  0.50317268249E+01  0.30849187392E+03  0.30853385984E+03  0.00000000000E+00 0.  1.
<mgrwt>
<rscale>  0 0.15362725E+04</rscale>
<asrwt>0</asrwt>
<pdfrwt beam="1">  1        1 0.24786989E+00 0.15362725E+04</pdfrwt>
<pdfrwt beam="2">  1       -1 0.56341195E-01 0.15362725E+04</pdfrwt>
<totfact> 0.16856929E+01</totfact>
</mgrwt>
</event>
<event>
12    1  0.4820219E-008  0.1840414E+04  0.7818608E-02  0.8685098E-01
         -2   -1    0    0    0  501 -0.00000000000E+00  0.00000000000E+00  0.10245897838E+04  0.10245897838E+04  0.00000000000E+00 0. -1.
          2   -1    0    0  501    0  0.00000000000E+00 -0.00000000000E+00 -0.82645825574E+03  0.82645825574E+03  0.00000000000E+00 0.  1.
         23    2    1    2    0    0  0.29514301153E+03 -0.56835546508E+03 -0.20297151036E+03  0.67757138520E+03  0.88137483977E+02 0.  0.
        254    2    1    2    0    0 -0.29514301153E+03  0.56835546508E+03  0.40110303840E+03  0.11734766543E+04  0.89778977432E+03 0.  0.
         23    2    4    4    0    0  0.11344457833E+03  0.35126444849E+03 -0.18315126765E+03  0.42213241097E+03  0.91624234929E+02 0.  0.
         23    2    4    4    0    0 -0.40858758985E+03  0.21709101660E+03  0.58425430605E+03  0.75134424335E+03  0.95355911220E+02 0.  0.
         13    1    3    3    0    0  0.40032301307E+02 -0.11663848088E+03 -0.87420515289E+01  0.12362663076E+03  0.00000000000E+00 0. -1.
        -13    1    3    3    0    0  0.25511071022E+03 -0.45171698421E+03 -0.19422945884E+03  0.55394475444E+03  0.00000000000E+00 0.  1.
          2    1    5    5  502    0  0.64367693266E+02  0.12528278388E+03 -0.11270088321E+03  0.18038975843E+03  0.00000000000E+00 0. -1.
          1    1    6    6  503    0 -0.39554119565E+03  0.22099085027E+03  0.58195063830E+03  0.73753395771E+03  0.00000000000E+00 0. -1.
         -2    1    5    5    0  502  0.49076885060E+02  0.22598166461E+03 -0.70450384449E+02  0.24174265254E+03  0.00000000000E+00 0.  1.
         -1    1    6    6    0  503 -0.13046394198E+02 -0.38998336763E+01  0.23036677570E+01  0.13810285638E+02  0.00000000000E+00 0.  1.
<mgrwt>
<rscale>  0 0.18404137E+04</rscale>
<asrwt>0</asrwt>
<pdfrwt beam="1">  1        2 0.12714742E+00 0.18404137E+04</pdfrwt>
<pdfrwt beam="2">  1       -2 0.15762920E+00 0.18404137E+04</pdfrwt>
<totfact> 0.81365911E+00</totfact>
</mgrwt>
</event>
<event>
12    1  0.4820219E-008  0.1742456E+04  0.7818608E-02  0.8737514E-01
         -2   -1    0    0    0  501 -0.00000000000E+00  0.00000000000E+00  0.62733851723E+03  0.62733851723E+03  0.00000000000E+00 0.  1.
          2   -1    0    0  501    0  0.00000000000E+00 -0.00000000000E+00 -0.12099339416E+04  0.12099339416E+04  0.00000000000E+00 0. -1.
         23    2    1    2    0    0  0.89824231642E+02 -0.21159429117E+03  0.40858514458E+03  0.47766067706E+03  0.91527948711E+02 0.  0.
        254    2    1    2    0    0 -0.89824231642E+02  0.21159429117E+03 -0.99118056890E+03  0.13596117817E+04  0.90181192062E+03 0.  0.
         23    2    4    4    0    0 -0.32403083212E+03  0.86021173824E+02 -0.10190954344E+04  0.10767704637E+04  0.92105941973E+02 0.  0.
         23    2    4    4    0    0  0.23420660048E+03  0.12557311735E+03  0.27914865501E+02  0.28284131803E+03  0.92728808672E+02 0.  0.
         11    1    3    3    0    0  0.50692810295E+01 -0.26496266743E+01  0.73817372600E+02  0.74038656317E+02  0.00000000000E+00 0. -1.
        -11    1    3    3    0    0  0.84754950612E+02 -0.20894466450E+03  0.33476777198E+03  0.40362202075E+03  0.00000000000E+00 0.  1.
          3    1    6    6  502    0  0.23081656366E+03  0.10050348845E+03  0.39827005982E+02  0.25487924132E+03  0.00000000000E+00 0. -1.
          3    1    5    5  503    0 -0.32993851161E+03  0.85267413972E+02 -0.10096001398E+04  0.10655620093E+04  0.00000000000E+00 0. -1.
         -3    1    5    5    0  503  0.59076794867E+01  0.75375985214E+00 -0.94952946176E+01  0.11208454430E+02  0.00000000000E+00 0.  1.
         -3    1    6    6    0  502  0.33900368214E+01  0.25069628904E+02 -0.11912140481E+02  0.27962076709E+02  0.00000000000E+00 0.  1.
<mgrwt>
<rscale>  0 0.17424559E+04</rscale>
<asrwt>0</asrwt>
<pdfrwt beam="1">  1        2 0.18614368E+00 0.17424559E+04</pdfrwt>
<pdfrwt beam="2">  1       -2 0.96513619E-01 0.17424559E+04</pdfrwt>
<totfact> 0.15916568E+01</totfact>
</mgrwt>
</event>
<event>
12    1  0.4820219E-008  0.2062760E+04  0.7818608E-02  0.8577828E-01
         -2   -1    0    0    0  501 -0.00000000000E+00  0.00000000000E+00  0.31860856421E+03  0.31860856421E+03  0.00000000000E+00 0.  1.
          2   -1    0    0  501    0  0.00000000000E+00 -0.00000000000E+00 -0.33387195042E+04  0.33387195042E+04  0.00000000000E+00 0. -1.
         23    2    1    2    0    0 -0.72424913838E+03 -0.23852034359E+02 -0.19405850254E+04  0.20733178576E+04  0.87584038508E+02 0.  0.
        254    2    1    2    0    0  0.72424913838E+03  0.23852034359E+02 -0.10795259146E+04  0.15840102108E+04  0.90476870732E+03 0.  0.
         23    2    4    4    0    0  0.72670384570E+03  0.25486939319E+02 -0.28849754577E+03  0.78766098450E+03  0.91820091219E+02 0.  0.
         23    2    4    4    0    0 -0.24547073175E+01 -0.16349049601E+01 -0.79102836885E+03  0.79634922635E+03  0.91855927864E+02 0.  0.
         13    1    3    3    0    0 -0.69390816310E+03 -0.32725974930E+02 -0.18042122935E+04  0.19333291308E+04  0.00000000000E+00 0. -1.
        -13    1    3    3    0    0 -0.30340975282E+02  0.88739405708E+01 -0.13637273194E+03  0.13998872676E+03  0.00000000000E+00 0.  1.
          1    1    5    5  502    0  0.31823321765E+03  0.34307739912E+02 -0.16913265602E+03  0.36201554823E+03  0.00000000000E+00 0. -1.
          3    1    6    6  503    0 -0.40189801702E+02  0.22012386111E+02 -0.32821668508E+03  0.33139999648E+03  0.00000000000E+00 0. -1.
         -1    1    5    5    0  502  0.40847062806E+03 -0.88208005930E+01 -0.11936488976E+03  0.42564543626E+03  0.00000000000E+00 0.  1.
         -3    1    6    6    0  503  0.37735094384E+02 -0.23647291071E+02 -0.46281168377E+03  0.46494922987E+03  0.00000000000E+00 0.  1.
<mgrwt>
<rscale>  0 0.20627599E+04</rscale>
<asrwt>0</asrwt>
<pdfrwt beam="1">  1        2 0.51364919E+00 0.20627599E+04</pdfrwt>
<pdfrwt beam="2">  1       -2 0.49016698E-01 0.20627599E+04</pdfrwt>
<totfact> 0.38364627E+00</totfact>
</mgrwt>
</event>
<event>
12    1  0.4820219E-008  0.1142765E+04  0.7818608E-02  0.9164484E-01
          2   -1    0    0  501    0  0.00000000000E+00  0.00000000000E+00  0.86954623731E+03  0.86954623731E+03  0.00000000000E+00 0. -1.
         -2   -1    0    0    0  501 -0.00000000000E+00 -0.00000000000E+00 -0.37545817221E+03  0.37545817221E+03  0.00000000000E+00 0.  1.
         23    2    1    2    0    0  0.16146445555E+03  0.58059967987E+02  0.21459974654E+03  0.28865571899E+03  0.88472270243E+02 0.  0.
        254    2    1    2    0    0 -0.16146445555E+03 -0.58059967987E+02  0.27948831856E+03  0.95634869052E+03  0.89835815094E+03 0.  0.
         23    2    4    4    0    0  0.31128647027E+02 -0.51517436291E+02 -0.31087143081E+03  0.32816162153E+03  0.86174035754E+02 0.  0.
         23    2    4    4    0    0 -0.19259310258E+03 -0.65425316964E+01  0.59035974937E+03  0.62818706900E+03  0.94654382320E+02 0.  0.
         13    1    3    3    0    0  0.39863936323E+02  0.19795957726E+02  0.70220746776E+01  0.45059104454E+02  0.00000000000E+00 0.  1.
        -13    1    3    3    0    0  0.12160051923E+03  0.38264010262E+02  0.20757767186E+03  0.24359661454E+03  0.00000000000E+00 0. -1.
          2    1    5    5  502    0  0.28930443563E+02 -0.42929629408E+02 -0.69671552668E+02  0.86798899170E+02  0.00000000000E+00 0. -1.
          4    1    6    6  503    0 -0.33611657971E+01 -0.19973219612E+02  0.10761688016E+03  0.10950625477E+03  0.00000000000E+00 0. -1.
         -2    1    5    5    0  502  0.21982034639E+01 -0.85878068831E+01 -0.24119987815E+03  0.24136272236E+03  0.00000000000E+00 0.  1.
         -4    1    6    6    0  503 -0.18923193678E+03  0.13430687916E+02  0.48274286921E+03  0.51868081423E+03  0.00000000000E+00 0.  1.
<mgrwt>
<rscale>  0 0.11427655E+04</rscale>
<asrwt>0</asrwt>
<pdfrwt beam="1">  1        2 0.13377634E+00 0.11427655E+04</pdfrwt>
<pdfrwt beam="2">  1       -2 0.57762796E-01 0.11427655E+04</pdfrwt>
<totfact> 0.85500403E+01</totfact>
</mgrwt>
</event>
<event>
12    1  0.4820219E-008  0.1790263E+04  0.7818608E-02  0.8711494E-01
         -2   -1    0    0    0  501 -0.00000000000E+00  0.00000000000E+00  0.28771337633E+03  0.28771337633E+03  0.00000000000E+00 0.  1.
          2   -1    0    0  501    0  0.00000000000E+00 -0.00000000000E+00 -0.27849269683E+04  0.27849269683E+04  0.00000000000E+00 0. -1.
         23    2    1    2    0    0 -0.25188893655E+03 -0.16109420862E+03 -0.19949868737E+04  0.20193320924E+04  0.91269341361E+02 0.  0.
        254    2    1    2    0    0  0.25188893655E+03  0.16109420862E+03 -0.50222671831E+03  0.10533082523E+04  0.87625750631E+03 0.  0.
         23    2    4    4    0    0  0.38275721631E+03  0.39453807936E+03 -0.52876436404E+03  0.76791644238E+03  0.89109635298E+02 0.  0.
         23    2    4    4    0    0 -0.13086827975E+03 -0.23344387074E+03  0.26537645725E+02  0.28539180992E+03  0.95507544721E+02 0.  0.
         13    1    3    3    0    0 -0.10546427905E+03 -0.72354646045E+02 -0.57454009022E+03  0.58860362234E+03  0.00000000000E+00 0. -1.
        -13    1    3    3    0    0 -0.14642465751E+03 -0.88739562575E+02 -0.14204467835E+04  0.14307284700E+04  0.00000000000E+00 0.  1.
          2    1    5    5  502    0  0.15387982978E+02 -0.27776953318E+01 -0.17407179018E+02  0.23399048973E+02  0.00000000000E+00 0. -1.
          3    1    6    6  503    0 -0.36209764664E+01 -0.87050751967E+02  0.27696481615E+02  0.91422316654E+02  0.00000000000E+00 0. -1.
         -2    1    5    5    0  502  0.36736923333E+03  0.39731577469E+03 -0.51135718502E+03  0.74451739341E+03  0.00000000000E+00 0.  1.
         -3    1    6    6    0  503 -0.12724730329E+03 -0.14639311877E+03 -0.11588358906E+01  0.19396949327E+03  0.00000000000E+00 0.  1.
<mgrwt>
<rscale>  0 0.17902634E+04</rscale>
<asrwt>0</asrwt>
<pdfrwt beam="1">  1        2 0.42845029E+00 0.17902634E+04</pdfrwt>
<pdfrwt beam="2">  1       -2 0.44263597E-01 0.17902634E+04</pdfrwt>
<totfact> 0.10827204E+01</totfact>
</mgrwt>
</event>
<event>
12    1  0.4820219E-008  0.3533265E+04  0.7818608E-02  0.8105952E-01
          2   -1    0    0  501    0  0.00000000000E+00  0.00000000000E+00  0.13987246515E+04  0.13987246515E+04  0.00000000000E+00 0. -1.
         -2   -1    0    0    0  501 -0.00000000000E+00 -0.00000000000E+00 -0.22313110330E+04  0.22313110330E+04  0.00000000000E+00 0.  1.
         23    2    1    2    0    0 -0.97609390578E+03  0.23663704152E+03 -0.17272965025E+04  0.20001722644E+04  0.91539486119E+02 0.  0.
        254    2    1    2    0    0  0.97609390578E+03 -0.23663704152E+03  0.89471012096E+03  0.16298634201E+04  0.92043042400E+03 0.  0.
         23    2    4    4    0    0  0.76658151157E+03 -0.19242895360E+03  0.10016262101E+03  0.80184932945E+03  0.90849768460E+02 0.  0.
         23    2    4    4    0    0  0.20951239421E+03 -0.44208087911E+02  0.79454749995E+03  0.82801409068E+03  0.91933706159E+02 0.  0.
         11    1    3    3    0    0 -0.79374958312E+03  0.20252839101E+03 -0.13363531923E+04  0.15674488842E+04  0.00000000000E+00 0.  1.
        -11    1    3    3    0    0 -0.18234432266E+03  0.34108650503E+02 -0.39094331017E+03  0.43272338025E+03  0.00000000000E+00 0. -1.
          2    1    5    5  502    0  0.29083472908E+03 -0.84643647639E+02  0.81563663159E+02  0.31369095918E+03  0.00000000000E+00 0. -1.
          1    1    6    6  503    0  0.64239933466E+01  0.91932675214E+01  0.76420612889E+01  0.13571475932E+02  0.00000000000E+00 0. -1.
         -2    1    5    5    0  502  0.47574678249E+03 -0.10778530597E+03  0.18598957852E+02  0.48815837027E+03  0.00000000000E+00 0.  1.
         -1    1    6    6    0  503  0.20308840087E+03 -0.53401355432E+02  0.78690543866E+03  0.81444261475E+03  0.00000000000E+00 0.  1.
<mgrwt>
<rscale>  0 0.35332646E+04</rscale>
<asrwt>0</asrwt>
<pdfrwt beam="1">  1        2 0.21518841E+00 0.35332646E+04</pdfrwt>
<pdfrwt beam="2">  1       -2 0.34327862E+00 0.35332646E+04</pdfrwt>
<totfact> 0.20363454E-01</totfact>
</mgrwt>
</event>
<event>
12    1  0.4820219E-008  0.1526200E+04  0.7818608E-02  0.8867215E-01
          2   -1    0    0  501    0  0.00000000000E+00  0.00000000000E+00  0.14061976984E+04  0.14061976984E+04  0.00000000000E+00 0. -1.
         -2   -1    0    0    0  501 -0.00000000000E+00 -0.00000000000E+00 -0.41411066540E+03  0.41411066540E+03  0.00000000000E+00 0.  1.
         23    2    1    2    0    0 -0.48337538959E+03  0.70664623722E+02  0.26185685387E+03  0.56179549989E+03  0.91651052747E+02 0.  0.
        254    2    1    2    0    0  0.48337538959E+03 -0.70664623722E+02  0.73023017909E+03  0.12585128639E+04  0.90109558747E+03 0.  0.
         23    2    4    4    0    0  0.39297938786E+03  0.17926888672E+03 -0.35869730719E+02  0.44262607514E+03  0.89783471644E+02 0.  0.
         23    2    4    4    0    0  0.90396001730E+02 -0.24993351044E+03  0.76609990981E+03  0.81588678873E+03  0.90133142902E+02 0.  0.
         13    1    3    3    0    0 -0.26200252711E+03  0.56155243859E+02  0.95347013184E+02  0.28441130172E+03  0.00000000000E+00 0.  1.
        -13    1    3    3    0    0 -0.22137286248E+03  0.14509379863E+02  0.16650984069E+03  0.27738419816E+03  0.00000000000E+00 0. -1.
          4    1    5    5  502    0  0.32885535484E+03  0.11312775206E+03 -0.42017545319E+02  0.35029873938E+03  0.00000000000E+00 0. -1.
          3    1    6    6  503    0  0.80069119488E+02 -0.12316148889E+03  0.49674866496E+03  0.51801452912E+03  0.00000000000E+00 0. -1.
         -4    1    5    5    0  502  0.64124033017E+02  0.66141134652E+02  0.61478145996E+01  0.92327335756E+02  0.00000000000E+00 0.  1.
         -3    1    6    6    0  503  0.10326882242E+02 -0.12677202154E+03  0.26935124484E+03  0.29787225961E+03  0.00000000000E+00 0.  1.
<mgrwt>
<rscale>  0 0.15261998E+04</rscale>
<asrwt>0</asrwt>
<pdfrwt beam="1">  1        2 0.21633810E+00 0.15261998E+04</pdfrwt>
<pdfrwt beam="2">  1       -2 0.63709334E-01 0.15261998E+04</pdfrwt>
<totfact> 0.31543252E+01</totfact>
</mgrwt>
</event>
<event>
12    1  0.4820219E-008  0.1720043E+04  0.7818608E-02  0.8750015E-01
         -2   -1    0    0    0  501 -0.00000000000E+00  0.00000000000E+00  0.29737320563E+03  0.29737320563E+03  0.00000000000E+00 0. -1.
          2   -1    0    0  501    0  0.00000000000E+00 -0.00000000000E+00 -0.24872344622E+04  0.24872344622E+04  0.00000000000E+00 0.  1.
         23    2    1    2    0    0  0.18276013712E+03 -0.10990112156E+03  0.14548329787E+03  0.27442528678E+03  0.93082349681E+02 0.  0.
        254    2    1    2    0    0 -0.18276013712E+03  0.10990112156E+03 -0.23353445544E+04  0.25101823810E+04  0.89537806205E+03 0.  0.
         23    2    4    4    0    0  0.10838100950E+03 -0.34359237242E+03 -0.10403088825E+04  0.11046852305E+04  0.91020470436E+02 0.  0.
         23    2    4    4    0    0 -0.29114114662E+03  0.45349349398E+03 -0.12950356720E+04  0.14054971505E+04  0.88799392395E+02 0.  0.
         11    1    3    3    0    0  0.14716244888E+03 -0.12152362208E+03  0.99851217082E+02  0.21539508499E+03  0.00000000000E+00 0. -1.
        -11    1    3    3    0    0  0.35597688241E+02  0.11622500517E+02  0.45632080784E+02  0.59030201787E+02  0.00000000000E+00 0.  1.
          2    1    5    5  502    0  0.18367386257E+02 -0.21743929177E+01 -0.54342488611E+02  0.57403788472E+02  0.00000000000E+00 0. -1.
          4    1    6    6  503    0 -0.97656382732E+02  0.10276938251E+03 -0.26952454026E+03  0.30453537212E+03  0.00000000000E+00 0. -1.
         -2    1    5    5    0  502  0.90013623243E+02 -0.34141797950E+03 -0.98596639384E+03  0.10472814421E+04  0.00000000000E+00 0.  1.
         -4    1    6    6    0  503 -0.19348476389E+03  0.35072411147E+03 -0.10255111317E+04  0.11009617784E+04  0.00000000000E+00 0.  1.
<mgrwt>
<rscale>  0 0.17200429E+04</rscale>
<asrwt>0</asrwt>
<pdfrwt beam="1">  1        2 0.38265146E+00 0.17200429E+04</pdfrwt>
<pdfrwt beam="2">  1       -2 0.45749724E-01 0.17200429E+04</pdfrwt>
<totfact> 0.15263633E+01</totfact>
</mgrwt>
</event>
<event>
12    1  0.4820219E-008  0.1746203E+04  0.7818608E-02  0.8735443E-01
         -2   -1    0    0    0  501 -0.00000000000E+00  0.00000000000E+00  0.10648149045E+04  0.10648149045E+04  0.00000000000E+00 0. -1.
          2   -1    0    0  501    0  0.00000000000E+00 -0.00000000000E+00 -0.71590504889E+03  0.71590504889E+03  0.00000000000E+00 0.  1.
         23    2    1    2    0    0  0.35433008235E+03 -0.25036003069E+03 -0.35681995250E+03  0.56904797168E+03  0.90912943816E+02 0.  0.
        254    2    1    2    0    0 -0.35433008235E+03  0.25036003069E+03  0.70572980815E+03  0.12116719818E+04  0.88423100885E+03 0.  0.
         23    2    4    4    0    0 -0.30585087935E+03 -0.16036499017E+03  0.70255300824E+03  0.78830956447E+03  0.92679822903E+02 0.  0.
         23    2    4    4    0    0 -0.48479202998E+02  0.41072502086E+03  0.31767999147E+01  0.42336241728E+03  0.90445389189E+02 0.  0.
         13    1    3    3    0    0  0.64618981560E+02 -0.79404285351E+01 -0.43951969316E+02  0.78552140581E+02  0.00000000000E+00 0. -1.
        -13    1    3    3    0    0  0.28971110079E+03 -0.24241960216E+03 -0.31286798318E+03  0.49049583110E+03  0.00000000000E+00 0.  1.
          2    1    5    5  502    0 -0.23222483257E+03 -0.15975402764E+03  0.52027816675E+03  0.59172552168E+03  0.00000000000E+00 0. -1.
          4    1    6    6  503    0 -0.27537204430E+02  0.20160099747E+03  0.46629217413E+02  0.20874755981E+03  0.00000000000E+00 0. -1.
         -2    1    5    5    0  502 -0.73626046785E+02 -0.61096253353E+00  0.18227484149E+03  0.19658404279E+03  0.00000000000E+00 0.  1.
         -4    1    6    6    0  503 -0.20941998568E+02  0.20912402338E+03 -0.43452417498E+02  0.21461485747E+03  0.00000000000E+00 0.  1.
<mgrwt>
<rscale>  0 0.17462032E+04</rscale>
<asrwt>0</asrwt>
<pdfrwt beam="1">  1        2 0.11013924E+00 0.17462032E+04</pdfrwt>
<pdfrwt beam="2">  1       -2 0.16381768E+00 0.17462032E+04</pdfrwt>
<totfact> 0.89091048E+00</totfact>
</mgrwt>
</event>
<event>
12    1  0.4820219E-008  0.2420852E+04  0.7818608E-02  0.8431738E-01
          1   -1    0    0  501    0  0.00000000000E+00  0.00000000000E+00  0.16194275854E+04  0.16194275854E+04  0.00000000000E+00 0. -1.
         -1   -1    0    0    0  501 -0.00000000000E+00 -0.00000000000E+00 -0.90472189148E+03  0.90472189148E+03  0.00000000000E+00 0.  1.
         23    2    1    2    0    0 -0.91882043385E+03 -0.37861173227E+03  0.63687750299E+03  0.11850549411E+04  0.10566184818E+03 0.  0.
        254    2    1    2    0    0  0.91882043385E+03  0.37861173227E+03  0.77828190936E+02  0.13390945358E+04  0.89416951132E+03 0.  0.
         23    2    4    4    0    0  0.18818947547E+03 -0.27259891425E+03 -0.50674940831E+02  0.34741761504E+03  0.91682075035E+02 0.  0.
         23    2    4    4    0    0  0.73063095838E+03  0.65121064652E+03  0.12850313177E+03  0.99167692074E+03  0.94937646756E+02 0.  0.
         13    1    3    3    0    0 -0.66827911039E+03 -0.25496966157E+03  0.50840444252E+03  0.87754291911E+03  0.00000000000E+00 0.  1.
        -13    1    3    3    0    0 -0.25054132346E+03 -0.12364207070E+03  0.12847306047E+03  0.30751202200E+03  0.00000000000E+00 0. -1.
          4    1    5    5  502    0  0.18581974716E+03 -0.25605638343E+03 -0.67724736521E+02  0.32354364445E+03  0.00000000000E+00 0.  1.
          3    1    6    6  503    0  0.25680656507E+03  0.18766533311E+03  0.94444233444E+01  0.31820918631E+03  0.00000000000E+00 0. -1.
         -4    1    5    5    0  502  0.23697283009E+01 -0.16542530825E+02  0.17049795690E+02  0.23873970583E+02  0.00000000000E+00 0. -1.
         -3    1    6    6    0  503  0.47382439331E+03  0.46354531340E+03  0.11905870842E+03  0.67346773444E+03  0.00000000000E+00 0.  1.
<mgrwt>
<rscale>  0 0.24208524E+04</rscale>
<asrwt>0</asrwt>
<pdfrwt beam="1">  1        1 0.24914271E+00 0.24208524E+04</pdfrwt>
<pdfrwt beam="2">  1       -1 0.13918798E+00 0.24208524E+04</pdfrwt>
<totfact> 0.20600206E+00</totfact>
</mgrwt>
</event>
<event>
12    1  0.4820219E-008  0.1691072E+04  0.7818608E-02  0.8766473E-01
         -2   -1    0    0    0  501 -0.00000000000E+00  0.00000000000E+00  0.12572089642E+04  0.12572089642E+04  0.00000000000E+00 0.  1.
          2   -1    0    0  501    0  0.00000000000E+00 -0.00000000000E+00 -0.56866502714E+03  0.56866502714E+03  0.00000000000E+00 0. -1.
         23    2    1    2    0    0  0.20388132155E+03  0.36060204601E+03 -0.22050982213E+03  0.47863495825E+03  0.94156320750E+02 0.  0.
        254    2    1    2    0    0 -0.20388132155E+03 -0.36060204601E+03  0.90905375914E+03  0.13472390330E+04  0.90392081860E+03 0.  0.
         23    2    4    4    0    0  0.25143571502E+02 -0.25429781537E+03 -0.11044906018E+03  0.29278858636E+03  0.90700514408E+02 0.  0.
         23    2    4    4    0    0 -0.22902489306E+03 -0.10630423064E+03  0.10195028193E+04  0.10544504467E+04  0.93417101345E+02 0.  0.
         11    1    3    3    0    0  0.53382254512E+02  0.30815457225E+02 -0.22794887855E+02  0.65718067630E+02  0.00000000000E+00 0.  1.
        -11    1    3    3    0    0  0.15049906704E+03  0.32978658878E+03 -0.19771493428E+03  0.41291689062E+03  0.00000000000E+00 0. -1.
          4    1    5    5  502    0 -0.20023948693E+02 -0.38490181819E+02  0.54004225734E+01  0.43722044573E+02  0.00000000000E+00 0. -1.
          3    1    6    6  503    0 -0.13456423549E+01 -0.19214242503E+02  0.32394076437E+02  0.37687850251E+02  0.00000000000E+00 0. -1.
         -4    1    5    5    0  502  0.45167520195E+02 -0.21580763355E+03 -0.11584948276E+03  0.24906654178E+03  0.00000000000E+00 0.  1.
         -3    1    6    6    0  503 -0.22767925070E+03 -0.87089988132E+02  0.98710874289E+03  0.10167625964E+04  0.00000000000E+00 0.  1.
<mgrwt>
<rscale>  0 0.16910716E+04</rscale>
<asrwt>0</asrwt>
<pdfrwt beam="1">  1        2 0.87486928E-01 0.16910716E+04</pdfrwt>
<pdfrwt beam="2">  1       -2 0.19341676E+00 0.16910716E+04</pdfrwt>
<totfact> 0.74008380E+00</totfact>
</mgrwt>
</event>
<event>
12    1  0.4820219E-008  0.2209795E+04  0.7818608E-02  0.8514362E-01
          2   -1    0    0  501    0  0.00000000000E+00  0.00000000000E+00  0.23912803695E+04  0.23912803695E+04  0.00000000000E+00 0. -1.
         -2   -1    0    0    0  501 -0.00000000000E+00 -0.00000000000E+00 -0.51052087676E+03  0.51052087676E+03  0.00000000000E+00 0.  1.
         23    2    1    2    0    0  0.15950578710E+03  0.56617376487E+03  0.17313824361E+04  0.18308992030E+04  0.92260083697E+02 0.  0.
        254    2    1    2    0    0 -0.15950578710E+03 -0.56617376487E+03  0.14937705663E+03  0.10709020433E+04  0.88233942066E+03 0.  0.
         23    2    4    4    0    0  0.14060472021E+03 -0.27150540724E+02 -0.27019575733E+03  0.31896010469E+03  0.90680548633E+02 0.  0.
         23    2    4    4    0    0 -0.30011050730E+03 -0.53902322415E+03  0.41957281396E+03  0.75194193866E+03  0.93610790695E+02 0.  0.
         11    1    3    3    0    0  0.33206170334E+02  0.27060616969E+03  0.85626166556E+03  0.89861804385E+03  0.00000000000E+00 0.  1.
        -11    1    3    3    0    0  0.12629961676E+03  0.29556759518E+03  0.87512077058E+03  0.93228115911E+03  0.00000000000E+00 0. -1.
          4    1    5    5  502    0  0.31024722233E+02  0.61729597806E+01 -0.76878268960E+01  0.32553671136E+02  0.00000000000E+00 0. -1.
          1    1    6    6  503    0 -0.21996656360E+02 -0.93006925427E+01  0.60101359172E+01  0.24626764029E+02  0.00000000000E+00 0. -1.
         -4    1    5    5    0  502  0.10957999798E+03 -0.33323500505E+02 -0.26250793043E+03  0.28640643355E+03  0.00000000000E+00 0.  1.
         -1    1    6    6    0  503 -0.27811385094E+03 -0.52972253161E+03  0.41356267804E+03  0.72731517463E+03  0.00000000000E+00 0.  1.
<mgrwt>
<rscale>  0 0.22097951E+04</rscale>
<asrwt>0</asrwt>
<pdfrwt beam="1">  1        2 0.36788928E+00 0.22097951E+04</pdfrwt>
<pdfrwt beam="2">  1       -2 0.78541675E-01 0.22097951E+04</pdfrwt>
<totfact> 0.52910834E+00</totfact>
</mgrwt>
</event>
<event>
12    1  0.4820219E-008  0.3341709E+04  0.7818608E-02  0.8152363E-01
          1   -1    0    0  501    0  0.00000000000E+00  0.00000000000E+00  0.27282132962E+04  0.27282132962E+04  0.00000000000E+00 0. -1.
         -1   -1    0    0    0  501 -0.00000000000E+00 -0.00000000000E+00 -0.10232904131E+04  0.10232904131E+04  0.00000000000E+00 0.  1.
         23    2    1    2    0    0  0.22183045415E+03  0.62521318039E+03 -0.77833890706E+03  0.10267119071E+04  0.90695174351E+02 0.  0.
        254    2    1    2    0    0 -0.22183045415E+03 -0.62521318039E+03  0.24832617901E+04  0.27247918022E+04  0.90432349061E+03 0.  0.
         23    2    4    4    0    0  0.89646557790E+02 -0.10945110883E+03  0.18053769363E+04  0.18132124891E+04  0.91310448914E+02 0.  0.
         23    2    4    4    0    0 -0.31147701194E+03 -0.51576207157E+03  0.67788485385E+03  0.91157931308E+03  0.91763421480E+02 0.  0.
         13    1    3    3    0    0  0.13957662050E+03  0.48103645772E+03 -0.54311158162E+03  0.73881519796E+03  0.00000000000E+00 0. -1.
        -13    1    3    3    0    0  0.82253833651E+02  0.14417672267E+03 -0.23522732544E+03  0.28789670916E+03  0.00000000000E+00 0.  1.
          2    1    5    5  502    0  0.79022526324E+02 -0.90398856012E+02  0.17430096828E+04  0.17471403113E+04  0.00000000000E+00 0. -1.
          4    1    6    6  503    0 -0.25905060187E+03 -0.47335810938E+03  0.62620160672E+03  0.82662177948E+03  0.00000000000E+00 0. -1.
         -2    1    5    5    0  502  0.10624031466E+02 -0.19052252816E+02  0.62367253466E+02  0.66072177858E+02  0.00000000000E+00 0.  1.
         -4    1    6    6    0  503 -0.52426410071E+02 -0.42403962186E+02  0.51683247125E+02  0.84957533600E+02  0.00000000000E+00 0.  1.
<mgrwt>
<rscale>  0 0.33417089E+04</rscale>
<asrwt>0</asrwt>
<pdfrwt beam="1">  1        1 0.41972512E+00 0.33417089E+04</pdfrwt>
<pdfrwt beam="2">  1       -1 0.15742930E+00 0.33417089E+04</pdfrwt>
<totfact> 0.23678054E-01</totfact>
</mgrwt>
</event>
<event>
12    1  0.4820219E-008  0.2234017E+04  0.7818608E-02  0.8504402E-01
          2   -1    0    0  501    0  0.00000000000E+00  0.00000000000E+00  0.15451407575E+04  0.15451407575E+04  0.00000000000E+00 0. -1.
         -2   -1    0    0    0  501 -0.00000000000E+00 -0.00000000000E+00 -0.80750410103E+03  0.80750410103E+03  0.00000000000E+00 0.  1.
         23    2    1    2    0    0 -0.18060344684E+01  0.92754021818E+03  0.31702320267E+03  0.98450869674E+03  0.91758077730E+02 0.  0.
        254    2    1    2    0    0  0.18060344684E+01 -0.92754021818E+03  0.42061345376E+03  0.13681361618E+04  0.91353530939E+03 0.  0.
         23    2    4    4    0    0  0.18157195754E+03 -0.64622226674E+03  0.66110156541E+03  0.94668475494E+03  0.92656093520E+02 0.  0.
         23    2    4    4    0    0 -0.17976592307E+03 -0.28131795144E+03 -0.24048811164E+03  0.42145140681E+03  0.91275295444E+02 0.  0.
         13    1    3    3    0    0 -0.45296972199E+01  0.88085884500E+03  0.27827592732E+03  0.92378044723E+03  0.00000000000E+00 0.  1.
        -13    1    3    3    0    0  0.27236627516E+01  0.46681373180E+02  0.38747275355E+02  0.60728249507E+02  0.00000000000E+00 0. -1.
          1    1    5    5  502    0  0.93134877776E+02 -0.20425599605E+03  0.25806585507E+03  0.34204181460E+03  0.00000000000E+00 0. -1.
          3    1    6    6  503    0 -0.27860998710E+02 -0.20151589041E+02  0.14108435213E+01  0.34413838343E+02  0.00000000000E+00 0. -1.
         -1    1    5    5    0  502  0.88437079766E+02 -0.44196627069E+03  0.40303571034E+03  0.60464294035E+03  0.00000000000E+00 0.  1.
         -3    1    6    6    0  503 -0.15190492436E+03 -0.26116636240E+03 -0.24189895516E+03  0.38703756847E+03  0.00000000000E+00 0.  1.
<mgrwt>
<rscale>  0 0.22340166E+04</rscale>
<asrwt>0</asrwt>
<pdfrwt beam="1">  1        2 0.23771396E+00 0.22340166E+04</pdfrwt>
<pdfrwt beam="2">  1       -2 0.12423140E+00 0.22340166E+04</pdfrwt>
<totfact> 0.53144868E+00</totfact>
</mgrwt>
</event>
<event>
12    1  0.4820219E-008  0.1460089E+04  0.7818608E-02  0.8911436E-01
          1   -1    0    0  501    0  0.00000000000E+00  0.00000000000E+00  0.70939100316E+03  0.70939100316E+03  0.00000000000E+00 0. -1.
         -1   -1    0    0    0  501 -0.00000000000E+00 -0.00000000000E+00 -0.75129936678E+03  0.75129936678E+03  0.00000000000E+00 0.  1.
         23    2    1    2    0    0  0.48565687984E+02  0.30608153890E+03 -0.33359974498E+03  0.46421766895E+03  0.90358839149E+02 0.  0.
        254    2    1    2    0    0 -0.48565687984E+02 -0.30608153890E+03  0.29169138136E+03  0.99647270099E+03  0.90101578641E+03 0.  0.
         23    2    4    4    0    0 -0.16363897714E+03 -0.41422307852E+03 -0.18139504192E+03  0.48979175640E+03  0.92915713315E+02 0.  0.
         23    2    4    4    0    0  0.11507328916E+03  0.10814153962E+03  0.47308642329E+03  0.50668094460E+03  0.89321672904E+02 0.  0.
         11    1    3    3    0    0  0.74779086813E+02  0.22409626477E+03 -0.25567071539E+03  0.34810711343E+03  0.00000000000E+00 0.  1.
        -11    1    3    3    0    0 -0.26213398829E+02  0.81985274128E+02 -0.77929029588E+02  0.11611055553E+03  0.00000000000E+00 0. -1.
          2    1    5    5  502    0 -0.77462284925E+02 -0.11066401965E+03 -0.24127969279E+02  0.13721913034E+03  0.00000000000E+00 0. -1.
          1    1    6    6  503    0  0.55507392504E+02 -0.23885205951E+01  0.13184115605E+03  0.14306944496E+03  0.00000000000E+00 0. -1.
         -2    1    5    5    0  502 -0.86176692220E+02 -0.30355905887E+03 -0.15726707265E+03  0.35257262605E+03  0.00000000000E+00 0.  1.
         -1    1    6    6    0  503  0.59565896656E+02  0.11053006021E+03  0.34124526724E+03  0.36361149964E+03  0.00000000000E+00 0.  1.
<mgrwt>
<rscale>  0 0.14600891E+04</rscale>
<asrwt>0</asrwt>
<pdfrwt beam="1">  1        1 0.10913708E+00 0.14600891E+04</pdfrwt>
<pdfrwt beam="2">  1       -1 0.11558452E+00 0.14600891E+04</pdfrwt>
<totfact> 0.17573090E+01</totfact>
</mgrwt>
</event>
<event>
12    1  0.4820219E-008  0.4138947E+04  0.7818608E-02  0.7977088E-01
         -2   -1    0    0    0  501 -0.00000000000E+00  0.00000000000E+00  0.15893202052E+04  0.15893202052E+04  0.00000000000E+00 0.  1.
          2   -1    0    0  501    0  0.00000000000E+00 -0.00000000000E+00 -0.26946873522E+04  0.26946873522E+04  0.00000000000E+00 0. -1.
         23    2    1    2    0    0  0.17872297118E+04 -0.45530807239E+03 -0.12415572524E+04  0.22250403579E+04  0.88570310495E+02 0.  0.
        254    2    1    2    0    0 -0.17872297118E+04  0.45530807239E+03  0.13619010544E+03  0.20589671995E+04  0.90515341256E+03 0.  0.
         23    2    4    4    0    0 -0.13566465690E+04  0.56372021968E+03  0.41131344763E+03  0.15281065932E+04  0.87524903097E+02 0.  0.
         23    2    4    4    0    0 -0.43058314279E+03 -0.10841214728E+03 -0.27512334219E+03  0.53086060631E+03  0.94684177050E+02 0.  0.
         11    1    3    3    0    0  0.53150638987E+03 -0.14504220344E+03 -0.41895069685E+03  0.69213869249E+03  0.00000000000E+00 0. -1.
        -11    1    3    3    0    0  0.12557233219E+04 -0.31026586895E+03 -0.82260655558E+03  0.15329016654E+04  0.00000000000E+00 0.  1.
          2    1    5    5  502    0 -0.12442557385E+04  0.53665978883E+03  0.36316112329E+03  0.14028763571E+04  0.00000000000E+00 0. -1.
          3    1    6    6  503    0 -0.33464659150E+03 -0.53810140650E+02 -0.23892082950E+03  0.41468908258E+03  0.00000000000E+00 0. -1.
         -2    1    5    5    0  502 -0.11239083049E+03  0.27060430843E+02  0.48152324338E+02  0.12523023610E+03  0.00000000000E+00 0.  1.
         -3    1    6    6    0  503 -0.95936551284E+02 -0.54602006634E+02 -0.36202512685E+02  0.11617152373E+03  0.00000000000E+00 0.  1.
<mgrwt>
<rscale>  0 0.41389472E+04</rscale>
<asrwt>0</asrwt>
<pdfrwt beam="1">  1        2 0.41456728E+00 0.41389472E+04</pdfrwt>
<pdfrwt beam="2">  1       -2 0.24451080E+00 0.41389472E+04</pdfrwt>
<totfact> 0.14493948E-01</totfact>
</mgrwt>
</event>
<event>
12    1  0.4820219E-008  0.2188305E+04  0.7818608E-02  0.8523312E-01
         -2   -1    0    0    0  501 -0.00000000000E+00  0.00000000000E+00  0.47842249628E+03  0.47842249628E+03  0.00000000000E+00 0.  1.
          2   -1    0    0  501    0  0.00000000000E+00 -0.00000000000E+00 -0.25023275377E+04  0.25023275377E+04  0.00000000000E+00 0. -1.
         23    2    1    2    0    0  0.29099547124E+02 -0.58306416239E+02  0.38493784675E+03  0.40827110960E+03  0.11942249058E+03 0.  0.
        254    2    1    2    0    0 -0.29099547124E+02  0.58306416239E+02 -0.24088428881E+04  0.25724789243E+04  0.90048727624E+03 0.  0.
         23    2    4    4    0    0 -0.21341805699E+03  0.12655881612E+03 -0.15188840514E+03  0.30505951468E+03  0.91797706363E+02 0.  0.
         23    2    4    4    0    0  0.18431850986E+03 -0.68252399883E+02 -0.22569544830E+04  0.22674194097E+04  0.93357045025E+02 0.  0.
         11    1    3    3    0    0 -0.19746255081E+02 -0.71337287047E+02  0.30368032872E+03  0.31257105619E+03  0.00000000000E+00 0.  1.
        -11    1    3    3    0    0  0.48845802204E+02  0.13030870808E+02  0.81257518020E+02  0.95700053406E+02  0.00000000000E+00 0. -1.
          4    1    5    5  502    0 -0.17475349977E+03  0.90333476547E+02 -0.72583070301E+02  0.20968363017E+03  0.00000000000E+00 0. -1.
          1    1    6    6  503    0  0.14693031009E+03 -0.21723762116E+02 -0.18698970203E+04  0.18757865829E+04  0.00000000000E+00 0. -1.
         -4    1    5    5    0  502 -0.38664557218E+02  0.36225339576E+02 -0.79305334836E+02  0.95375884508E+02  0.00000000000E+00 0.  1.
         -1    1    6    6    0  503  0.37388199774E+02 -0.46528637767E+02 -0.38705746267E+03  0.39163282680E+03  0.00000000000E+00 0.  1.
<mgrwt>
<rscale>  0 0.21883051E+04</rscale>
<asrwt>0</asrwt>
<pdfrwt beam="1">  1        2 0.38497346E+00 0.21883051E+04</pdfrwt>
<pdfrwt beam="2">  1       -2 0.73603461E-01 0.21883051E+04</pdfrwt>
<totfact> 0.52861424E+00</totfact>
</mgrwt>
</event>
<event>
12    1  0.4820219E-008  0.1934032E+04  0.7818608E-02  0.8638100E-01
         -1   -1    0    0    0  501 -0.00000000000E+00  0.00000000000E+00  0.10491186031E+04  0.10491186031E+04  0.00000000000E+00 0.  1.
          1   -1    0    0  501    0  0.00000000000E+00 -0.00000000000E+00 -0.89133835430E+03  0.89133835430E+03  0.00000000000E+00 0. -1.
         23    2    1    2    0    0  0.73560916303E+03 -0.16215046247E+03  0.11959837538E+03  0.76816908070E+03  0.91467764433E+02 0.  0.
        254    2    1    2    0    0 -0.73560916303E+03  0.16215046247E+03  0.38181873398E+02  0.11722878767E+04  0.89743378426E+03 0.  0.
         23    2    4    4    0    0 -0.59861102119E+03  0.41119766750E+03  0.28378249760E+03  0.78513627672E+03  0.92129206182E+02 0.  0.
         23    2    4    4    0    0 -0.13699814185E+03 -0.24904720503E+03 -0.24560062420E+03  0.38715159996E+03  0.93667996340E+02 0.  0.
         13    1    3    3    0    0  0.64330147514E+03 -0.17000465496E+03  0.11627023139E+03  0.67546808757E+03  0.00000000000E+00 0.  1.
        -13    1    3    3    0    0  0.92307687895E+02  0.78541924874E+01  0.33281439924E+01  0.92700993126E+02  0.00000000000E+00 0. -1.
          4    1    5    5  502    0 -0.43775773377E+03  0.32808807667E+03  0.24768517942E+03  0.60051774964E+03  0.00000000000E+00 0.  1.
          4    1    6    6  503    0 -0.32799617992E+02 -0.41618678691E+01 -0.30043914306E+02  0.44674073817E+02  0.00000000000E+00 0. -1.
         -4    1    5    5    0  502 -0.16085328742E+03  0.83109590824E+02  0.36097318181E+02  0.18461852708E+03  0.00000000000E+00 0. -1.
         -4    1    6    6    0  503 -0.10419852385E+03 -0.24488533716E+03 -0.21555670990E+03  0.34247752614E+03  0.00000000000E+00 0.  1.
<mgrwt>
<rscale>  0 0.19340317E+04</rscale>
<asrwt>0</asrwt>
<pdfrwt beam="1">  1        1 0.13712898E+00 0.19340317E+04</pdfrwt>
<pdfrwt beam="2">  1       -1 0.16140286E+00 0.19340317E+04</pdfrwt>
<totfact> 0.49215223E+00</totfact>
</mgrwt>
</event>
<event>
12    1  0.4820219E-008  0.2462873E+04  0.7818608E-02  0.8416333E-01
          1   -1    0    0  501    0  0.00000000000E+00  0.00000000000E+00  0.12430688224E+04  0.12430688224E+04  0.00000000000E+00 0. -1.
         -1   -1    0    0    0  501 -0.00000000000E+00 -0.00000000000E+00 -0.12199129004E+04  0.12199129004E+04  0.00000000000E+00 0.  1.
         23    2    1    2    0    0  0.93099486652E+03 -0.23267340889E+03  0.47491066701E+03  0.10738377649E+04  0.81847705880E+02 0.  0.
        254    2    1    2    0    0 -0.93099486652E+03  0.23267340889E+03 -0.45175474504E+03  0.13891439580E+04  0.89707871987E+03 0.  0.
         23    2    4    4    0    0 -0.36579836962E+03 -0.26688815034E+03 -0.42615622929E+03  0.62881230309E+03  0.93584447117E+02 0.  0.
         23    2    4    4    0    0 -0.56519649690E+03  0.49956155923E+03 -0.25598515747E+02  0.76033165489E+03  0.91870070525E+02 0.  0.
         13    1    3    3    0    0  0.80072337357E+03 -0.22836513618E+03  0.41636718605E+03  0.93095122859E+03  0.00000000000E+00 0. -1.
        -13    1    3    3    0    0  0.13027149295E+03 -0.43082727077E+01  0.58543480958E+02  0.14288653629E+03  0.00000000000E+00 0.  1.
          2    1    5    5  502    0 -0.21618401317E+03 -0.16535683781E+03 -0.19251069374E+03  0.33337483193E+03  0.00000000000E+00 0.  1.
          3    1    6    6  503    0 -0.22007354825E+03  0.13686448145E+03 -0.34576437132E+01  0.25918373449E+03  0.00000000000E+00 0. -1.
         -2    1    5    5    0  502 -0.14961435646E+03 -0.10153131252E+03 -0.23364553556E+03  0.29543747116E+03  0.00000000000E+00 0. -1.
         -3    1    6    6    0  503 -0.34512294864E+03  0.36269707778E+03 -0.22140872034E+02  0.50114792040E+03  0.00000000000E+00 0.  1.
<mgrwt>
<rscale>  0 0.24628729E+04</rscale>
<asrwt>0</asrwt>
<pdfrwt beam="1">  1        1 0.19124136E+00 0.24628729E+04</pdfrwt>
<pdfrwt beam="2">  1       -1 0.18767891E+00 0.24628729E+04</pdfrwt>
<totfact> 0.16257005E+00</totfact>
</mgrwt>
</event>
<event>
12    1  0.4820219E-008  0.1729561E+04  0.7818608E-02  0.8744682E-01
          2   -1    0    0  501    0  0.00000000000E+00  0.00000000000E+00  0.30138811017E+04  0.30138811017E+04  0.00000000000E+00 0.  1.
         -2   -1    0    0    0  501 -0.00000000000E+00 -0.00000000000E+00 -0.24813360768E+03  0.24813360768E+03  0.00000000000E+00 0. -1.
         23    2    1    2    0    0  0.36283703004E+03  0.48533449085E+01  0.19760745248E+04  0.20113683514E+04  0.95172747796E+02 0.  0.
        254    2    1    2    0    0 -0.36283703004E+03 -0.48533449085E+01  0.78967296915E+03  0.12506463580E+04  0.89936569266E+03 0.  0.
         23    2    4    4    0    0 -0.13077194770E+03  0.46530330520E+02 -0.18210980860E+03  0.24595243115E+03  0.89789988516E+02 0.  0.
         23    2    4    4    0    0 -0.23206508234E+03 -0.51383675428E+02  0.97178277775E+03  0.10046939268E+04  0.92485863160E+02 0.  0.
         11    1    3    3    0    0  0.41097827532E+02  0.17090250493E+02  0.12953509202E+03  0.13696878533E+03  0.00000000000E+00 0. -1.
        -11    1    3    3    0    0  0.32173920251E+03 -0.12236905585E+02  0.18465394328E+04  0.18743995661E+04  0.00000000000E+00 0.  1.
          3    1    5    5  502    0 -0.11369674846E+03  0.59481721967E+02 -0.18412561294E+03  0.22442652962E+03  0.00000000000E+00 0. -1.
          3    1    6    6  503    0 -0.11659211772E+03 -0.72830898604E+02  0.50819703784E+03  0.52646205084E+03  0.00000000000E+00 0. -1.
         -3    1    5    5    0  502 -0.17075199241E+02 -0.12951391448E+02  0.20158043383E+01  0.21525901530E+02  0.00000000000E+00 0.  1.
         -3    1    6    6    0  503 -0.11547296462E+03  0.21447223176E+02  0.46358573992E+03  0.47823187597E+03  0.00000000000E+00 0.  1.
<mgrwt>
<rscale>  0 0.17295609E+04</rscale>
<asrwt>0</asrwt>
<pdfrwt beam="1">  1        2 0.46367399E+00 0.17295609E+04</pdfrwt>
<pdfrwt beam="2">  1       -2 0.38174403E-01 0.17295609E+04</pdfrwt>
<totfact> 0.10545639E+01</totfact>
</mgrwt>
</event>
<event>
12    1  0.4820219E-008  0.1475108E+04  0.7818608E-02  0.8901177E-01
          1   -1    0    0  501    0  0.00000000000E+00  0.00000000000E+00  0.65898997183E+03  0.65898997183E+03  0.00000000000E+00 0. -1.
         -1   -1    0    0    0  501 -0.00000000000E+00 -0.00000000000E+00 -0.82548403019E+03  0.82548403019E+03  0.00000000000E+00 0.  1.
         23    2    1    2    0    0  0.17054899400E+03  0.85502147919E+02  0.35991994557E+03  0.41888713925E+03  0.97603747631E+02 0.  0.
        254    2    1    2    0    0 -0.17054899400E+03 -0.85502147919E+02 -0.52641400393E+03  0.10655868628E+04  0.90662345102E+03 0.  0.
         23    2    4    4    0    0  0.13940072421E+03 -0.95549717840E+01 -0.68077833838E+03  0.70047823236E+03  0.87674104510E+02 0.  0.
         23    2    4    4    0    0 -0.30994971821E+03 -0.75947176135E+02  0.15436433445E+03  0.36510863042E+03  0.87402304750E+02 0.  0.
         13    1    3    3    0    0  0.13388791109E+03  0.10709107583E+03  0.27912386172E+03  0.32757381067E+03  0.00000000000E+00 0. -1.
        -13    1    3    3    0    0  0.36661082913E+02 -0.21588927915E+02  0.80796083853E+02  0.91313328571E+02  0.00000000000E+00 0.  1.
          2    1    5    5  502    0  0.14173749555E+03 -0.20018884842E+02 -0.67055605434E+03  0.68566441895E+03  0.00000000000E+00 0. -1.
          1    1    6    6  503    0 -0.19141710690E+03 -0.56631453909E+02  0.49478725392E+02  0.20565936558E+03  0.00000000000E+00 0. -1.
         -2    1    5    5    0  502 -0.23367713401E+01  0.10463913058E+02 -0.10222284037E+02  0.14813813409E+02  0.00000000000E+00 0.  1.
         -1    1    6    6    0  503 -0.11853261131E+03 -0.19315722226E+02  0.10488560906E+03  0.15944926484E+03  0.00000000000E+00 0.  1.
<mgrwt>
<rscale>  0 0.14751077E+04</rscale>
<asrwt>0</asrwt>
<pdfrwt beam="1">  1        1 0.10138307E+00 0.14751077E+04</pdfrwt>
<pdfrwt beam="2">  1       -1 0.12699754E+00 0.14751077E+04</pdfrwt>
<totfact> 0.15561922E+01</totfact>
</mgrwt>
</event>
<event>
12    1  0.4820219E-008  0.1942343E+04  0.7818608E-02  0.8634062E-01
         -2   -1    0    0    0  501 -0.00000000000E+00  0.00000000000E+00  0.82484800408E+03  0.82484800408E+03  0.00000000000E+00 0.  1.
          2   -1    0    0  501    0  0.00000000000E+00 -0.00000000000E+00 -0.11434517345E+04  0.11434517345E+04  0.00000000000E+00 0. -1.
         23    2    1    2    0    0 -0.69498233453E+02 -0.86539531412E+02  0.63260005040E+03  0.65001596635E+03  0.10009414466E+03 0.  0.
        254    2    1    2    0    0  0.69498233453E+02  0.86539531412E+02 -0.95120378079E+03  0.13182837722E+04  0.90596047180E+03 0.  0.
         23    2    4    4    0    0 -0.74243032845E+02  0.39208202093E+03 -0.13714797017E+03  0.43209776834E+03  0.93051472957E+02 0.  0.
         23    2    4    4    0    0  0.14374126630E+03 -0.30554248952E+03 -0.81405581061E+03  0.88618600385E+03  0.92849373066E+02 0.  0.
         13    1    3    3    0    0 -0.23930532748E+02  0.78751257785E+01  0.30526366443E+03  0.30630147375E+03  0.00000000000E+00 0. -1.
        -13    1    3    3    0    0 -0.45567700706E+02 -0.94414657191E+02  0.32733638598E+03  0.34371449260E+03  0.00000000000E+00 0.  1.
          4    1    5    5  502    0 -0.19968695948E+01  0.21862898628E+03 -0.10063025483E+03  0.24068458471E+03  0.00000000000E+00 0. -1.
          1    1    6    6  503    0  0.12153912673E+02 -0.68662049371E+01 -0.69639238538E+01  0.15599955095E+02  0.00000000000E+00 0. -1.
         -4    1    5    5    0  502 -0.72246163250E+02  0.17345303465E+03 -0.36517715345E+02  0.19141318363E+03  0.00000000000E+00 0.  1.
         -1    1    6    6    0  503  0.13158735362E+03 -0.29867628458E+03 -0.80709188676E+03  0.87058604875E+03  0.00000000000E+00 0.  1.
<mgrwt>
<rscale>  0 0.19423428E+04</rscale>
<asrwt>0</asrwt>
<pdfrwt beam="1">  1        2 0.17591565E+00 0.19423428E+04</pdfrwt>
<pdfrwt beam="2">  1       -2 0.12689969E+00 0.19423428E+04</pdfrwt>
<totfact> 0.88294357E+00</totfact>
</mgrwt>
</event>
<event>
12    1  0.4820219E-008  0.1624546E+04  0.7818608E-02  0.8805609E-01
          2   -1    0    0  501    0  0.00000000000E+00  0.00000000000E+00  0.23349691352E+04  0.23349691352E+04  0.00000000000E+00 0. -1.
         -2   -1    0    0    0  501 -0.00000000000E+00 -0.00000000000E+00 -0.28256808587E+03  0.28256808587E+03  0.00000000000E+00 0.  1.
         23    2    1    2    0    0  0.19271201228E+03 -0.19403160105E+03 -0.72092979781E+02  0.29757031652E+03  0.92544657638E+02 0.  0.
        254    2    1    2    0    0 -0.19271201228E+03  0.19403160105E+03  0.21244940291E+04  0.23199669045E+04  0.89105857078E+03 0.  0.
         23    2    4    4    0    0 -0.13843867190E+03  0.23241195368E+02  0.21149175630E+04  0.21216247337E+04  0.93326274069E+02 0.  0.
         23    2    4    4    0    0 -0.54273340381E+02  0.17079040568E+03  0.95764661509E+01  0.19834217086E+03  0.84456793019E+02 0.  0.
         13    1    3    3    0    0  0.15638379514E+02  0.72922535678E+01  0.60723778536E+01  0.18292338525E+02  0.00000000000E+00 0. -1.
        -13    1    3    3    0    0  0.17707363277E+03 -0.20132385462E+03 -0.78165357635E+02  0.27927797800E+03  0.00000000000E+00 0.  1.
          2    1    5    5  502    0 -0.13218344849E+03 -0.96458606969E+01  0.18183646414E+04  0.18231882722E+04  0.00000000000E+00 0. -1.
          3    1    6    6  503    0 -0.67406823152E+02  0.12367503167E+03  0.32147671739E+02  0.14447375562E+03  0.00000000000E+00 0. -1.
         -2    1    5    5    0  502 -0.62552234096E+01  0.32887056065E+02  0.29655292155E+03  0.29843646151E+03  0.00000000000E+00 0.  1.
         -3    1    6    6    0  503  0.13133482771E+02  0.47115374012E+02 -0.22571205588E+02  0.53868415232E+02  0.00000000000E+00 0.  1.
<mgrwt>
<rscale>  0 0.16245464E+04</rscale>
<asrwt>0</asrwt>
<pdfrwt beam="1">  1        2 0.35922601E+00 0.16245464E+04</pdfrwt>
<pdfrwt beam="2">  1       -2 0.43472015E-01 0.16245464E+04</pdfrwt>
<totfact> 0.20823341E+01</totfact>
</mgrwt>
</event>
<event>
12    1  0.4820219E-008  0.1643868E+04  0.7818608E-02  0.8794042E-01
         -2   -1    0    0    0  501 -0.00000000000E+00  0.00000000000E+00  0.86663504540E+03  0.86663504540E+03  0.00000000000E+00 0. -1.
          2   -1    0    0  501    0  0.00000000000E+00 -0.00000000000E+00 -0.77953878097E+03  0.77953878097E+03  0.00000000000E+00 0.  1.
         23    2    1    2    0    0  0.39329710468E+03 -0.28405219008E+03 -0.26518447763E+03  0.56157835757E+03  0.98382850532E+02 0.  0.
        254    2    1    2    0    0 -0.39329710468E+03  0.28405219008E+03  0.35228074206E+03  0.10845954688E+04  0.90381267444E+03 0.  0.
         23    2    4    4    0    0  0.12354695519E+03 -0.10874760805E+03 -0.16744202634E+03  0.24802823788E+03  0.79945495234E+02 0.  0.
         23    2    4    4    0    0 -0.51684405987E+03  0.39279979813E+03  0.51972276839E+03  0.83656723092E+03  0.91178463675E+02 0.  0.
         13    1    3    3    0    0  0.39253083856E+03 -0.28847498344E+03 -0.26828295965E+03  0.55612410641E+03  0.00000000000E+00 0.  1.
        -13    1    3    3    0    0  0.76626611539E+00  0.44227933582E+01  0.30984820238E+01  0.54542511586E+01  0.00000000000E+00 0. -1.
          4    1    5    5  502    0  0.10083286075E+03 -0.49460347670E+02 -0.72032815851E+02  0.13342532878E+03  0.00000000000E+00 0. -1.
          1    1    6    6  503    0 -0.24991494390E+03  0.21310379810E+03  0.20927897972E+03  0.38944627268E+03  0.00000000000E+00 0. -1.
         -4    1    5    5    0  502  0.22714094434E+02 -0.59287260377E+02 -0.95409210486E+02  0.11460290910E+03  0.00000000000E+00 0.  1.
         -1    1    6    6    0  503 -0.26692911597E+03  0.17969600002E+03  0.31044378867E+03  0.44712095824E+03  0.00000000000E+00 0.  1.
<mgrwt>
<rscale>  0 0.16438682E+04</rscale>
<asrwt>0</asrwt>
<pdfrwt beam="1">  1        2 0.11992904E+00 0.16438682E+04</pdfrwt>
<pdfrwt beam="2">  1       -2 0.13332847E+00 0.16438682E+04</pdfrwt>
<totfact> 0.13872679E+01</totfact>
</mgrwt>
</event>
<event>
12    1  0.4820219E-008  0.2608425E+04  0.7818608E-02  0.8365345E-01
         -2   -1    0    0    0  501 -0.00000000000E+00  0.00000000000E+00  0.18611563632E+04  0.18611563632E+04  0.00000000000E+00 0.  1.
          2   -1    0    0  501    0  0.00000000000E+00 -0.00000000000E+00 -0.91393201570E+03  0.91393201570E+03  0.00000000000E+00 0. -1.
         23    2    1    2    0    0  0.25145950655E+03  0.21233115653E+02  0.16063549383E+04  0.16288048640E+04  0.94585244517E+02 0.  0.
        254    2    1    2    0    0 -0.25145950655E+03 -0.21233115653E+02 -0.65913059085E+03  0.11462835149E+04  0.90323309950E+03 0.  0.
         23    2    4    4    0    0 -0.56523606745E+03 -0.94834528428E+02 -0.53449223735E+03  0.78882954903E+03  0.89914992719E+02 0.  0.
         23    2    4    4    0    0  0.31377656090E+03  0.73601412776E+02 -0.12463835350E+03  0.35745396584E+03  0.91464312154E+02 0.  0.
         13    1    3    3    0    0  0.61084309419E+02 -0.24312995045E+02  0.59982356614E+03  0.60341588070E+03  0.00000000000E+00 0. -1.
        -13    1    3    3    0    0  0.19037519713E+03  0.45546110697E+02  0.10065313722E+04  0.10253889833E+04  0.00000000000E+00 0.  1.
          3    1    5    5  502    0 -0.34160832153E+03 -0.26728696038E+02 -0.27324757843E+03  0.43826351393E+03  0.00000000000E+00 0. -1.
          3    1    6    6  503    0  0.22615274549E+03  0.18354704100E+02 -0.11220433210E+03  0.25312402414E+03  0.00000000000E+00 0. -1.
         -3    1    5    5    0  502 -0.22362774592E+03 -0.68105832391E+02 -0.26124465892E+03  0.35056603510E+03  0.00000000000E+00 0.  1.
         -3    1    6    6    0  503  0.87623815405E+02  0.55246708676E+02 -0.12434021402E+02  0.10432994169E+03  0.00000000000E+00 0.  1.
<mgrwt>
<rscale>  0 0.26084251E+04</rscale>
<asrwt>0</asrwt>
<pdfrwt beam="1">  1        2 0.14060493E+00 0.26084251E+04</pdfrwt>
<pdfrwt beam="2">  1       -2 0.28633175E+00 0.26084251E+04</pdfrwt>
<totfact> 0.97720624E-01</totfact>
</mgrwt>
</event>
<event>
12    1  0.4820219E-008  0.1320559E+04  0.7818608E-02  0.9013419E-01
         -3   -1    0    0    0  501 -0.00000000000E+00  0.00000000000E+00  0.34430629630E+03  0.34430629630E+03  0.00000000000E+00 0.  1.
          3   -1    0    0  501    0  0.00000000000E+00 -0.00000000000E+00 -0.12662247805E+04  0.12662247805E+04  0.00000000000E+00 0. -1.
         23    2    1    2    0    0 -0.26856028149E+03  0.91769513567E+02 -0.47034173720E+03  0.55650628182E+03  0.89059662761E+02 0.  0.
        254    2    1    2    0    0  0.26856028149E+03 -0.91769513567E+02 -0.45157674698E+03  0.10540247950E+04  0.90912069692E+03 0.  0.
         23    2    4    4    0    0 -0.26271734949E+03  0.28355488762E+02 -0.41487130027E+03  0.50030456134E+03  0.91444074924E+02 0.  0.
         23    2    4    4    0    0  0.53127763098E+03 -0.12012500233E+03 -0.36705446707E+02  0.55372023362E+03  0.92589793936E+02 0.  0.
         11    1    3    3    0    0 -0.23844574976E+02  0.36338844726E+02 -0.44257254804E+02  0.62030476336E+02  0.00000000000E+00 0.  1.
        -11    1    3    3    0    0 -0.24471570652E+03  0.55430668841E+02 -0.42608448240E+03  0.49447580548E+03  0.00000000000E+00 0. -1.
          4    1    5    5  502    0 -0.24483149194E+03  0.11923887730E+01 -0.38432610991E+03  0.45568677838E+03  0.00000000000E+00 0. -1.
          4    1    6    6  503    0  0.21070266295E+02 -0.23904302008E+02 -0.11605721328E+02  0.33912601548E+02  0.00000000000E+00 0.  1.
         -4    1    5    5    0  502 -0.17885857552E+02  0.27163099989E+02 -0.30545190366E+02  0.44617782956E+02  0.00000000000E+00 0.  1.
         -4    1    6    6    0  503  0.51020736468E+03 -0.96220700322E+02 -0.25099725379E+02  0.51980763207E+03  0.00000000000E+00 0. -1.
<mgrwt>
<rscale>  0 0.13205592E+04</rscale>
<asrwt>0</asrwt>
<pdfrwt beam="1">  1        3 0.19480381E+00 0.13205592E+04</pdfrwt>
<pdfrwt beam="2">  1       -3 0.52970200E-01 0.13205592E+04</pdfrwt>
<totfact> 0.14375443E+00</totfact>
</mgrwt>
</event>
<event>
12    1  0.4820219E-008  0.2405885E+04  0.7818608E-02  0.8437304E-01
          2   -1    0    0  501    0  0.00000000000E+00  0.00000000000E+00  0.19784375620E+04  0.19784375620E+04  0.00000000000E+00 0. -1.
         -2   -1    0    0    0  501 -0.00000000000E+00 -0.00000000000E+00 -0.73142094919E+03  0.73142094919E+03  0.00000000000E+00 0.  1.
         23    2    1    2    0    0  0.10238328709E+04 -0.11838355006E+03  0.64153392242E+03  0.12176353213E+04  0.93923317631E+02 0.  0.
        254    2    1    2    0    0 -0.10238328709E+04  0.11838355006E+03  0.60548269044E+03  0.14922231900E+04  0.89323700544E+03 0.  0.
         23    2    4    4    0    0 -0.84349974707E+03 -0.26968292577E+03  0.56145594520E+03  0.10524655268E+04  0.90720466091E+02 0.  0.
         23    2    4    4    0    0 -0.18033312379E+03  0.38806647583E+03  0.44026745238E+02  0.43975766316E+03  0.91284296635E+02 0.  0.
         11    1    3    3    0    0  0.10258572377E+04 -0.11838101910E+03  0.63895226432E+03  0.12143546162E+04  0.00000000000E+00 0. -1.
        -11    1    3    3    0    0 -0.20243668001E+01 -0.25309594371E-02  0.25816580966E+01  0.32807050880E+01  0.00000000000E+00 0.  1.
          4    1    5    5  502    0 -0.28333862889E+03 -0.53065587004E+02  0.15529577889E+03  0.32743474783E+03  0.00000000000E+00 0. -1.
          1    1    6    6  503    0 -0.46144361976E+02  0.48190272168E+02 -0.18041171129E+02  0.69116483776E+02  0.00000000000E+00 0. -1.
         -4    1    5    5    0  502 -0.56016111819E+03 -0.21661733876E+03  0.40616016631E+03  0.72503077899E+03  0.00000000000E+00 0.  1.
         -1    1    6    6    0  503 -0.13418876181E+03  0.33987620366E+03  0.62067916367E+02  0.37064117938E+03  0.00000000000E+00 0.  1.
<mgrwt>
<rscale>  0 0.24058850E+04</rscale>
<asrwt>0</asrwt>
<pdfrwt beam="1">  1        2 0.30437501E+00 0.24058850E+04</pdfrwt>
<pdfrwt beam="2">  1       -2 0.11252630E+00 0.24058850E+04</pdfrwt>
<totfact> 0.38382494E+00</totfact>
</mgrwt>
</event>
<event>
12    1  0.4820219E-008  0.1357195E+04  0.7818608E-02  0.8985400E-01
         -2   -1    0    0    0  501 -0.00000000000E+00  0.00000000000E+00  0.19362143702E+03  0.19362143702E+03  0.00000000000E+00 0.  1.
          2   -1    0    0  501    0  0.00000000000E+00 -0.00000000000E+00 -0.23783235275E+04  0.23783235275E+04  0.00000000000E+00 0. -1.
         23    2    1    2    0    0  0.68550114904E+02  0.98720861534E+02  0.51517488976E+02  0.15842408920E+03  0.89438322962E+02 0.  0.
        254    2    1    2    0    0 -0.68550114904E+02 -0.98720861534E+02 -0.22362195795E+04  0.24135208753E+04  0.89997782265E+03 0.  0.
         23    2    4    4    0    0 -0.40351120686E+03  0.12885196490E+03 -0.70219260220E+03  0.82437748372E+03  0.84259493006E+02 0.  0.
         23    2    4    4    0    0  0.33496109196E+03 -0.22757282643E+03 -0.15340269773E+04  0.15891433916E+04  0.90275287963E+02 0.  0.
         11    1    3    3    0    0  0.46034189315E+02  0.62362374885E+02 -0.15381394238E+02  0.79024044922E+02  0.00000000000E+00 0. -1.
        -11    1    3    3    0    0  0.22515925589E+02  0.36358486648E+02  0.66898883214E+02  0.79400044281E+02  0.00000000000E+00 0.  1.
          2    1    5    5  502    0 -0.18897104738E+03  0.74380336970E+02 -0.41268716821E+03  0.45994911684E+03  0.00000000000E+00 0. -1.
          1    1    6    6  503    0  0.32957779827E+03 -0.22639490455E+03 -0.14265883124E+04  0.14815634955E+04  0.00000000000E+00 0. -1.
         -2    1    5    5    0  502 -0.21454015948E+03  0.54471627927E+02 -0.28950543399E+03  0.36442836688E+03  0.00000000000E+00 0.  1.
         -1    1    6    6    0  503  0.53832936907E+01 -0.11779218810E+01 -0.10743866483E+03  0.10757989613E+03  0.00000000000E+00 0.  1.
<mgrwt>
<rscale>  0 0.13571948E+04</rscale>
<asrwt>0</asrwt>
<pdfrwt beam="1">  1        2 0.36589596E+00 0.13571948E+04</pdfrwt>
<pdfrwt beam="2">  1       -2 0.29787911E-01 0.13571948E+04</pdfrwt>
<totfact> 0.41626929E+01</totfact>
</mgrwt>
</event>
<event>
12    1  0.4820219E-008  0.1465991E+04  0.7818608E-02  0.8907389E-01
          1   -1    0    0  501    0  0.00000000000E+00  0.00000000000E+00  0.10517313869E+04  0.10517313869E+04  0.00000000000E+00 0. -1.
         -1   -1    0    0    0  501 -0.00000000000E+00 -0.00000000000E+00 -0.51085531680E+03  0.51085531680E+03  0.00000000000E+00 0.  1.
         23    2    1    2    0    0 -0.26203290352E+03  0.36042380254E+03  0.19018013816E+03  0.49481078358E+03  0.10051202233E+03 0.  0.
        254    2    1    2    0    0  0.26203290352E+03 -0.36042380254E+03  0.35069593192E+03  0.10677759201E+04  0.90476031021E+03 0.  0.
         23    2    4    4    0    0  0.21332164364E+03  0.22256344742E+03  0.35044858670E+03  0.47564715091E+03  0.91571766829E+02 0.  0.
         23    2    4    4    0    0  0.48711259887E+02 -0.58298724996E+03  0.24734522213E+00  0.59212876920E+03  0.91484958733E+02 0.  0.
         11    1    3    3    0    0 -0.35382342410E+02  0.72072887116E+01  0.64780214548E+01  0.36685418451E+02  0.00000000000E+00 0. -1.
        -11    1    3    3    0    0 -0.22665056111E+03  0.35321651383E+03  0.18370211671E+03  0.45812536513E+03  0.00000000000E+00 0.  1.
          3    1    6    6  502    0  0.17028735307E+02 -0.25192528273E+03  0.45251898508E+02  0.25652302084E+03  0.00000000000E+00 0. -1.
          3    1    5    5  503    0  0.69413278995E+02  0.13151963125E+03  0.13347310287E+03  0.19982663960E+03  0.00000000000E+00 0. -1.
         -3    1    5    5    0  503  0.14390836464E+03  0.91043816172E+02  0.21697548383E+03  0.27582051131E+03  0.00000000000E+00 0.  1.
         -3    1    6    6    0  502  0.31682524580E+02 -0.33106196723E+03 -0.45004553286E+02  0.33560574835E+03  0.00000000000E+00 0.  1.
<mgrwt>
<rscale>  0 0.14659912E+04</rscale>
<asrwt>0</asrwt>
<pdfrwt beam="1">  1        1 0.16180483E+00 0.14659912E+04</pdfrwt>
<pdfrwt beam="2">  1       -1 0.78593126E-01 0.14659912E+04</pdfrwt>
<totfact> 0.21683316E+01</totfact>
</mgrwt>
</event>
<event>
12    1  0.4820219E-008  0.1353818E+04  0.7818608E-02  0.8987943E-01
         -2   -1    0    0    0  501 -0.00000000000E+00  0.00000000000E+00  0.53347449779E+03  0.53347449779E+03  0.00000000000E+00 0.  1.
          2   -1    0    0  501    0  0.00000000000E+00 -0.00000000000E+00 -0.85890908575E+03  0.85890908575E+03  0.00000000000E+00 0. -1.
         23    2    1    2    0    0 -0.22273621408E+03  0.29436911296E+03 -0.28336626344E+03  0.47147911784E+03  0.75706826489E+02 0.  0.
        254    2    1    2    0    0  0.22273621408E+03 -0.29436911296E+03 -0.42068324515E+02  0.92090446570E+03  0.84263319142E+03 0.  0.
         23    2    4    4    0    0  0.23858763932E+03 -0.31733663243E+02 -0.39501665722E+03  0.47179543436E+03  0.92853031111E+02 0.  0.
         23    2    4    4    0    0 -0.15851425232E+02 -0.26263544971E+03  0.35294833271E+03  0.44910903133E+03  0.88869282284E+02 0.  0.
         13    1    3    3    0    0 -0.21221328326E+03  0.25795016110E+03 -0.27498712953E+03  0.43265538782E+03  0.00000000000E+00 0.  1.
        -13    1    3    3    0    0 -0.10522930820E+02  0.36418951857E+02 -0.83791339087E+01  0.38823730017E+02  0.00000000000E+00 0. -1.
          2    1    6    6  502    0 -0.45263926865E+02 -0.20313717863E+03  0.23615320448E+03  0.31477273135E+03  0.00000000000E+00 0.  1.
          2    1    5    5  503    0  0.35048034683E+02 -0.20273334448E+01 -0.12110084711E+02  0.37136625691E+02  0.00000000000E+00 0. -1.
         -2    1    5    5    0  503  0.20353960463E+03 -0.29706329798E+02 -0.38290657251E+03  0.43465880867E+03  0.00000000000E+00 0.  1.
         -2    1    6    6    0  502  0.29412501634E+02 -0.59498271085E+02  0.11679512822E+03  0.13433629998E+03  0.00000000000E+00 0. -1.
<mgrwt>
<rscale>  0 0.13538184E+04</rscale>
<asrwt>0</asrwt>
<pdfrwt beam="1">  1        2 0.13213986E+00 0.13538184E+04</pdfrwt>
<pdfrwt beam="2">  1       -2 0.82073001E-01 0.13538184E+04</pdfrwt>
<totfact> 0.39878100E+01</totfact>
</mgrwt>
</event>
<event>
12    1  0.4820219E-008  0.1789980E+04  0.7818608E-02  0.8711646E-01
          1   -1    0    0  501    0  0.00000000000E+00  0.00000000000E+00  0.66523721427E+03  0.66523721427E+03  0.00000000000E+00 0. -1.
         -1   -1    0    0    0  501 -0.00000000000E+00 -0.00000000000E+00 -0.12040919783E+04  0.12040919783E+04  0.00000000000E+00 0.  1.
         23    2    1    2    0    0  0.28862007742E+03  0.56210359512E+03  0.15520019977E+02  0.63845709330E+03  0.90136497734E+02 0.  0.
        254    2    1    2    0    0 -0.28862007742E+03 -0.56210359512E+03 -0.55437478396E+03  0.12308720992E+04  0.89913999066E+03 0.  0.
         23    2    4    4    0    0 -0.50796424971E+03 -0.65870559616E+03 -0.37745999740E+03  0.91804905300E+03  0.91745695687E+02 0.  0.
         23    2    4    4    0    0  0.21934417228E+03  0.96602001039E+02 -0.17691478656E+03  0.31282304623E+03  0.95475672436E+02 0.  0.
         13    1    3    3    0    0  0.37744858028E+02  0.41750258211E+02  0.22832785791E+02  0.60737916290E+02  0.00000000000E+00 0. -1.
        -13    1    3    3    0    0  0.25087521940E+03  0.52035333691E+03 -0.73127658150E+01  0.57771917701E+03  0.00000000000E+00 0.  1.
          2    1    5    5  502    0 -0.16846054467E+03 -0.15634740203E+03 -0.12073497257E+03  0.25961586784E+03  0.00000000000E+00 0. -1.
          4    1    6    6  503    0  0.82845357620E+02 -0.13778654718E+01 -0.94485275790E+02  0.12566908583E+03  0.00000000000E+00 0. -1.
         -2    1    5    5    0  502 -0.33950370504E+03 -0.50235819413E+03 -0.25672502483E+03  0.65843318516E+03  0.00000000000E+00 0.  1.
         -4    1    6    6    0  503  0.13649881466E+03  0.97979866510E+02 -0.82429510773E+02  0.18715396040E+03  0.00000000000E+00 0.  1.
<mgrwt>
<rscale>  0 0.17899797E+04</rscale>
<asrwt>0</asrwt>
<pdfrwt beam="1">  1        1 0.10234419E+00 0.17899797E+04</pdfrwt>
<pdfrwt beam="2">  1       -1 0.18524492E+00 0.17899797E+04</pdfrwt>
<totfact> 0.53039721E+00</totfact>
</mgrwt>
</event>
<event>
12    1  0.4820219E-008  0.1361255E+04  0.7818608E-02  0.8982351E-01
         -2   -1    0    0    0  501 -0.00000000000E+00  0.00000000000E+00  0.31051453315E+03  0.31051453315E+03  0.00000000000E+00 0. -1.
          2   -1    0    0  501    0  0.00000000000E+00 -0.00000000000E+00 -0.14918918152E+04  0.14918918152E+04  0.00000000000E+00 0.  1.
         23    2    1    2    0    0 -0.24504644656E+03  0.17803768705E+03 -0.40854688092E+02  0.31858877533E+03  0.89913976920E+02 0.  0.
        254    2    1    2    0    0  0.24504644656E+03 -0.17803768705E+03 -0.11405225940E+04  0.14838175731E+04  0.89954300827E+03 0.  0.
         23    2    4    4    0    0  0.11470096909E+03 -0.28839355385E+03  0.14211520457E+01  0.32557169573E+03  0.98324743439E+02 0.  0.
         23    2    4    4    0    0  0.13034547747E+03  0.11035586680E+03 -0.11419437460E+04  0.11582458773E+04  0.91266819874E+02 0.  0.
         11    1    3    3    0    0 -0.14173521341E+02 -0.50670358582E+01 -0.17371993496E+02  0.22985859080E+02  0.00000000000E+00 0.  1.
        -11    1    3    3    0    0 -0.23087292522E+03  0.18310472290E+03 -0.23482694595E+02  0.29560291625E+03  0.00000000000E+00 0. -1.
          3    1    5    5  502    0 -0.15060435913E+02 -0.32446114203E+02 -0.13471444339E+02  0.38223642805E+02  0.00000000000E+00 0. -1.
          3    1    6    6  503    0  0.71124539664E+02  0.10095043844E+03 -0.57328812138E+03  0.58643751694E+03  0.00000000000E+00 0. -1.
         -3    1    5    5    0  502  0.12976140500E+03 -0.25594743965E+03  0.14892596385E+02  0.28734805292E+03  0.00000000000E+00 0.  1.
         -3    1    6    6    0  503  0.59220937809E+02  0.94054283682E+01 -0.56865562466E+03  0.57180836039E+03  0.00000000000E+00 0.  1.
<mgrwt>
<rscale>  0 0.13612554E+04</rscale>
<asrwt>0</asrwt>
<pdfrwt beam="1">  1        2 0.22952182E+00 0.13612554E+04</pdfrwt>
<pdfrwt beam="2">  1       -2 0.47771467E-01 0.13612554E+04</pdfrwt>
<totfact> 0.51972168E+01</totfact>
</mgrwt>
</event>
<event>
12    1  0.4820219E-008  0.1229983E+04  0.7818608E-02  0.9087010E-01
         -2   -1    0    0    0  501 -0.00000000000E+00  0.00000000000E+00  0.19505191229E+03  0.19505191229E+03  0.00000000000E+00 0.  1.
          2   -1    0    0  501    0  0.00000000000E+00 -0.00000000000E+00 -0.19390465017E+04  0.19390465017E+04  0.00000000000E+00 0. -1.
         23    2    1    2    0    0 -0.20414942841E+03 -0.18609616881E+03 -0.40053271360E+03  0.49507940282E+03  0.91478889698E+02 0.  0.
        254    2    1    2    0    0  0.20414942841E+03  0.18609616881E+03 -0.13434618758E+04  0.16390190112E+04  0.89732086462E+03 0.  0.
         23    2    4    4    0    0 -0.26657485753E+03 -0.17953222032E+03 -0.42927113172E+03  0.54418116476E+03  0.92549785224E+02 0.  0.
         23    2    4    4    0    0  0.47072428594E+03  0.36562838914E+03 -0.91419074411E+03  0.10948378464E+04  0.87519832350E+02 0.  0.
         13    1    3    3    0    0 -0.15146949757E+03 -0.14274882671E+03 -0.35968460270E+03  0.41556377325E+03  0.00000000000E+00 0. -1.
        -13    1    3    3    0    0 -0.52679930839E+02 -0.43347342108E+02 -0.40848110908E+02  0.79515629569E+02  0.00000000000E+00 0.  1.
          4    1    5    5  502    0 -0.25475011156E+02 -0.40201810395E+02 -0.26359256559E+02  0.54405626169E+02  0.00000000000E+00 0. -1.
          3    1    6    6  503    0  0.21648481260E+03  0.15954158071E+03 -0.49146068478E+03  0.56022566412E+03  0.00000000000E+00 0. -1.
         -4    1    5    5    0  502 -0.24109984638E+03 -0.13933040993E+03 -0.40291187516E+03  0.48977553859E+03  0.00000000000E+00 0.  1.
         -3    1    6    6    0  503  0.25423947334E+03  0.20608680843E+03 -0.42273005933E+03  0.53461218231E+03  0.00000000000E+00 0.  1.
<mgrwt>
<rscale>  0 0.12299833E+04</rscale>
<asrwt>0</asrwt>
<pdfrwt beam="1">  1        2 0.29831483E+00 0.12299833E+04</pdfrwt>
<pdfrwt beam="2">  1       -2 0.30007988E-01 0.12299833E+04</pdfrwt>
<totfact> 0.72973001E+01</totfact>
</mgrwt>
</event>
<event>
12    1  0.4820219E-008  0.2749437E+04  0.7818608E-02  0.8319140E-01
          1   -1    0    0  501    0  0.00000000000E+00  0.00000000000E+00  0.19502875569E+04  0.19502875569E+04  0.00000000000E+00 0. -1.
         -1   -1    0    0    0  501 -0.00000000000E+00 -0.00000000000E+00 -0.96901149603E+03  0.96901149603E+03  0.00000000000E+00 0.  1.
         23    2    1    2    0    0  0.11535426027E+03  0.57288222559E+03 -0.68520679178E+03  0.90514393797E+03  0.90975552651E+02 0.  0.
        254    2    1    2    0    0 -0.11535426027E+03 -0.57288222559E+03  0.16664828527E+04  0.20141551150E+04  0.96858405893E+03 0.  0.
         23    2    4    4    0    0  0.97772454067E+01  0.48897416868E+02 -0.94130051578E+02  0.14095103798E+03  0.92304802651E+02 0.  0.
         23    2    4    4    0    0 -0.12513150568E+03 -0.62177964245E+03  0.17606129043E+04  0.18732040770E+04  0.82872782130E+02 0.  0.
         13    1    3    3    0    0  0.10570383271E+03  0.53740034762E+03 -0.66994523903E+03  0.86533176133E+03  0.00000000000E+00 0.  1.
        -13    1    3    3    0    0  0.96504275613E+01  0.35481877964E+02 -0.15261552753E+02  0.39812176635E+02  0.00000000000E+00 0. -1.
          2    1    5    5  502    0  0.50286985750E+01  0.42494084456E+02 -0.11280364123E+03  0.12064699125E+03  0.00000000000E+00 0. -1.
          4    1    6    6  503    0 -0.24050807992E+02 -0.26813670892E+03  0.66151898004E+03  0.71420102002E+03  0.00000000000E+00 0. -1.
         -2    1    5    5    0  502  0.47485468317E+01  0.64033324119E+01  0.18673589651E+02  0.20304046726E+02  0.00000000000E+00 0.  1.
         -4    1    6    6    0  503 -0.10108069768E+03 -0.35364293354E+03  0.10990939242E+04  0.11590030570E+04  0.00000000000E+00 0.  1.
<mgrwt>
<rscale>  0 0.27494371E+04</rscale>
<asrwt>0</asrwt>
<pdfrwt beam="1">  1        1 0.30004424E+00 0.27494371E+04</pdfrwt>
<pdfrwt beam="2">  1       -1 0.14907869E+00 0.27494371E+04</pdfrwt>
<totfact> 0.99333269E-01</totfact>
</mgrwt>
</event>
<event>
12    1  0.4820219E-008  0.1200953E+04  0.7818608E-02  0.9112022E-01
         -2   -1    0    0    0  501 -0.00000000000E+00  0.00000000000E+00  0.55874948639E+03  0.55874948639E+03  0.00000000000E+00 0.  1.
          2   -1    0    0  501    0  0.00000000000E+00 -0.00000000000E+00 -0.64532015110E+03  0.64532015110E+03  0.00000000000E+00 0. -1.
         23    2    1    2    0    0  0.11138811254E+03  0.18501957537E+03  0.75028640907E+02  0.24759079940E+03  0.95038687411E+02 0.  0.
        254    2    1    2    0    0 -0.11138811254E+03 -0.18501957537E+03 -0.16159930562E+03  0.95647883809E+03  0.91765891117E+03 0.  0.
         23    2    4    4    0    0 -0.48092696015E+03 -0.23434326739E+03 -0.18010761056E+03  0.57203092844E+03  0.92591164462E+02 0.  0.
         23    2    4    4    0    0  0.36953884762E+03  0.49323692020E+02  0.18508304938E+02  0.38444790965E+03  0.92010061356E+02 0.  0.
         13    1    3    3    0    0  0.11802373048E+03  0.18663869877E+03  0.56637689292E+02  0.22797243842E+03  0.00000000000E+00 0.  1.
        -13    1    3    3    0    0 -0.66356179386E+01 -0.16191233938E+01  0.18390951616E+02  0.19618360974E+02  0.00000000000E+00 0. -1.
          2    1    5    5  502    0 -0.17977760465E+03 -0.91001017835E+02 -0.11567704036E+03  0.23234102102E+03  0.00000000000E+00 0. -1.
          1    1    6    6  503    0  0.24942161378E+03  0.72728842980E+02  0.29991020722E+02  0.26153410360E+03  0.00000000000E+00 0. -1.
         -2    1    5    5    0  502 -0.30114935550E+03 -0.14334224956E+03 -0.64430570195E+02  0.33968990742E+03  0.00000000000E+00 0.  1.
         -1    1    6    6    0  503  0.12011723384E+03 -0.23405150960E+02 -0.11482715784E+02  0.12291380605E+03  0.00000000000E+00 0.  1.
<mgrwt>
<rscale>  0 0.12009535E+04</rscale>
<asrwt>0</asrwt>
<pdfrwt beam="1">  1        2 0.99280023E-01 0.12009535E+04</pdfrwt>
<pdfrwt beam="2">  1       -2 0.85961460E-01 0.12009535E+04</pdfrwt>
<totfact> 0.52592799E+01</totfact>
</mgrwt>
</event>
<event>
12    1  0.4820219E-008  0.1268871E+04  0.7818608E-02  0.9054622E-01
          1   -1    0    0  501    0  0.00000000000E+00  0.00000000000E+00  0.55144997114E+03  0.55144997114E+03  0.00000000000E+00 0.  1.
         -1   -1    0    0    0  501 -0.00000000000E+00 -0.00000000000E+00 -0.72990924993E+03  0.72990924993E+03  0.00000000000E+00 0. -1.
         23    2    1    2    0    0 -0.21338171730E+03  0.84519329824E+02  0.15839380231E+03  0.29378235614E+03  0.92434851530E+02 0.  0.
        254    2    1    2    0    0  0.21338171730E+03 -0.84519329824E+02 -0.33685308109E+03  0.98757686494E+03  0.89953476393E+03 0.  0.
         23    2    4    4    0    0  0.26108185591E+02  0.25135551251E+03 -0.49235615874E+03  0.56081111766E+03  0.90737487395E+02 0.  0.
         23    2    4    4    0    0  0.18727353171E+03 -0.33587484233E+03  0.15550307764E+03  0.42676574728E+03  0.10032203398E+03 0.  0.
         13    1    3    3    0    0 -0.10225302670E+03  0.10954846587E+01  0.35404760804E+02  0.10821450292E+03  0.00000000000E+00 0. -1.
        -13    1    3    3    0    0 -0.11112869060E+03  0.83423845165E+02  0.12298904150E+03  0.18556785322E+03  0.00000000000E+00 0.  1.
          1    1    6    6  502    0  0.18169404675E+03 -0.27518474241E+03  0.15823960300E+03  0.36575830959E+03  0.00000000000E+00 0. -1.
          1    1    5    5  503    0  0.14016800577E+02  0.24240632453E+03 -0.48812909424E+03  0.54518557347E+03  0.00000000000E+00 0. -1.
         -1    1    5    5    0  503  0.12091385014E+02  0.89491879827E+01 -0.42270644964E+01  0.15625544194E+02  0.00000000000E+00 0.  1.
         -1    1    6    6    0  502  0.55794849575E+01 -0.60690099929E+02 -0.27365253601E+01  0.61007437684E+02  0.00000000000E+00 0.  1.
<mgrwt>
<rscale>  0 0.12688710E+04</rscale>
<asrwt>0</asrwt>
<pdfrwt beam="1">  1        1 0.84838457E-01 0.12688710E+04</pdfrwt>
<pdfrwt beam="2">  1       -1 0.11229373E+00 0.12688710E+04</pdfrwt>
<totfact> 0.27668787E+01</totfact>
</mgrwt>
</event>
<event>
12    1  0.4820219E-008  0.1630010E+04  0.7818608E-02  0.8802321E-01
          2   -1    0    0  501    0  0.00000000000E+00  0.00000000000E+00  0.72051663327E+03  0.72051663327E+03  0.00000000000E+00 0. -1.
         -2   -1    0    0    0  501 -0.00000000000E+00 -0.00000000000E+00 -0.92188498958E+03  0.92188498958E+03  0.00000000000E+00 0.  1.
         23    2    1    2    0    0 -0.54430680477E+03  0.48404883717E+02 -0.19006178882E+03  0.58560061530E+03  0.90507826115E+02 0.  0.
        254    2    1    2    0    0  0.54430680477E+03 -0.48404883717E+02 -0.11306567480E+02  0.10568010076E+04  0.90448195151E+03 0.  0.
         23    2    4    4    0    0  0.75883449993E+03 -0.12287146188E+03 -0.12987728988E+03  0.78543473913E+03  0.95459020423E+02 0.  0.
         23    2    4    4    0    0 -0.21452769516E+03  0.74466578163E+02  0.11857072240E+03  0.27136626842E+03  0.89516658632E+02 0.  0.
         11    1    3    3    0    0 -0.32243887044E+03  0.41376993332E+02 -0.15756402212E+03  0.36125517548E+03  0.00000000000E+00 0.  1.
        -11    1    3    3    0    0 -0.22186793433E+03  0.70278903854E+01 -0.32497766701E+02  0.22434543982E+03  0.00000000000E+00 0. -1.
          1    1    6    6  502    0 -0.54129645130E+02  0.63324376558E+02  0.40643865704E+02  0.92692604709E+02  0.00000000000E+00 0. -1.
          1    1    5    5  503    0  0.64356030364E+03 -0.12377076629E+03 -0.81442738828E+02  0.66039532608E+03  0.00000000000E+00 0. -1.
         -1    1    5    5    0  503  0.11527419629E+03  0.89930441400E+00 -0.48434551056E+02  0.12503941305E+03  0.00000000000E+00 0.  1.
         -1    1    6    6    0  502 -0.16039805003E+03  0.11142201605E+02  0.77926856699E+02  0.17867366371E+03  0.00000000000E+00 0.  1.
<mgrwt>
<rscale>  0 0.16300104E+04</rscale>
<asrwt>0</asrwt>
<pdfrwt beam="1">  1        2 0.11084871E+00 0.16300104E+04</pdfrwt>
<pdfrwt beam="2">  1       -2 0.14182846E+00 0.16300104E+04</pdfrwt>
<totfact> 0.13113140E+01</totfact>
</mgrwt>
</event>
<event>
12    1  0.4820219E-008  0.2442875E+04  0.7818608E-02  0.8423624E-01
         -1   -1    0    0    0  501 -0.00000000000E+00  0.00000000000E+00  0.83903744253E+03  0.83903744253E+03  0.00000000000E+00 0.  1.
          1   -1    0    0  501    0  0.00000000000E+00 -0.00000000000E+00 -0.17781196974E+04  0.17781196974E+04  0.00000000000E+00 0. -1.
         23    2    1    2    0    0  0.59702827730E+03 -0.81652768014E+03 -0.93499880585E+02  0.10199481366E+04  0.91606536017E+02 0.  0.
        254    2    1    2    0    0 -0.59702827730E+03  0.81652768014E+03 -0.84558237429E+03  0.15972090033E+04  0.90161346051E+03 0.  0.
         23    2    4    4    0    0 -0.76281610587E+03  0.63202408020E+03 -0.88285294450E+03  0.13302588746E+04  0.93896231964E+02 0.  0.
         23    2    4    4    0    0  0.16578782857E+03  0.18450359994E+03  0.37270570219E+02  0.26695012874E+03  0.91356955617E+02 0.  0.
         13    1    3    3    0    0  0.48730750716E+03 -0.68714756554E+03 -0.45416548966E+02  0.84362494409E+03  0.00000000000E+00 0.  1.
        -13    1    3    3    0    0  0.10972077015E+03 -0.12938011460E+03 -0.48083331619E+02  0.17632319256E+03  0.00000000000E+00 0. -1.
          4    1    5    5  502    0 -0.45866399254E+03  0.42665501073E+03 -0.51937140448E+03  0.81372834043E+03  0.00000000000E+00 0.  1.
          1    1    6    6  503    0  0.10518757881E+03  0.17324172330E+03  0.30060235961E+02  0.20489201842E+03  0.00000000000E+00 0. -1.
         -4    1    5    5    0  502 -0.30415211333E+03  0.20536906947E+03 -0.36348154003E+03  0.51653053412E+03  0.00000000000E+00 0. -1.
         -1    1    6    6    0  503  0.60600249758E+02  0.11261876639E+02  0.72103342581E+01  0.62058110318E+02  0.00000000000E+00 0.  1.
<mgrwt>
<rscale>  0 0.24428745E+04</rscale>
<asrwt>0</asrwt>
<pdfrwt beam="1">  1        1 0.27355687E+00 0.24428745E+04</pdfrwt>
<pdfrwt beam="2">  1       -1 0.12908269E+00 0.24428745E+04</pdfrwt>
<totfact> 0.19432673E+00</totfact>
</mgrwt>
</event>
<event>
12    1  0.4820219E-008  0.1850427E+04  0.7818608E-02  0.8679933E-01
         -2   -1    0    0    0  501 -0.00000000000E+00  0.00000000000E+00  0.38631670799E+03  0.38631670799E+03  0.00000000000E+00 0.  1.
          2   -1    0    0  501    0  0.00000000000E+00 -0.00000000000E+00 -0.22158495331E+04  0.22158495331E+04  0.00000000000E+00 0. -1.
         23    2    1    2    0    0  0.23538800941E+03 -0.21432099661E+03 -0.15806524598E+04  0.16150544343E+04  0.92723364898E+02 0.  0.
        254    2    1    2    0    0 -0.23538800941E+03  0.21432099661E+03 -0.24888036532E+03  0.98711180683E+03  0.90061494457E+03 0.  0.
         23    2    4    4    0    0 -0.95898579029E+02 -0.80757316899E+02 -0.52675782316E+03  0.54885559349E+03  0.89723890634E+02 0.  0.
         23    2    4    4    0    0 -0.13948943038E+03  0.29507831351E+03  0.27787745784E+03  0.43825621335E+03  0.91236586238E+02 0.  0.
         11    1    3    3    0    0  0.19643241557E+03 -0.19089194909E+03 -0.11574875433E+04  0.11894548512E+04  0.00000000000E+00 0. -1.
        -11    1    3    3    0    0  0.38955593839E+02 -0.23429047523E+02 -0.42316491652E+03  0.42559958310E+03  0.00000000000E+00 0.  1.
          4    1    5    5  502    0 -0.11191477262E+03 -0.57271999879E+02 -0.43348473043E+03  0.45134688413E+03  0.00000000000E+00 0. -1.
          3    1    6    6  503    0 -0.97155372127E+02  0.27280006906E+03  0.22329508037E+03  0.36567709380E+03  0.00000000000E+00 0. -1.
         -4    1    5    5    0  502  0.16016193591E+02 -0.23485317020E+02 -0.93273092729E+02  0.97508709354E+02  0.00000000000E+00 0.  1.
         -3    1    6    6    0  503 -0.42334058249E+02  0.22278244452E+02  0.54582377472E+02  0.72579119547E+02  0.00000000000E+00 0.  1.
<mgrwt>
<rscale>  0 0.18504267E+04</rscale>
<asrwt>0</asrwt>
<pdfrwt beam="1">  1        2 0.34089993E+00 0.18504267E+04</pdfrwt>
<pdfrwt beam="2">  1       -2 0.59433340E-01 0.18504267E+04</pdfrwt>
<totfact> 0.12571945E+01</totfact>
</mgrwt>
</event>
<event>
12    1  0.4820219E-008  0.1631122E+04  0.7818608E-02  0.8801653E-01
         -2   -1    0    0    0  501 -0.00000000000E+00  0.00000000000E+00  0.13342443459E+04  0.13342443459E+04  0.00000000000E+00 0. -1.
          2   -1    0    0  501    0  0.00000000000E+00 -0.00000000000E+00 -0.49851439517E+03  0.49851439517E+03  0.00000000000E+00 0.  1.
         23    2    1    2    0    0 -0.47268800502E+03  0.68652621724E+02 -0.39822400447E+02  0.48781416068E+03  0.90717689694E+02 0.  0.
        254    2    1    2    0    0  0.47268800502E+03 -0.68652621724E+02  0.87555235117E+03  0.13449445804E+04  0.90229533531E+03 0.  0.
         23    2    4    4    0    0  0.20660355798E+03  0.24154824684E+03  0.86499318769E+03  0.92608008272E+03  0.91545175367E+02 0.  0.
         23    2    4    4    0    0  0.26608444704E+03 -0.31020086857E+03  0.10559163484E+02  0.41886449768E+03  0.91161722570E+02 0.  0.
         13    1    3    3    0    0 -0.24810834281E+03  0.22831324914E+02  0.22826273854E+02  0.25020003586E+03  0.00000000000E+00 0.  1.
        -13    1    3    3    0    0 -0.22457966222E+03  0.45821296810E+02 -0.62648674301E+02  0.23761412482E+03  0.00000000000E+00 0. -1.
          2    1    5    5  502    0  0.13274841905E+03  0.21177090593E+03  0.68819463923E+03  0.73217547133E+03  0.00000000000E+00 0. -1.
          3    1    6    6  503    0  0.23313362102E+03 -0.29310777281E+03 -0.13271884268E+02  0.37475271132E+03  0.00000000000E+00 0. -1.
         -2    1    5    5    0  502  0.73855138931E+02  0.29777340917E+02  0.17679854846E+03  0.19390461138E+03  0.00000000000E+00 0.  1.
         -3    1    6    6    0  503  0.32950826026E+02 -0.17093095753E+02  0.23831047752E+02  0.44111786352E+02  0.00000000000E+00 0.  1.
<mgrwt>
<rscale>  0 0.16311223E+04</rscale>
<asrwt>0</asrwt>
<pdfrwt beam="1">  1        2 0.76694523E-01 0.16311223E+04</pdfrwt>
<pdfrwt beam="2">  1       -2 0.20526836E+00 0.16311223E+04</pdfrwt>
<totfact> 0.72564624E+00</totfact>
</mgrwt>
</event>
<event>
12    1  0.4820219E-008  0.1033820E+04  0.7818608E-02  0.9272210E-01
         -2   -1    0    0    0  501 -0.00000000000E+00  0.00000000000E+00  0.22043387809E+03  0.22043387809E+03  0.00000000000E+00 0.  1.
          2   -1    0    0  501    0  0.00000000000E+00 -0.00000000000E+00 -0.12121365297E+04  0.12121365297E+04  0.00000000000E+00 0. -1.
         23    2    1    2    0    0  0.31897821704E+02 -0.10503558425E+03 -0.40094260602E+02  0.14547851164E+03  0.86640075189E+02 0.  0.
        254    2    1    2    0    0 -0.31897821704E+02  0.10503558425E+03 -0.95160839102E+03  0.12870918962E+04  0.85964939033E+03 0.  0.
         23    2    4    4    0    0 -0.17448449903E+02  0.19881187739E+03  0.89957215532E+02  0.23712257538E+03  0.91127406044E+02 0.  0.
         23    2    4    4    0    0 -0.14449371800E+02 -0.93776293143E+02 -0.10415656066E+04  0.10499693208E+04  0.92595271503E+02 0.  0.
         13    1    3    3    0    0  0.55911935015E+02 -0.88123221600E+02 -0.12380354950E+02  0.10509576514E+03  0.00000000000E+00 0.  1.
        -13    1    3    3    0    0 -0.24014113311E+02 -0.16912362651E+02 -0.27713905652E+02  0.40382746502E+02  0.00000000000E+00 0. -1.
          4    1    5    5  502    0 -0.32817554141E+02  0.19872469128E+03  0.73000810370E+02  0.21423728223E+03  0.00000000000E+00 0. -1.
          3    1    6    6  503    0 -0.15979564443E+02 -0.72819450370E+02 -0.10052655036E+04  0.10080261661E+04  0.00000000000E+00 0. -1.
         -4    1    5    5    0  502  0.15369104238E+02  0.87186115571E-01  0.16956405162E+02  0.22885293149E+02  0.00000000000E+00 0.  1.
         -3    1    6    6    0  503  0.15301926424E+01 -0.20956842773E+02 -0.36300102948E+02  0.41943154657E+02  0.00000000000E+00 0.  1.
<mgrwt>
<rscale>  0 0.10338200E+04</rscale>
<asrwt>0</asrwt>
<pdfrwt beam="1">  1        2 0.18648254E+00 0.10338200E+04</pdfrwt>
<pdfrwt beam="2">  1       -2 0.33912905E-01 0.10338200E+04</pdfrwt>
<totfact> 0.15086541E+02</totfact>
</mgrwt>
</event>
<event>
12    1  0.4820219E-008  0.1758443E+04  0.7818608E-02  0.8728717E-01
         -1   -1    0    0    0  501 -0.00000000000E+00  0.00000000000E+00  0.61000064032E+03  0.61000064032E+03  0.00000000000E+00 0.  1.
          1   -1    0    0  501    0  0.00000000000E+00 -0.00000000000E+00 -0.12672617595E+04  0.12672617595E+04  0.00000000000E+00 0. -1.
         23    2    1    2    0    0  0.67658968158E+02 -0.19357541126E+03 -0.89815300264E+03  0.92651652225E+03  0.98513319027E+02 0.  0.
        254    2    1    2    0    0 -0.67658968158E+02  0.19357541126E+03  0.24089188345E+03  0.95074587758E+03  0.89657105040E+03 0.  0.
         23    2    4    4    0    0  0.69914726644E+02 -0.33809962051E+03  0.42713490732E+02  0.35992391375E+03  0.92311207353E+02 0.  0.
         23    2    4    4    0    0 -0.13757369480E+03  0.53167503177E+03  0.19817839272E+03  0.59082196383E+03  0.90504456783E+02 0.  0.
         13    1    3    3    0    0 -0.13049852486E+02 -0.10887841936E+03 -0.47449392684E+03  0.48700030335E+03  0.00000000000E+00 0.  1.
        -13    1    3    3    0    0  0.80708820644E+02 -0.84696991894E+02 -0.42365907580E+03  0.43951621890E+03  0.00000000000E+00 0. -1.
          4    1    5    5  502    0  0.31169969848E+02 -0.42193392296E+02  0.31692763115E+02  0.61288503062E+02  0.00000000000E+00 0.  1.
          1    1    6    6  503    0 -0.10853220599E+03  0.48834649705E+03  0.19967700193E+03  0.53863943972E+03  0.00000000000E+00 0. -1.
         -4    1    5    5    0  502  0.38744756796E+02 -0.29590622822E+03  0.11020727617E+02  0.29863541069E+03  0.00000000000E+00 0. -1.
         -1    1    6    6    0  503 -0.29041488812E+02  0.43328534720E+02 -0.14986092162E+01  0.52182524115E+02  0.00000000000E+00 0.  1.
<mgrwt>
<rscale>  0 0.17584430E+04</rscale>
<asrwt>0</asrwt>
<pdfrwt beam="1">  1        1 0.19496335E+00 0.17584430E+04</pdfrwt>
<pdfrwt beam="2">  1       -1 0.93846252E-01 0.17584430E+04</pdfrwt>
<totfact> 0.99519471E+00</totfact>
</mgrwt>
</event>
<event>
12    1  0.4820219E-008  0.2061328E+04  0.7818608E-02  0.8578472E-01
          3   -1    0    0  501    0  0.00000000000E+00  0.00000000000E+00  0.11269729956E+04  0.11269729956E+04  0.00000000000E+00 0. -1.
         -3   -1    0    0    0  501 -0.00000000000E+00 -0.00000000000E+00 -0.94258583260E+03  0.94258583260E+03  0.00000000000E+00 0.  1.
         23    2    1    2    0    0 -0.67342156868E+03  0.48536697462E+03  0.71260548740E+02  0.83809304886E+03  0.90797486309E+02 0.  0.
        254    2    1    2    0    0  0.67342156868E+03 -0.48536697462E+03  0.11312661426E+03  0.12314657793E+04  0.90257001146E+03 0.  0.
         23    2    4    4    0    0  0.28723645238E+02 -0.32631189416E+03  0.37835037494E+03  0.51065747410E+03  0.10157533936E+03 0.  0.
         23    2    4    4    0    0  0.64469792345E+03 -0.15905508046E+03 -0.26522376069E+03  0.72080830523E+03  0.91033172757E+02 0.  0.
         13    1    3    3    0    0 -0.21821042301E+03  0.16134179184E+03  0.66092776218E+02  0.27931204337E+03  0.00000000000E+00 0.  1.
        -13    1    3    3    0    0 -0.45521114567E+03  0.32402518278E+03  0.51677725220E+01  0.55878100549E+03  0.00000000000E+00 0. -1.
          4    1    5    5  502    0  0.38232997619E+02 -0.17264971407E+03  0.26861563865E+03  0.32159609326E+03  0.00000000000E+00 0.  1.
          3    1    6    6  503    0  0.82777810847E+01 -0.12881432725E+02  0.16225458687E+01  0.15397585000E+02  0.00000000000E+00 0. -1.
         -4    1    5    5    0  502 -0.95093523814E+01 -0.15366218010E+03  0.10973473629E+03  0.18906138084E+03  0.00000000000E+00 0. -1.
         -3    1    6    6    0  503  0.63642014236E+03 -0.14617364774E+03 -0.26684630656E+03  0.70541072023E+03  0.00000000000E+00 0.  1.
<mgrwt>
<rscale>  0 0.20613285E+04</rscale>
<asrwt>0</asrwt>
<pdfrwt beam="1">  1        3 0.17338046E+00 0.20613285E+04</pdfrwt>
<pdfrwt beam="2">  1       -3 0.14501320E+00 0.20613285E+04</pdfrwt>
<totfact> 0.18711561E-01</totfact>
</mgrwt>
</event>
<event>
12    1  0.4820219E-008  0.1861121E+04  0.7818608E-02  0.8674454E-01
          2   -1    0    0  501    0  0.00000000000E+00  0.00000000000E+00  0.13664636041E+04  0.13664636041E+04  0.00000000000E+00 0. -1.
         -2   -1    0    0    0  501 -0.00000000000E+00 -0.00000000000E+00 -0.63371120718E+03  0.63371120718E+03  0.00000000000E+00 0.  1.
         23    2    1    2    0    0 -0.49860923729E+03 -0.26588660941E+03 -0.17940363428E+03  0.59927514079E+03  0.87396623477E+02 0.  0.
        254    2    1    2    0    0  0.49860923729E+03  0.26588660941E+03  0.91215603122E+03  0.14008996705E+04  0.90065776018E+03 0.  0.
         23    2    4    4    0    0 -0.60225382694E+02  0.45295081850E+03  0.43958221654E+03  0.63991801132E+03  0.86434920116E+02 0.  0.
         23    2    4    4    0    0  0.55883461999E+03 -0.18706420909E+03  0.47257381468E+03  0.76098165919E+03  0.92075645468E+02 0.  0.
         11    1    3    3    0    0 -0.37741000171E+03 -0.23767504256E+03 -0.15697504467E+03  0.47283073070E+03  0.00000000000E+00 0.  1.
        -11    1    3    3    0    0 -0.12119923558E+03 -0.28211566854E+02 -0.22428589605E+02  0.12644441009E+03  0.00000000000E+00 0. -1.
          1    1    5    5  502    0 -0.27528423176E+02  0.99986495864E+02  0.56913966392E+02  0.11829756129E+03  0.00000000000E+00 0. -1.
          3    1    6    6  503    0  0.43563680721E+03 -0.16511883590E+03  0.32793580966E+03  0.56972410255E+03  0.00000000000E+00 0.  1.
         -1    1    5    5    0  502 -0.32696959518E+02  0.35296432264E+03  0.38266825014E+03  0.52162045002E+03  0.00000000000E+00 0.  1.
         -3    1    6    6    0  503  0.12319781277E+03 -0.21945373189E+02  0.14463800503E+03  0.19125755665E+03  0.00000000000E+00 0. -1.
<mgrwt>
<rscale>  0 0.18611215E+04</rscale>
<asrwt>0</asrwt>
<pdfrwt beam="1">  1        2 0.21022517E+00 0.18611215E+04</pdfrwt>
<pdfrwt beam="2">  1       -2 0.97494032E-01 0.18611215E+04</pdfrwt>
<totfact> 0.12465646E+01</totfact>
</mgrwt>
</event>
<event>
12    1  0.4820219E-008  0.1062766E+04  0.7818608E-02  0.9242262E-01
         -2   -1    0    0    0  501 -0.00000000000E+00  0.00000000000E+00  0.19280173590E+03  0.19280173590E+03  0.00000000000E+00 0.  1.
          2   -1    0    0  501    0  0.00000000000E+00 -0.00000000000E+00 -0.14645502329E+04  0.14645502329E+04  0.00000000000E+00 0. -1.
         23    2    1    2    0    0 -0.99595787461E+02 -0.50832189106E+02 -0.24159099004E+03  0.28209091160E+03  0.93305110308E+02 0.  0.
        254    2    1    2    0    0  0.99595787461E+02  0.50832189106E+02 -0.10301575070E+04  0.13752610572E+04  0.90422079936E+03 0.  0.
         23    2    4    4    0    0  0.55716142361E+02  0.33144560261E+03 -0.51529621213E+02  0.35226363579E+03  0.92053740986E+02 0.  0.
         23    2    4    4    0    0  0.43879645100E+02 -0.28061341351E+03 -0.97862788574E+03  0.10229974214E+04  0.90232335478E+02 0.  0.
         13    1    3    3    0    0  0.35497174269E+01  0.18738451806E+02 -0.51366945189E+02  0.54793185050E+02  0.00000000000E+00 0.  1.
        -13    1    3    3    0    0 -0.10314550489E+03 -0.69570640911E+02 -0.19022404485E+03  0.22729772655E+03  0.00000000000E+00 0. -1.
          2    1    5    5  502    0  0.13728533695E+02  0.24781059154E+02 -0.31093700069E+02  0.42064138101E+02  0.00000000000E+00 0. -1.
          1    1    6    6  503    0  0.35042352612E+02 -0.36472068890E+02 -0.11837201791E+03  0.12872495061E+03  0.00000000000E+00 0. -1.
         -2    1    5    5    0  502  0.41987608666E+02  0.30666454346E+03 -0.20435921144E+02  0.31019949769E+03  0.00000000000E+00 0.  1.
         -1    1    6    6    0  503  0.88372924884E+01 -0.24414134462E+03 -0.86025586783E+03  0.89427247080E+03  0.00000000000E+00 0.  1.
<mgrwt>
<rscale>  0 0.10627659E+04</rscale>
<asrwt>0</asrwt>
<pdfrwt beam="1">  1        2 0.22531542E+00 0.10627659E+04</pdfrwt>
<pdfrwt beam="2">  1       -2 0.29661805E-01 0.10627659E+04</pdfrwt>
<totfact> 0.13842023E+02</totfact>
</mgrwt>
</event>
<event>
12    1  0.4820219E-008  0.1650398E+04  0.7818608E-02  0.8790171E-01
         -2   -1    0    0    0  501 -0.00000000000E+00  0.00000000000E+00  0.13148371735E+04  0.13148371735E+04  0.00000000000E+00 0.  1.
          2   -1    0    0  501    0  0.00000000000E+00 -0.00000000000E+00 -0.51789950750E+03  0.51789950750E+03  0.00000000000E+00 0. -1.
         23    2    1    2    0    0  0.18711017509E+02 -0.56002461618E+03  0.18341777757E+03  0.59661118001E+03  0.91242238451E+02 0.  0.
        254    2    1    2    0    0 -0.18711017509E+02  0.56002461618E+03  0.61351988840E+03  0.12361255010E+04  0.91521687472E+03 0.  0.
         23    2    4    4    0    0 -0.25332448941E+03  0.39752185358E+03 -0.73185827553E+02  0.48660466734E+03  0.96078176021E+02 0.  0.
         23    2    4    4    0    0  0.23461347190E+03  0.16250276259E+03  0.68670571595E+03  0.74952083363E+03  0.93627510221E+02 0.  0.
         13    1    3    3    0    0  0.46147519601E+01 -0.82255183952E+02  0.62962755676E+02  0.10368953575E+03  0.00000000000E+00 0. -1.
        -13    1    3    3    0    0  0.14096265549E+02 -0.47776943222E+03  0.12045502190E+03  0.49292164425E+03  0.00000000000E+00 0.  1.
          2    1    5    5  502    0 -0.92853793621E+02  0.76557042191E+02 -0.37187680845E+02  0.12595924462E+03  0.00000000000E+00 0.  1.
          3    1    6    6  503    0 -0.63174590593E+01 -0.68090120981E-01  0.40103708961E+02  0.40598305355E+02  0.00000000000E+00 0. -1.
         -2    1    5    5    0  502 -0.16047069579E+03  0.32096481139E+03 -0.35998146708E+02  0.36064542272E+03  0.00000000000E+00 0. -1.
         -3    1    6    6    0  503  0.24093093096E+03  0.16257085271E+03  0.64660200699E+03  0.70892252827E+03  0.00000000000E+00 0.  1.
<mgrwt>
<rscale>  0 0.16503982E+04</rscale>
<asrwt>0</asrwt>
<pdfrwt beam="1">  1        2 0.79676848E-01 0.16503982E+04</pdfrwt>
<pdfrwt beam="2">  1       -2 0.20228264E+00 0.16503982E+04</pdfrwt>
<totfact> 0.72472099E+00</totfact>
</mgrwt>
</event>
<event>
12    1  0.4820219E-008  0.1544448E+04  0.7818608E-02  0.8855422E-01
         -1   -1    0    0    0  501 -0.00000000000E+00  0.00000000000E+00  0.14990789957E+04  0.14990789957E+04  0.00000000000E+00 0.  1.
          1   -1    0    0  501    0  0.00000000000E+00 -0.00000000000E+00 -0.39779773512E+03  0.39779773512E+03  0.00000000000E+00 0. -1.
         23    2    1    2    0    0 -0.33590739902E+03  0.38230529406E+02 -0.10916368315E+03  0.36691663254E+03  0.91737404669E+02 0.  0.
        254    2    1    2    0    0  0.33590739902E+03 -0.38230529406E+02  0.12104449437E+04  0.15299600983E+04  0.87252827256E+03 0.  0.
         23    2    4    4    0    0 -0.18038319614E+03 -0.15586967121E+03  0.62627569515E+02  0.26260193209E+03  0.90576544542E+02 0.  0.
         23    2    4    4    0    0  0.51629059517E+03  0.11763914181E+03  0.11478173742E+04  0.12673581662E+04  0.91197864530E+02 0.  0.
         11    1    3    3    0    0 -0.26367360831E+03  0.27716145046E+02 -0.12357746579E+03  0.29251213046E+03  0.00000000000E+00 0. -1.
        -11    1    3    3    0    0 -0.72233790708E+02  0.10514384360E+02  0.14413782638E+02  0.74404502071E+02  0.00000000000E+00 0.  1.
          2    1    5    5  502    0 -0.78135615483E+02 -0.51011958512E+02 -0.18568485871E+02  0.95142960778E+02  0.00000000000E+00 0.  1.
          3    1    6    6  503    0  0.23754916067E+03  0.93592533940E+02  0.49040175226E+03  0.55288610470E+03  0.00000000000E+00 0. -1.
         -2    1    5    5    0  502 -0.10224758066E+03 -0.10485771270E+03  0.81196055386E+02  0.16745897131E+03  0.00000000000E+00 0. -1.
         -3    1    6    6    0  503  0.27874143449E+03  0.24046607866E+02  0.65741562196E+03  0.71447206149E+03  0.00000000000E+00 0.  1.
<mgrwt>
<rscale>  0 0.15444484E+04</rscale>
<asrwt>0</asrwt>
<pdfrwt beam="1">  1        1 0.61199652E-01 0.15444484E+04</pdfrwt>
<pdfrwt beam="2">  1       -1 0.23062754E+00 0.15444484E+04</pdfrwt>
<totfact> 0.54471394E+00</totfact>
</mgrwt>
</event>
<event>
12    1  0.4820219E-008  0.1302378E+04  0.7818608E-02  0.9027681E-01
         -2   -1    0    0    0  501 -0.00000000000E+00  0.00000000000E+00  0.59548199232E+03  0.59548199232E+03  0.00000000000E+00 0.  1.
          2   -1    0    0  501    0  0.00000000000E+00 -0.00000000000E+00 -0.71210785376E+03  0.71210785376E+03  0.00000000000E+00 0. -1.
         23    2    1    2    0    0  0.26335891016E+03 -0.11966262681E+03  0.11148268831E+03  0.32334600228E+03  0.91908582718E+02 0.  0.
        254    2    1    2    0    0 -0.26335891016E+03  0.11966262681E+03 -0.22810854975E+03  0.98424384380E+03  0.91270223719E+03 0.  0.
         23    2    4    4    0    0 -0.22339124784E+03  0.19232347295E+03  0.30636130603E+03  0.43471536328E+03  0.90709588150E+02 0.  0.
         23    2    4    4    0    0 -0.39967662323E+02 -0.72660846139E+02 -0.53446985578E+03  0.54952848052E+03  0.97193166277E+02 0.  0.
         11    1    3    3    0    0  0.37319362045E+02 -0.35392773545E+02  0.55559998817E+02  0.75711932158E+02  0.00000000000E+00 0. -1.
        -11    1    3    3    0    0  0.22603954812E+03 -0.84269853268E+02  0.55922689495E+02  0.24763407012E+03  0.00000000000E+00 0.  1.
          4    1    5    5  502    0 -0.17616264970E+03  0.10128253122E+03  0.17585770154E+03  0.26873288126E+03  0.00000000000E+00 0. -1.
          3    1    6    6  503    0  0.32719605169E+01  0.14520166928E+02 -0.21623936695E+03  0.21675102028E+03  0.00000000000E+00 0. -1.
         -4    1    5    5    0  502 -0.47228598141E+02  0.91040941733E+02  0.13050360449E+03  0.16598248202E+03  0.00000000000E+00 0.  1.
         -3    1    6    6    0  503 -0.43239622840E+02 -0.87181013067E+02 -0.31823048883E+03  0.33277746024E+03  0.00000000000E+00 0.  1.
<mgrwt>
<rscale>  0 0.13023784E+04</rscale>
<asrwt>0</asrwt>
<pdfrwt beam="1">  1        2 0.10955505E+00 0.13023784E+04</pdfrwt>
<pdfrwt beam="2">  1       -2 0.91612614E-01 0.13023784E+04</pdfrwt>
<totfact> 0.39862115E+01</totfact>
</mgrwt>
</event>
<event>
12    1  0.4820219E-008  0.1462766E+04  0.7818608E-02  0.8909598E-01
         -2   -1    0    0    0  501 -0.00000000000E+00  0.00000000000E+00  0.58061906970E+03  0.58061906970E+03  0.00000000000E+00 0.  1.
          2   -1    0    0  501    0  0.00000000000E+00 -0.00000000000E+00 -0.92129418051E+03  0.92129418051E+03  0.00000000000E+00 0. -1.
         23    2    1    2    0    0  0.38035261976E+02 -0.46886036063E+03 -0.15043602689E+03  0.50212801802E+03  0.90690845027E+02 0.  0.
        254    2    1    2    0    0 -0.38035261976E+02  0.46886036063E+03 -0.19023908392E+03  0.99978523220E+03  0.86145393524E+03 0.  0.
         23    2    4    4    0    0  0.53269544212E+02 -0.16950703364E+03 -0.27551605723E+03  0.34296218982E+03  0.10071587294E+03 0.  0.
         23    2    4    4    0    0 -0.91304806188E+02  0.63836739426E+03  0.85276973313E+02  0.65682304237E+03  0.91076062292E+02 0.  0.
         11    1    3    3    0    0  0.13655941666E+02 -0.43833185916E+03 -0.14852485608E+03  0.46301289007E+03  0.00000000000E+00 0. -1.
        -11    1    3    3    0    0  0.24379320310E+02 -0.30528501464E+02 -0.19111708136E+01  0.39115127947E+02  0.00000000000E+00 0.  1.
          1    1    5    5  502    0 -0.24261268626E+02 -0.72992719842E+02 -0.13754776136E+03  0.15759420344E+03  0.00000000000E+00 0. -1.
          1    1    6    6  503    0 -0.12561318463E+02  0.28799995941E+03  0.73624318908E+02  0.29752697974E+03  0.00000000000E+00 0. -1.
         -1    1    5    5    0  502  0.77530812838E+02 -0.96514313797E+02 -0.13796829588E+03  0.18536798638E+03  0.00000000000E+00 0.  1.
         -1    1    6    6    0  503 -0.78743487726E+02  0.35036743486E+03  0.11652654405E+02  0.35929606263E+03  0.00000000000E+00 0.  1.
<mgrwt>
<rscale>  0 0.14627658E+04</rscale>
<asrwt>0</asrwt>
<pdfrwt beam="1">  1        2 0.14173757E+00 0.14627658E+04</pdfrwt>
<pdfrwt beam="2">  1       -2 0.89326011E-01 0.14627658E+04</pdfrwt>
<totfact> 0.29563597E+01</totfact>
</mgrwt>
</event>
<event>
12    1  0.4820219E-008  0.1148896E+04  0.7818608E-02  0.9158803E-01
          2   -1    0    0  501    0  0.00000000000E+00  0.00000000000E+00  0.13891725929E+04  0.13891725929E+04  0.00000000000E+00 0. -1.
         -2   -1    0    0    0  501 -0.00000000000E+00 -0.00000000000E+00 -0.23754466902E+03  0.23754466902E+03  0.00000000000E+00 0.  1.
         23    2    1    2    0    0 -0.32065062022E+02 -0.68279273290E+02  0.53577307556E+03  0.55045826856E+03  0.10129802351E+03 0.  0.
        254    2    1    2    0    0  0.32065062022E+02  0.68279273290E+02  0.61585484828E+03  0.10762589933E+04  0.87941230330E+03 0.  0.
         23    2    4    4    0    0 -0.24860624740E+03 -0.28539969316E+03  0.43199561317E+03  0.58215519736E+03  0.95007436050E+02 0.  0.
         23    2    4    4    0    0  0.28067130942E+03  0.35367896645E+03  0.18385923510E+03  0.49410379596E+03  0.80431011478E+02 0.  0.
         11    1    3    3    0    0 -0.34457080658E+01 -0.76222564256E+02  0.21176050950E+03  0.22508723995E+03  0.00000000000E+00 0. -1.
        -11    1    3    3    0    0 -0.28619353956E+02  0.79432909657E+01  0.32401256606E+03  0.32537102860E+03  0.00000000000E+00 0.  1.
          2    1    5    5  502    0 -0.16560890777E+03 -0.16239349794E+03  0.32472373882E+03  0.39905321081E+03  0.00000000000E+00 0.  1.
          4    1    6    6  503    0  0.51577935638E+02  0.11934820227E+03  0.38463484322E+02  0.13558656444E+03  0.00000000000E+00 0. -1.
         -2    1    5    5    0  502 -0.82997339636E+02 -0.12300619523E+03  0.10727187435E+03  0.18310198655E+03  0.00000000000E+00 0. -1.
         -4    1    6    6    0  503  0.22909337379E+03  0.23433076418E+03  0.14539575078E+03  0.35851723152E+03  0.00000000000E+00 0.  1.
<mgrwt>
<rscale>  0 0.11488961E+04</rscale>
<asrwt>0</asrwt>
<pdfrwt beam="1">  1        2 0.21371886E+00 0.11488961E+04</pdfrwt>
<pdfrwt beam="2">  1       -2 0.36545335E-01 0.11488961E+04</pdfrwt>
<totfact> 0.10236923E+02</totfact>
</mgrwt>
</event>
<event>
12    1  0.4820219E-008  0.2355822E+04  0.7818608E-02  0.8456231E-01
          2   -1    0    0  501    0  0.00000000000E+00  0.00000000000E+00  0.27454127345E+04  0.27454127345E+04  0.00000000000E+00 0. -1.
         -2   -1    0    0    0  501 -0.00000000000E+00 -0.00000000000E+00 -0.50537931983E+03  0.50537931983E+03  0.00000000000E+00 0.  1.
         23    2    1    2    0    0  0.78069841451E+03 -0.41548544121E+03  0.15920928344E+04  0.18235368523E+04  0.91700012560E+02 0.  0.
        254    2    1    2    0    0 -0.78069841451E+03  0.41548544121E+03  0.64794058034E+03  0.14272552020E+04  0.91384476242E+03 0.  0.
         23    2    4    4    0    0  0.18698866689E+03  0.27697987721E+02  0.19583029463E+03  0.28749634202E+03  0.92588888694E+02 0.  0.
         23    2    4    4    0    0 -0.96768708140E+03  0.38778745349E+03  0.45211028571E+03  0.11397588600E+04  0.88595439764E+02 0.  0.
         13    1    3    3    0    0  0.54275156146E+03 -0.25988116315E+03  0.11497250678E+04  0.12976845564E+04  0.00000000000E+00 0. -1.
        -13    1    3    3    0    0  0.23794685305E+03 -0.15560427806E+03  0.44236776655E+03  0.52585229591E+03  0.00000000000E+00 0.  1.
          2    1    5    5  502    0  0.40488534766E+02  0.45568699294E+02  0.75748708255E+02  0.97230111618E+02  0.00000000000E+00 0. -1.
          1    1    6    6  503    0 -0.12502877036E+03  0.21291305056E+02  0.66700645527E+02  0.14329860154E+03  0.00000000000E+00 0. -1.
         -2    1    5    5    0  502  0.14650013212E+03 -0.17870711573E+02  0.12008158638E+03  0.19026623040E+03  0.00000000000E+00 0.  1.
         -1    1    6    6    0  503 -0.84265831104E+03  0.36649614843E+03  0.38540964018E+03  0.99646025848E+03  0.00000000000E+00 0.  1.
<mgrwt>
<rscale>  0 0.23558224E+04</rscale>
<asrwt>0</asrwt>
<pdfrwt beam="1">  1        2 0.42237118E+00 0.23558224E+04</pdfrwt>
<pdfrwt beam="2">  1       -2 0.77750666E-01 0.23558224E+04</pdfrwt>
<totfact> 0.33180704E+00</totfact>
</mgrwt>
</event>
<event>
12    1  0.4820219E-008  0.1998220E+04  0.7818608E-02  0.8607453E-01
          2   -1    0    0  501    0  0.00000000000E+00  0.00000000000E+00  0.17447838469E+04  0.17447838469E+04  0.00000000000E+00 0. -1.
         -2   -1    0    0    0  501 -0.00000000000E+00 -0.00000000000E+00 -0.57211743968E+03  0.57211743968E+03  0.00000000000E+00 0.  1.
         23    2    1    2    0    0  0.36005144563E+03 -0.70393625695E+03  0.38889550025E+03  0.88570310034E+03  0.89816337599E+02 0.  0.
        254    2    1    2    0    0 -0.36005144563E+03  0.70393625695E+03  0.78377090696E+03  0.14311981862E+04  0.89937095591E+03 0.  0.
         23    2    4    4    0    0 -0.78868421085E+01  0.70177005289E+03  0.18787477604E+03  0.73303302555E+03  0.97452940729E+02 0.  0.
         23    2    4    4    0    0 -0.35216460352E+03  0.21662040532E+01  0.59589613092E+03  0.69816516068E+03  0.91201931633E+02 0.  0.
         13    1    3    3    0    0  0.18593111600E+02 -0.32253691403E+02 -0.11395160063E+01  0.37246515338E+02  0.00000000000E+00 0.  1.
        -13    1    3    3    0    0  0.34145833403E+03 -0.67168256554E+03  0.39003501626E+03  0.84845658501E+03  0.00000000000E+00 0. -1.
          4    1    5    5  502    0  0.33171948263E+02  0.25557508996E+03  0.99867511182E+02  0.27639197627E+03  0.00000000000E+00 0. -1.
          1    1    6    6  503    0 -0.27511664113E+03 -0.36043264371E+02  0.44219052852E+03  0.52203519675E+03  0.00000000000E+00 0. -1.
         -4    1    5    5    0  502 -0.41058790371E+02  0.44619496293E+03  0.88007264857E+02  0.45664104927E+03  0.00000000000E+00 0.  1.
         -1    1    6    6    0  503 -0.77047962389E+02  0.38209468424E+02  0.15370560240E+03  0.17612996394E+03  0.00000000000E+00 0.  1.
<mgrwt>
<rscale>  0 0.19982205E+04</rscale>
<asrwt>0</asrwt>
<pdfrwt beam="1">  1        2 0.26842828E+00 0.19982205E+04</pdfrwt>
<pdfrwt beam="2">  1       -2 0.88018068E-01 0.19982205E+04</pdfrwt>
<totfact> 0.95717202E+00</totfact>
</mgrwt>
</event>
<event>
12    1  0.4820219E-008  0.1254497E+04  0.7818608E-02  0.9066449E-01
         -3   -1    0    0    0  501 -0.00000000000E+00  0.00000000000E+00  0.43519809745E+03  0.43519809745E+03  0.00000000000E+00 0.  1.
          3   -1    0    0  501    0  0.00000000000E+00 -0.00000000000E+00 -0.90404948127E+03  0.90404948127E+03  0.00000000000E+00 0. -1.
         23    2    1    2    0    0  0.10983141177E+03 -0.17388490539E+03  0.10606140641E+03  0.25008210823E+03  0.94832165383E+02 0.  0.
        254    2    1    2    0    0 -0.10983141177E+03  0.17388490539E+03 -0.57491279024E+03  0.10891654705E+04  0.90191895778E+03 0.  0.
         23    2    4    4    0    0  0.36474002351E+03 -0.69672807577E+02 -0.26780176679E+03  0.46686947999E+03  0.91431614818E+02 0.  0.
         23    2    4    4    0    0 -0.47457143528E+03  0.24355771297E+03 -0.30711102344E+03  0.62229599050E+03  0.91633576525E+02 0.  0.
         11    1    3    3    0    0  0.82163141477E+02 -0.59495753675E+02  0.80860420399E+02  0.12972638170E+03  0.00000000000E+00 0.  1.
        -11    1    3    3    0    0  0.27668270295E+02 -0.11438915172E+03  0.25200986014E+02  0.12035572653E+03  0.00000000000E+00 0. -1.
          2    1    6    6  502    0 -0.19978062511E+03  0.11026972421E+03 -0.18349159361E+03  0.29281542850E+03  0.00000000000E+00 0. -1.
          2    1    5    5  503    0  0.46940654624E+02 -0.29300278277E+02 -0.74193809785E+02  0.92556214130E+02  0.00000000000E+00 0.  1.
         -2    1    5    5    0  503  0.31779936888E+03 -0.40372529299E+02 -0.19360795701E+03  0.37431326586E+03  0.00000000000E+00 0. -1.
         -2    1    6    6    0  502 -0.27479081017E+03  0.13328798876E+03 -0.12361942984E+03  0.32948056200E+03  0.00000000000E+00 0.  1.
<mgrwt>
<rscale>  0 0.12544969E+04</rscale>
<asrwt>0</asrwt>
<pdfrwt beam="1">  1        3 0.13908454E+00 0.12544969E+04</pdfrwt>
<pdfrwt beam="2">  1       -3 0.66953554E-01 0.12544969E+04</pdfrwt>
<totfact> 0.21745470E+00</totfact>
</mgrwt>
</event>
<event>
12    1  0.4820219E-008  0.1464907E+04  0.7818608E-02  0.8908131E-01
         -2   -1    0    0    0  501 -0.00000000000E+00  0.00000000000E+00  0.16641528025E+03  0.16641528025E+03  0.00000000000E+00 0.  1.
          2   -1    0    0  501    0  0.00000000000E+00 -0.00000000000E+00 -0.32237912485E+04  0.32237912485E+04  0.00000000000E+00 0. -1.
         23    2    1    2    0    0 -0.11516872836E+03 -0.43417454916E+03 -0.12334357182E+04  0.13158500172E+04  0.91248132867E+02 0.  0.
        254    2    1    2    0    0  0.11516872836E+03  0.43417454916E+03 -0.18239402501E+04  0.20743565116E+04  0.88001450334E+03 0.  0.
         23    2    4    4    0    0  0.22384735847E+03 -0.59058473977E+01 -0.57121702063E+02  0.24800904211E+03  0.90017093901E+02 0.  0.
         23    2    4    4    0    0 -0.10867863011E+03  0.44008039656E+03 -0.17668185480E+04  0.18263474694E+04  0.91736020716E+02 0.  0.
         13    1    3    3    0    0 -0.65145293924E+01 -0.12716350736E+03 -0.44344523628E+03  0.46136392823E+03  0.00000000000E+00 0. -1.
        -13    1    3    3    0    0 -0.10865419897E+03 -0.30701104180E+03 -0.78999048191E+03  0.85448608897E+03  0.00000000000E+00 0.  1.
          4    1    5    5  502    0  0.94777282631E+02  0.38054598690E+02 -0.57224739151E+01  0.10229189847E+03  0.00000000000E+00 0. -1.
          3    1    6    6  503    0 -0.87787274189E+02  0.33833143888E+03 -0.11908493329E+04  0.12410869839E+04  0.00000000000E+00 0. -1.
         -4    1    5    5    0  502  0.12907007584E+03 -0.43960446087E+02 -0.51399228148E+02  0.14571714365E+03  0.00000000000E+00 0.  1.
         -3    1    6    6    0  503 -0.20891355923E+02  0.10174895768E+03 -0.57596921513E+03  0.58526048553E+03  0.00000000000E+00 0.  1.
<mgrwt>
<rscale>  0 0.14649070E+04</rscale>
<asrwt>0</asrwt>
<pdfrwt beam="1">  1        2 0.49596788E+00 0.14649070E+04</pdfrwt>
<pdfrwt beam="2">  1       -2 0.25602351E-01 0.14649070E+04</pdfrwt>
<totfact> 0.16831702E+01</totfact>
</mgrwt>
</event>
<event>
12    1  0.4820219E-008  0.1265168E+04  0.7818608E-02  0.9057653E-01
          2   -1    0    0  501    0  0.00000000000E+00  0.00000000000E+00  0.18721694314E+04  0.18721694314E+04  0.00000000000E+00 0. -1.
         -2   -1    0    0    0  501 -0.00000000000E+00 -0.00000000000E+00 -0.21374260306E+03  0.21374260306E+03  0.00000000000E+00 0.  1.
         23    2    1    2    0    0 -0.16786658988E+03 -0.21538687986E+03  0.20459896951E+03  0.35384234195E+03  0.93664105294E+02 0.  0.
        254    2    1    2    0    0  0.16786658988E+03  0.21538687986E+03  0.14538278588E+04  0.17320696925E+04  0.90104343766E+03 0.  0.
         23    2    4    4    0    0  0.42177446453E+03 -0.38966860977E+02  0.32460348604E+03  0.54314610961E+03  0.10113435644E+03 0.  0.
         23    2    4    4    0    0 -0.25390787465E+03  0.25435374083E+03  0.11292243728E+04  0.11889235829E+04  0.96055023637E+02 0.  0.
         11    1    3    3    0    0 -0.17041515658E+03 -0.21560610964E+03  0.17868912424E+03  0.32780653323E+03  0.00000000000E+00 0.  1.
        -11    1    3    3    0    0  0.25485666933E+01  0.21922978943E+00  0.25909845268E+02  0.26035808720E+02  0.00000000000E+00 0. -1.
          1    1    5    5  502    0  0.58605896888E+02  0.28912421888E+02  0.59911412268E+02  0.88656396326E+02  0.00000000000E+00 0. -1.
          3    1    6    6  503    0 -0.54369715372E+02  0.11621102564E+03  0.43330454199E+03  0.45190031483E+03  0.00000000000E+00 0. -1.
         -1    1    5    5    0  502  0.36316856764E+03 -0.67879282865E+02  0.26469207377E+03  0.45448971329E+03  0.00000000000E+00 0.  1.
         -3    1    6    6    0  503 -0.19953815928E+03  0.13814271519E+03  0.69591983076E+03  0.73702326803E+03  0.00000000000E+00 0.  1.
<mgrwt>
<rscale>  0 0.12651678E+04</rscale>
<asrwt>0</asrwt>
<pdfrwt beam="1">  1        2 0.28802606E+00 0.12651678E+04</pdfrwt>
<pdfrwt beam="2">  1       -2 0.32883479E-01 0.12651678E+04</pdfrwt>
<totfact> 0.66725637E+01</totfact>
</mgrwt>
</event>
<event>
12    1  0.4820219E-008  0.2606521E+04  0.7818608E-02  0.8365989E-01
          1   -1    0    0  501    0  0.00000000000E+00  0.00000000000E+00  0.19740439095E+04  0.19740439095E+04  0.00000000000E+00 0. -1.
         -1   -1    0    0    0  501 -0.00000000000E+00 -0.00000000000E+00 -0.86041065781E+03  0.86041065781E+03  0.00000000000E+00 0.  1.
         23    2    1    2    0    0  0.48583869920E+03 -0.60955547758E+03  0.13947484655E+04  0.16003967882E+04  0.91375466914E+02 0.  0.
        254    2    1    2    0    0 -0.48583869920E+03  0.60955547758E+03 -0.28111521382E+03  0.12340577790E+04  0.91448111883E+03 0.  0.
         23    2    4    4    0    0  0.14562673474E+03  0.42193867999E+03  0.10183950169E+03  0.46677630122E+03  0.90936437866E+02 0.  0.
         23    2    4    4    0    0 -0.63146543394E+03  0.18761679759E+03 -0.38295471551E+03  0.76728147783E+03  0.90099362311E+02 0.  0.
         13    1    3    3    0    0  0.49761566348E+02 -0.26498108457E+02  0.11318052270E+03  0.12644443031E+03  0.00000000000E+00 0.  1.
        -13    1    3    3    0    0  0.43607713285E+03 -0.58305736912E+03  0.12815679428E+04  0.14739523579E+04  0.00000000000E+00 0. -1.
          4    1    5    5  502    0  0.44207061006E+02  0.25692074936E+03  0.74729592945E+02  0.27119558948E+03  0.00000000000E+00 0. -1.
          3    1    6    6  503    0 -0.16138989915E+03  0.34361019486E+02 -0.13995189951E+03  0.21636523146E+03  0.00000000000E+00 0. -1.
         -4    1    5    5    0  502  0.10141967374E+03  0.16501793063E+03  0.27109908741E+02  0.19558071174E+03  0.00000000000E+00 0.  1.
         -3    1    6    6    0  503 -0.47007553478E+03  0.15325577811E+03 -0.24300281600E+03  0.55091624636E+03  0.00000000000E+00 0.  1.
<mgrwt>
<rscale>  0 0.26065214E+04</rscale>
<asrwt>0</asrwt>
<pdfrwt beam="1">  1        1 0.30369906E+00 0.26065214E+04</pdfrwt>
<pdfrwt beam="2">  1       -1 0.13237087E+00 0.26065214E+04</pdfrwt>
<totfact> 0.13230704E+00</totfact>
</mgrwt>
</event>
<event>
12    1  0.4820219E-008  0.2652562E+04  0.7818608E-02  0.8350563E-01
          2   -1    0    0  501    0  0.00000000000E+00  0.00000000000E+00  0.19277198197E+04  0.19277198197E+04  0.00000000000E+00 0. -1.
         -2   -1    0    0    0  501 -0.00000000000E+00 -0.00000000000E+00 -0.91248812113E+03  0.91248812113E+03  0.00000000000E+00 0.  1.
         23    2    1    2    0    0 -0.68570165844E+03 -0.63414414211E+03  0.12127943295E+04  0.15334475617E+04  0.90916342476E+02 0.  0.
        254    2    1    2    0    0  0.68570165844E+03  0.63414414211E+03 -0.19756263097E+03  0.13067603791E+04  0.89233745745E+03 0.  0.
         23    2    4    4    0    0  0.86695295670E+03  0.63177264432E+03 -0.23303539226E+03  0.11022212831E+04  0.99207659513E+02 0.  0.
         23    2    4    4    0    0 -0.18125129826E+03  0.23714977865E+01  0.35472761285E+02  0.20453909600E+03  0.87865054921E+02 0.  0.
         11    1    3    3    0    0 -0.12813189977E+03 -0.85712198267E+02  0.16297934087E+03  0.22433597621E+03  0.00000000000E+00 0.  1.
        -11    1    3    3    0    0 -0.55756975868E+03 -0.54843194384E+03  0.10498149887E+04  0.13091115855E+04  0.00000000000E+00 0. -1.
          1    1    5    5  502    0  0.84832478230E+03  0.63272382203E+03 -0.23263190725E+03  0.10835644768E+04  0.00000000000E+00 0. -1.
          3    1    6    6  503    0 -0.12896851989E+03  0.66824412312E+01  0.64747185254E+02  0.14446360144E+03  0.00000000000E+00 0. -1.
         -1    1    5    5    0  502  0.18628174408E+02 -0.95117770303E+00 -0.40348500817E+00  0.18656806291E+02  0.00000000000E+00 0.  1.
         -3    1    6    6    0  503 -0.52282778375E+02 -0.43109434447E+01 -0.29274423969E+02  0.60075494561E+02  0.00000000000E+00 0.  1.
<mgrwt>
<rscale>  0 0.26525621E+04</rscale>
<asrwt>0</asrwt>
<pdfrwt beam="1">  1        2 0.29657228E+00 0.26525621E+04</pdfrwt>
<pdfrwt beam="2">  1       -2 0.14038279E+00 0.26525621E+04</pdfrwt>
<totfact> 0.23021168E+00</totfact>
</mgrwt>
</event>
<event>
12    1  0.4820219E-008  0.1716307E+04  0.7818608E-02  0.8752118E-01
         -1   -1    0    0    0  501 -0.00000000000E+00  0.00000000000E+00  0.46907488423E+03  0.46907488423E+03  0.00000000000E+00 0.  1.
          1   -1    0    0  501    0  0.00000000000E+00 -0.00000000000E+00 -0.15699572335E+04  0.15699572335E+04  0.00000000000E+00 0. -1.
         23    2    1    2    0    0 -0.28312504912E+03 -0.27147685083E+03  0.12224468264E+03  0.42102775666E+03  0.91984430591E+02 0.  0.
        254    2    1    2    0    0  0.28312504912E+03  0.27147685083E+03 -0.12231270319E+04  0.16180043611E+04  0.98388967995E+03 0.  0.
         23    2    4    4    0    0 -0.20056084153E+02  0.27936938424E+03 -0.12642135548E+04  0.12982360749E+04  0.93442467048E+02 0.  0.
         23    2    4    4    0    0  0.30318113327E+03 -0.78925334085E+01  0.41086522904E+02  0.31976828617E+03  0.92642122285E+02 0.  0.
         13    1    3    3    0    0 -0.12245598892E+03 -0.61985427748E+02  0.59926556427E+02  0.14976266103E+03  0.00000000000E+00 0. -1.
        -13    1    3    3    0    0 -0.16066906020E+03 -0.20949142308E+03  0.62318126213E+02  0.27126509563E+03  0.00000000000E+00 0.  1.
          2    1    6    6  502    0  0.16634732333E+02  0.83368707363E+01 -0.18942075732E+02  0.26552212083E+02  0.00000000000E+00 0.  1.
          2    1    5    5  503    0  0.34080754995E+02  0.16738088181E+03 -0.74457536034E+03  0.76391774733E+03  0.00000000000E+00 0. -1.
         -2    1    5    5    0  503 -0.54136839148E+02  0.11198850243E+03 -0.51963819450E+03  0.53431832761E+03  0.00000000000E+00 0.  1.
         -2    1    6    6    0  502  0.28654640094E+03 -0.16229404145E+02  0.60028598636E+02  0.29321607409E+03  0.00000000000E+00 0. -1.
<mgrwt>
<rscale>  0 0.17163071E+04</rscale>
<asrwt>0</asrwt>
<pdfrwt beam="1">  1        1 0.24153189E+00 0.17163071E+04</pdfrwt>
<pdfrwt beam="2">  1       -1 0.72165366E-01 0.17163071E+04</pdfrwt>
<totfact> 0.10774133E+01</totfact>
</mgrwt>
</event>
<event>
12    1  0.5309057E-008  0.2395909E+04  0.7818608E-02  0.8441037E-01
          1   -1    0    0  501    0  0.00000000000E+00  0.00000000000E+00  0.19942489452E+04  0.19942489452E+04  0.00000000000E+00 0. -1.
         -1   -1    0    0    0  501 -0.00000000000E+00 -0.00000000000E+00 -0.71961703586E+03  0.71961703586E+03  0.00000000000E+00 0.  1.
         23    2    1    2    0    0  0.29146843862E+03 -0.20182524248E+03 -0.54244241895E+03  0.65450959951E+03  0.91933447492E+02 0.  0.
        254    2    1    2    0    0 -0.29146843862E+03  0.20182524248E+03  0.18170743282E+04  0.20593563815E+04  0.90194363043E+03 0.  0.
         23    2    4    4    0    0 -0.31113855392E+03 -0.15490761713E+03  0.15838201699E+04  0.16241191625E+04  0.92049736067E+02 0.  0.
         23    2    4    4    0    0  0.19670115304E+02  0.35673285962E+03  0.23325415839E+03  0.43523721903E+03  0.85899289013E+02 0.  0.
         11    1    3    3    0    0  0.24933760592E+03 -0.20661496470E+03 -0.48221147258E+03  0.58085014389E+03  0.00000000000E+00 0.  1.
        -11    1    3    3    0    0  0.42130832699E+02  0.47897222221E+01 -0.60230946365E+02  0.73659455624E+02  0.00000000000E+00 0. -1.
          1    1    5    5  502    0 -0.21191630421E+03 -0.15103290471E+03  0.11545923556E+04  0.11835552230E+04  0.00000000000E+00 0. -1.
          3    1    6    6  503    0 -0.12430295468E+02  0.31102122607E+03  0.20424539252E+03  0.37229678440E+03  0.00000000000E+00 0. -1.
         -1    1    5    5    0  502 -0.99222249708E+02 -0.38747124264E+01  0.42922781423E+03  0.44056393945E+03  0.00000000000E+00 0.  1.
         -3    1    6    6    0  503  0.32100410772E+02  0.45711633549E+02  0.29008765873E+02  0.62940434627E+02  0.00000000000E+00 0.  1.
<mgrwt>
<rscale>  0 0.23959094E+04</rscale>
<asrwt>0</asrwt>
<pdfrwt beam="1">  1        1 0.30680753E+00 0.23959094E+04</pdfrwt>
<pdfrwt beam="2">  1       -1 0.11071031E+00 0.23959094E+04</pdfrwt>
<totfact> 0.20256231E+00</totfact>
</mgrwt>
</event>
<event>
12    1  0.4820219E-008  0.1873844E+04  0.7818608E-02  0.8667987E-01
         -2   -1    0    0    0  501 -0.00000000000E+00  0.00000000000E+00  0.13540537425E+04  0.13540537425E+04  0.00000000000E+00 0.  1.
          2   -1    0    0  501    0  0.00000000000E+00 -0.00000000000E+00 -0.64829220430E+03  0.64829220430E+03  0.00000000000E+00 0. -1.
         23    2    1    2    0    0 -0.39210026594E+03 -0.53754050815E+03 -0.11887137594E+02  0.67144996545E+03  0.89506064674E+02 0.  0.
        254    2    1    2    0    0  0.39210026594E+03  0.53754050815E+03  0.71764867579E+03  0.13308959813E+04  0.90198230295E+03 0.  0.
         23    2    4    4    0    0  0.57668219146E+03  0.65897921850E+03  0.55184586203E+03  0.10392051012E+04  0.92722308867E+02 0.  0.
         23    2    4    4    0    0 -0.18458192552E+03 -0.12143871035E+03  0.16580281376E+03  0.29169088013E+03  0.93675764760E+02 0.  0.
         13    1    3    3    0    0 -0.32288886316E+03 -0.44886679235E+03 -0.43387303009E+02  0.55463598268E+03  0.00000000000E+00 0. -1.
        -13    1    3    3    0    0 -0.69211402786E+02 -0.88673715799E+02  0.31500165416E+02  0.11681398277E+03  0.00000000000E+00 0.  1.
          2    1    5    5  502    0  0.31664472050E+03  0.38053043570E+03  0.36374540416E+03  0.61431100475E+03  0.00000000000E+00 0. -1.
          3    1    6    6  503    0 -0.14695560237E+03 -0.72246892911E+02  0.71074079879E+02  0.17851354972E+03  0.00000000000E+00 0. -1.
         -2    1    5    5    0  502  0.26003747096E+03  0.27844878280E+03  0.18810045788E+03  0.42489409645E+03  0.00000000000E+00 0.  1.
         -3    1    6    6    0  503 -0.37626323145E+02 -0.49191817443E+02  0.94728733879E+02  0.11317733041E+03  0.00000000000E+00 0.  1.
<mgrwt>
<rscale>  0 0.18738436E+04</rscale>
<asrwt>0</asrwt>
<pdfrwt beam="1">  1        2 0.99737262E-01 0.18738436E+04</pdfrwt>
<pdfrwt beam="2">  1       -2 0.20831596E+00 0.18738436E+04</pdfrwt>
<totfact> 0.49670255E+00</totfact>
</mgrwt>
</event>
<event>
12    1  0.4820219E-008  0.1481215E+04  0.7818608E-02  0.8897041E-01
         -1   -1    0    0    0  501 -0.00000000000E+00  0.00000000000E+00  0.48510617922E+03  0.48510617922E+03  0.00000000000E+00 0.  1.
          1   -1    0    0  501    0  0.00000000000E+00 -0.00000000000E+00 -0.11306797027E+04  0.11306797027E+04  0.00000000000E+00 0. -1.
         23    2    1    2    0    0 -0.17256591399E+03  0.29578270678E+03 -0.55141643490E+03  0.65558411145E+03  0.92000207623E+02 0.  0.
        254    2    1    2    0    0  0.17256591399E+03 -0.29578270678E+03 -0.94157088595E+02  0.96020177049E+03  0.89210732449E+03 0.  0.
         23    2    4    4    0    0 -0.29369808721E+03 -0.35889621387E+03 -0.67007801494E+01  0.47301297702E+03  0.92904882609E+02 0.  0.
         23    2    4    4    0    0  0.46626400120E+03  0.63113507086E+02 -0.87456308445E+02  0.48718879347E+03  0.91207899913E+02 0.  0.
         11    1    3    3    0    0 -0.15492453428E+03  0.20783800621E+03 -0.45666519088E+03  0.52511079279E+03  0.00000000000E+00 0. -1.
        -11    1    3    3    0    0 -0.17641379714E+02  0.87944700578E+02 -0.94751244013E+02  0.13047331865E+03  0.00000000000E+00 0.  1.
          2    1    5    5  502    0 -0.12003422955E+03 -0.18260770176E+03 -0.43550264432E+02  0.22282372974E+03  0.00000000000E+00 0. -1.
          4    1    6    6  503    0  0.89393096798E+01 -0.11385668742E+02 -0.95238471348E+01  0.17327676546E+02  0.00000000000E+00 0.  1.
         -2    1    5    5    0  502 -0.17366385766E+03 -0.17628851211E+03  0.36849484282E+02  0.25018924728E+03  0.00000000000E+00 0.  1.
         -4    1    6    6    0  503  0.45732469152E+03  0.74499175827E+02 -0.77932461310E+02  0.46986111693E+03  0.00000000000E+00 0. -1.
<mgrwt>
<rscale>  0 0.14812153E+04</rscale>
<asrwt>0</asrwt>
<pdfrwt beam="1">  1        1 0.17395072E+00 0.14812153E+04</pdfrwt>
<pdfrwt beam="2">  1       -1 0.74631721E-01 0.14812153E+04</pdfrwt>
<totfact> 0.21045759E+01</totfact>
</mgrwt>
</event>
<event>
12    1  0.4820219E-008  0.1268302E+04  0.7818608E-02  0.9055087E-01
         -2   -1    0    0    0  501 -0.00000000000E+00  0.00000000000E+00  0.13785836782E+03  0.13785836782E+03  0.00000000000E+00 0.  1.
          2   -1    0    0  501    0  0.00000000000E+00 -0.00000000000E+00 -0.29171045106E+04  0.29171045106E+04  0.00000000000E+00 0. -1.
         23    2    1    2    0    0 -0.25444247437E+03 -0.18239812708E+03 -0.58494524269E+03  0.66965652946E+03  0.90933387582E+02 0.  0.
        254    2    1    2    0    0  0.25444247437E+03  0.18239812708E+03 -0.21943009001E+04  0.23853063490E+04  0.88131713291E+03 0.  0.
         23    2    4    4    0    0  0.21583182112E+03  0.45792685482E+03 -0.19079811249E+04  0.19761095048E+04  0.91304012856E+02 0.  0.
         23    2    4    4    0    0  0.38610653246E+02 -0.27552872774E+03 -0.28631977523E+03  0.40919684416E+03  0.89756232277E+02 0.  0.
         11    1    3    3    0    0 -0.94379196793E+02 -0.17890872203E+02 -0.18833230078E+03  0.21141563711E+03  0.00000000000E+00 0. -1.
        -11    1    3    3    0    0 -0.16006327758E+03 -0.16450725488E+03 -0.39661294191E+03  0.45824089235E+03  0.00000000000E+00 0.  1.
          4    1    5    5  502    0  0.96476911327E+02  0.25475770535E+03 -0.86684448549E+03  0.90864109795E+03  0.00000000000E+00 0. -1.
          3    1    6    6  503    0  0.57936597129E+02 -0.25250656379E+03 -0.27287929369E+03  0.37627027914E+03  0.00000000000E+00 0. -1.
         -4    1    5    5    0  502  0.11935490979E+03  0.20316914946E+03 -0.10411366394E+04  0.10674684068E+04  0.00000000000E+00 0.  1.
         -3    1    6    6    0  503 -0.19325943882E+02 -0.23022163953E+02 -0.13440481538E+02  0.32926565019E+02  0.00000000000E+00 0.  1.
<mgrwt>
<rscale>  0 0.12683016E+04</rscale>
<asrwt>0</asrwt>
<pdfrwt beam="1">  1        2 0.44878529E+00 0.12683016E+04</pdfrwt>
<pdfrwt beam="2">  1       -2 0.21208981E-01 0.12683016E+04</pdfrwt>
<totfact> 0.37523290E+01</totfact>
</mgrwt>
</event>
<event>
12    1  0.4820219E-008  0.1864662E+04  0.7818608E-02  0.8672649E-01
         -1   -1    0    0    0  501 -0.00000000000E+00  0.00000000000E+00  0.80728535797E+03  0.80728535797E+03  0.00000000000E+00 0.  1.
          1   -1    0    0  501    0  0.00000000000E+00 -0.00000000000E+00 -0.10767454862E+04  0.10767454862E+04  0.00000000000E+00 0. -1.
         23    2    1    2    0    0 -0.62211864995E+03 -0.15383453681E+03  0.19857780275E+03  0.67650475697E+03  0.86769021693E+02 0.  0.
        254    2    1    2    0    0  0.62211864995E+03  0.15383453681E+03 -0.46803793097E+03  0.12075260872E+04  0.91014453088E+03 0.  0.
         23    2    4    4    0    0  0.56265558966E+02  0.41488991652E+03 -0.37850203648E+03  0.57169876449E+03  0.90973785965E+02 0.  0.
         23    2    4    4    0    0  0.56585309098E+03 -0.26105537972E+03 -0.89535894487E+02  0.63582732270E+03  0.88994809060E+02 0.  0.
         13    1    3    3    0    0 -0.41757923424E+03 -0.94141335266E+02  0.90224477875E+02  0.43746481491E+03  0.00000000000E+00 0.  1.
        -13    1    3    3    0    0 -0.20453941571E+03 -0.59693201541E+02  0.10835332487E+03  0.23903994206E+03  0.00000000000E+00 0. -1.
          2    1    5    5  502    0 -0.93264335781E+01  0.11070502052E+03 -0.14494024794E+03  0.18262053390E+03  0.00000000000E+00 0. -1.
          1    1    6    6  503    0  0.24543700072E+02 -0.35267468748E+02 -0.50990220203E+01  0.43268783097E+02  0.00000000000E+00 0. -1.
         -2    1    5    5    0  502  0.65591992544E+02  0.30418489600E+03 -0.23356178855E+03  0.38907823058E+03  0.00000000000E+00 0.  1.
         -1    1    6    6    0  503  0.54130939091E+03 -0.22578791097E+03 -0.84436872466E+02  0.59255853961E+03  0.00000000000E+00 0.  1.
<mgrwt>
<rscale>  0 0.18646618E+04</rscale>
<asrwt>0</asrwt>
<pdfrwt beam="1">  1        1 0.16565315E+00 0.18646618E+04</pdfrwt>
<pdfrwt beam="2">  1       -1 0.12419775E+00 0.18646618E+04</pdfrwt>
<totfact> 0.70470085E+00</totfact>
</mgrwt>
</event>
<event>
12    1  0.4820219E-008  0.1968028E+04  0.7818608E-02  0.8621716E-01
          2   -1    0    0  501    0  0.00000000000E+00  0.00000000000E+00  0.21771252789E+04  0.21771252789E+04  0.00000000000E+00 0. -1.
         -2   -1    0    0    0  501 -0.00000000000E+00 -0.00000000000E+00 -0.44475340942E+03  0.44475340942E+03  0.00000000000E+00 0.  1.
         23    2    1    2    0    0 -0.28659206662E+03 -0.11275132739E+03 -0.26927179862E+03  0.41905107459E+03  0.90821952782E+02 0.  0.
        254    2    1    2    0    0  0.28659206662E+03  0.11275132739E+03  0.20016436681E+04  0.22028276138E+04  0.86661655151E+03 0.  0.
         23    2    4    4    0    0 -0.27641402009E+03 -0.81306788208E+02  0.50366055749E+03  0.58813127825E+03  0.95963216751E+02 0.  0.
         23    2    4    4    0    0  0.56300608671E+03  0.19405811559E+03  0.14979831106E+04  0.16146963355E+04  0.93040046777E+02 0.  0.
         11    1    3    3    0    0 -0.17772021910E+03 -0.60422417472E+02 -0.10479420542E+03  0.21498179062E+03  0.00000000000E+00 0.  1.
        -11    1    3    3    0    0 -0.10887184753E+03 -0.52328909914E+02 -0.16447759319E+03  0.20406928397E+03  0.00000000000E+00 0. -1.
          4    1    6    6  502    0  0.37055975673E+03  0.83830601897E+02  0.99078476131E+03  0.10611298443E+04  0.00000000000E+00 0. -1.
          4    1    5    5  503    0 -0.15174677748E+03 -0.13825701241E+02  0.18723420525E+03  0.24140190990E+03  0.00000000000E+00 0. -1.
         -4    1    5    5    0  503 -0.12466724261E+03 -0.67481086967E+02  0.31642635224E+03  0.34672936835E+03  0.00000000000E+00 0.  1.
         -4    1    6    6    0  502  0.19244632998E+03  0.11022751370E+03  0.50719834934E+03  0.55356649128E+03  0.00000000000E+00 0.  1.
<mgrwt>
<rscale>  0 0.19680283E+04</rscale>
<asrwt>0</asrwt>
<pdfrwt beam="1">  1        2 0.33494235E+00 0.19680283E+04</pdfrwt>
<pdfrwt beam="2">  1       -2 0.68423603E-01 0.19680283E+04</pdfrwt>
<totfact> 0.96795641E+00</totfact>
</mgrwt>
</event>
<event>
12    1  0.4820219E-008  0.2623247E+04  0.7818608E-02  0.8360347E-01
         -2   -1    0    0    0  501 -0.00000000000E+00  0.00000000000E+00  0.18463561976E+04  0.18463561976E+04  0.00000000000E+00 0.  1.
          2   -1    0    0  501    0  0.00000000000E+00 -0.00000000000E+00 -0.93175730480E+03  0.93175730480E+03  0.00000000000E+00 0. -1.
         23    2    1    2    0    0 -0.78576115219E+03  0.76939038046E+03  0.79742718786E+03  0.13615914291E+04  0.93053501463E+02 0.  0.
        254    2    1    2    0    0  0.78576115219E+03 -0.76939038046E+03  0.11717170497E+03  0.14165220733E+04  0.88511210017E+03 0.  0.
         23    2    4    4    0    0  0.44136671144E+02 -0.23388124337E+03  0.38243216918E+03  0.45975422923E+03  0.92038608925E+02 0.  0.
         23    2    4    4    0    0  0.74162448104E+03 -0.53550913709E+03 -0.26526046421E+03  0.95676784407E+03  0.90910322700E+02 0.  0.
         11    1    3    3    0    0 -0.44785510513E+03  0.46925726181E+03  0.51914678657E+03  0.83083690274E+03  0.00000000000E+00 0. -1.
        -11    1    3    3    0    0 -0.33790604706E+03  0.30013311865E+03  0.27828040129E+03  0.53075452640E+03  0.00000000000E+00 0.  1.
          2    1    5    5  502    0  0.25035932536E+02 -0.22393495588E+03  0.37398481983E+03  0.43662146975E+03  0.00000000000E+00 0.  1.
          3    1    6    6  503    0  0.15078068633E+03 -0.13501840286E+03 -0.26587313208E+02  0.20413639976E+03  0.00000000000E+00 0. -1.
         -2    1    5    5    0  502  0.19100738608E+02 -0.99462874851E+01  0.84473493503E+01  0.23132759480E+02  0.00000000000E+00 0. -1.
         -3    1    6    6    0  503  0.59084379471E+03 -0.40049073423E+03 -0.23867315100E+03  0.75263144431E+03  0.00000000000E+00 0.  1.
<mgrwt>
<rscale>  0 0.26232467E+04</rscale>
<asrwt>0</asrwt>
<pdfrwt beam="1">  1        2 0.14334728E+00 0.26232467E+04</pdfrwt>
<pdfrwt beam="2">  1       -2 0.28405480E+00 0.26232467E+04</pdfrwt>
<totfact> 0.98045431E-01</totfact>
</mgrwt>
</event>
<event>
12    1  0.4820219E-008  0.1936187E+04  0.7818608E-02  0.8637051E-01
         -2   -1    0    0    0  501 -0.00000000000E+00  0.00000000000E+00  0.53835562995E+03  0.53835562995E+03  0.00000000000E+00 0.  1.
          2   -1    0    0  501    0  0.00000000000E+00 -0.00000000000E+00 -0.17408658305E+04  0.17408658305E+04  0.00000000000E+00 0. -1.
         23    2    1    2    0    0 -0.48400558540E+03 -0.26396078499E+03 -0.10498088122E+04  0.11891674792E+04  0.89911337619E+02 0.  0.
        254    2    1    2    0    0  0.48400558540E+03  0.26396078499E+03 -0.15270138833E+03  0.10900539813E+04  0.92788106207E+03 0.  0.
         23    2    4    4    0    0 -0.12370681706E+03  0.41734675439E+03 -0.82213665449E+02  0.45208517023E+03  0.90223191997E+02 0.  0.
         23    2    4    4    0    0  0.60771240247E+03 -0.15338596940E+03 -0.70487722877E+02  0.63796881103E+03  0.95885687388E+02 0.  0.
         13    1    3    3    0    0 -0.23319599899E+03 -0.11809191496E+03 -0.59228614979E+03  0.64740169721E+03  0.00000000000E+00 0. -1.
        -13    1    3    3    0    0 -0.25080958641E+03 -0.14586887003E+03 -0.45752266242E+03  0.54176578197E+03  0.00000000000E+00 0.  1.
          2    1    6    6  502    0  0.52237656718E+03 -0.16121895236E+03 -0.44870970680E+02  0.54852733072E+03  0.00000000000E+00 0. -1.
          2    1    5    5  503    0 -0.11446443790E+03  0.40905570910E+03 -0.93911373072E+02  0.43502646664E+03  0.00000000000E+00 0. -1.
         -2    1    5    5    0  503 -0.92423791612E+01  0.82910452917E+01  0.11697707623E+02  0.17058703591E+02  0.00000000000E+00 0.  1.
         -2    1    6    6    0  502  0.85335835284E+02  0.78329829596E+01 -0.25616752197E+02  0.89441480303E+02  0.00000000000E+00 0.  1.
<mgrwt>
<rscale>  0 0.19361869E+04</rscale>
<asrwt>0</asrwt>
<pdfrwt beam="1">  1        2 0.26782551E+00 0.19361869E+04</pdfrwt>
<pdfrwt beam="2">  1       -2 0.82823943E-01 0.19361869E+04</pdfrwt>
<totfact> 0.11107292E+01</totfact>
</mgrwt>
</event>
<event>
12    1  0.4820219E-008  0.1454562E+04  0.7818608E-02  0.8915244E-01
          2   -1    0    0  501    0  0.00000000000E+00  0.00000000000E+00  0.24276754746E+03  0.24276754746E+03  0.00000000000E+00 0. -1.
         -2   -1    0    0    0  501 -0.00000000000E+00 -0.00000000000E+00 -0.21787816069E+04  0.21787816069E+04  0.00000000000E+00 0.  1.
         23    2    1    2    0    0  0.75900242440E+02 -0.44095465331E+03 -0.71732381640E+03  0.85052786344E+03  0.92964164252E+02 0.  0.
        254    2    1    2    0    0 -0.75900242440E+02  0.44095465331E+03 -0.12186902431E+04  0.15710212910E+04  0.88470341638E+03 0.  0.
         23    2    4    4    0    0 -0.25952458322E+03  0.37629087855E+03 -0.12633387085E+04  0.13469338529E+04  0.96219941536E+02 0.  0.
         23    2    4    4    0    0  0.18362434078E+03  0.64663774761E+02  0.44648465386E+02  0.22408743807E+03  0.10159917395E+03 0.  0.
         13    1    3    3    0    0  0.41986623412E+02 -0.40594929962E+03 -0.63410402193E+03  0.75408595069E+03  0.00000000000E+00 0. -1.
        -13    1    3    3    0    0  0.33913619028E+02 -0.35005353696E+02 -0.83219794474E+02  0.96441912752E+02  0.00000000000E+00 0.  1.
          2    1    5    5  502    0 -0.15456863823E+02  0.46638117807E+02 -0.73755864190E+02  0.88622548904E+02  0.00000000000E+00 0.  1.
          3    1    6    6  503    0  0.11114055050E+03  0.89789878179E+02  0.28966336092E+02  0.14578577714E+03  0.00000000000E+00 0. -1.
         -2    1    5    5    0  502 -0.24406771939E+03  0.32965276074E+03 -0.11895828443E+04  0.12583113040E+04  0.00000000000E+00 0. -1.
         -3    1    6    6    0  503  0.72483790273E+02 -0.25126103417E+02  0.15682129294E+02  0.78301660930E+02  0.00000000000E+00 0.  1.
<mgrwt>
<rscale>  0 0.14545617E+04</rscale>
<asrwt>0</asrwt>
<pdfrwt beam="1">  1        2 0.37348854E-01 0.14545617E+04</pdfrwt>
<pdfrwt beam="2">  1       -2 0.33519716E+00 0.14545617E+04</pdfrwt>
<totfact> 0.26161308E+00</totfact>
</mgrwt>
</event>
<event>
12    1  0.4820219E-008  0.1371966E+04  0.7818608E-02  0.8974364E-01
          2   -1    0    0  501    0  0.00000000000E+00  0.00000000000E+00  0.30574587771E+03  0.30574587771E+03  0.00000000000E+00 0. -1.
         -2   -1    0    0    0  501 -0.00000000000E+00 -0.00000000000E+00 -0.15390982315E+04  0.15390982315E+04  0.00000000000E+00 0.  1.
         23    2    1    2    0    0 -0.22049682182E+03 -0.28219530487E+03 -0.47506940582E+03  0.60724714296E+03  0.12167626623E+03 0.  0.
        254    2    1    2    0    0  0.22049682182E+03  0.28219530487E+03 -0.75828294793E+03  0.12375969662E+04  0.91016492083E+03 0.  0.
         23    2    4    4    0    0  0.29231260143E+03  0.92937692342E+02 -0.91204153484E+03  0.96662464712E+03  0.91974863514E+02 0.  0.
         23    2    4    4    0    0 -0.71815779606E+02  0.18925761253E+03  0.15375858692E+03  0.27097231908E+03  0.93852781299E+02 0.  0.
         11    1    3    3    0    0 -0.92687353528E+02 -0.87612289292E+02 -0.85938519775E+02  0.15379300348E+03  0.00000000000E+00 0. -1.
        -11    1    3    3    0    0 -0.12780946830E+03 -0.19458301558E+03 -0.38913088605E+03  0.45345413948E+03  0.00000000000E+00 0.  1.
          1    1    5    5  502    0  0.28943571152E+03  0.95578596155E+02 -0.91305580987E+03  0.96258984571E+03  0.00000000000E+00 0. -1.
          3    1    6    6  503    0 -0.81131640186E+02  0.18510060057E+03  0.16105966002E+03  0.25842753231E+03  0.00000000000E+00 0. -1.
         -1    1    5    5    0  502  0.28768899156E+01 -0.26409038132E+01  0.10142750209E+01  0.40348014022E+01  0.00000000000E+00 0.  1.
         -3    1    6    6    0  503  0.93158605798E+01  0.41570119546E+01 -0.73010730988E+01  0.12544786771E+02  0.00000000000E+00 0.  1.
<mgrwt>
<rscale>  0 0.13719664E+04</rscale>
<asrwt>0</asrwt>
<pdfrwt beam="1">  1        2 0.47037828E-01 0.13719664E+04</pdfrwt>
<pdfrwt beam="2">  1       -2 0.23678434E+00 0.13719664E+04</pdfrwt>
<totfact> 0.81345631E+00</totfact>
</mgrwt>
</event>
<event>
12    1  0.4820219E-008  0.1284238E+04  0.7818608E-02  0.9042159E-01
          1   -1    0    0  501    0  0.00000000000E+00  0.00000000000E+00  0.35452749199E+03  0.35452749199E+03  0.00000000000E+00 0. -1.
         -1   -1    0    0    0  501 -0.00000000000E+00 -0.00000000000E+00 -0.11630041374E+04  0.11630041374E+04  0.00000000000E+00 0.  1.
         23    2    1    2    0    0  0.10029349290E+03 -0.24856395956E+03 -0.47059495249E+03  0.54933291610E+03  0.92001177635E+02 0.  0.
        254    2    1    2    0    0 -0.10029349290E+03  0.24856395956E+03 -0.33788169297E+03  0.96819871334E+03  0.86683440365E+03 0.  0.
         23    2    4    4    0    0 -0.38117363521E+03  0.31558365243E+03 -0.41907449613E+03  0.65462046661E+03  0.89544068131E+02 0.  0.
         23    2    4    4    0    0  0.28088014231E+03 -0.67019692868E+02  0.81192803164E+02  0.31357824673E+03  0.91398861934E+02 0.  0.
         13    1    3    3    0    0  0.10137269501E+03 -0.14358706273E+03 -0.32971820274E+03  0.37364121975E+03  0.00000000000E+00 0.  1.
        -13    1    3    3    0    0 -0.10792021064E+01 -0.10497689683E+03 -0.14087674975E+03  0.17569169635E+03  0.00000000000E+00 0. -1.
          1    1    5    5  502    0 -0.10955102971E+02  0.31956148737E+02 -0.12878361658E+02  0.36153311359E+02  0.00000000000E+00 0. -1.
          3    1    6    6  503    0  0.91995071575E+02 -0.30886529081E+01 -0.13140525926E+02  0.92980139774E+02  0.00000000000E+00 0. -1.
         -1    1    5    5    0  502 -0.37021853224E+03  0.28362750369E+03 -0.40619613447E+03  0.61846715525E+03  0.00000000000E+00 0.  1.
         -3    1    6    6    0  503  0.18888507073E+03 -0.63931039959E+02  0.94333329089E+02  0.22059810696E+03  0.00000000000E+00 0.  1.
<mgrwt>
<rscale>  0 0.12842382E+04</rscale>
<asrwt>0</asrwt>
<pdfrwt beam="1">  1        1 0.54542690E-01 0.12842382E+04</pdfrwt>
<pdfrwt beam="2">  1       -1 0.17892372E+00 0.12842382E+04</pdfrwt>
<totfact> 0.14673448E+01</totfact>
</mgrwt>
</event>
<event>
12    1  0.4820219E-008  0.2391177E+04  0.7818608E-02  0.8442814E-01
         -2   -1    0    0    0  501 -0.00000000000E+00  0.00000000000E+00  0.47256311334E+03  0.47256311334E+03  0.00000000000E+00 0.  1.
          2   -1    0    0  501    0  0.00000000000E+00 -0.00000000000E+00 -0.30248492622E+04  0.30248492622E+04  0.00000000000E+00 0. -1.
         23    2    1    2    0    0  0.25048793639E+03 -0.34854384340E+02  0.35382495805E+03  0.44359081435E+03  0.87302206456E+02 0.  0.
        254    2    1    2    0    0 -0.25048793639E+03  0.34854384340E+02 -0.29061111069E+04  0.30538215612E+04  0.90354044044E+03 0.  0.
         23    2    4    4    0    0 -0.51266440075E+03  0.24740023005E+02 -0.10025837236E+04  0.11301489110E+04  0.92874010116E+02 0.  0.
         23    2    4    4    0    0  0.26217646436E+03  0.10114361335E+02 -0.19035273833E+04  0.19236726502E+04  0.90890963039E+02 0.  0.
         13    1    3    3    0    0  0.13757191412E+03 -0.54374263798E+02  0.15608140643E+03  0.21504417581E+03  0.00000000000E+00 0.  1.
        -13    1    3    3    0    0  0.11291602228E+03  0.19519879458E+02  0.19774355162E+03  0.22854663854E+03  0.00000000000E+00 0. -1.
          2    1    5    5  502    0 -0.16059141019E+03 -0.87497703038E+01 -0.23212926396E+03  0.28240069882E+03  0.00000000000E+00 0. -1.
          3    1    6    6  503    0  0.22906244261E+03  0.38413007572E+02 -0.16755671482E+04  0.16915881384E+04  0.00000000000E+00 0. -1.
         -2    1    5    5    0  502 -0.35207299056E+03  0.33489793309E+02 -0.77045445960E+03  0.84774821218E+03  0.00000000000E+00 0.  1.
         -3    1    6    6    0  503  0.33114021750E+02 -0.28298646237E+02 -0.22796023515E+03  0.23208451181E+03  0.00000000000E+00 0.  1.
<mgrwt>
<rscale>  0 0.23911773E+04</rscale>
<asrwt>0</asrwt>
<pdfrwt beam="1">  1        2 0.46536143E+00 0.23911773E+04</pdfrwt>
<pdfrwt beam="2">  1       -2 0.72702016E-01 0.23911773E+04</pdfrwt>
<totfact> 0.25869011E+00</totfact>
</mgrwt>
</event>
<event>
12    1  0.4820219E-008  0.1161582E+04  0.7818608E-02  0.9147164E-01
         -3   -1    0    0    0  501 -0.00000000000E+00  0.00000000000E+00  0.97529623481E+03  0.97529623481E+03  0.00000000000E+00 0.  1.
          3   -1    0    0  501    0  0.00000000000E+00 -0.00000000000E+00 -0.34586252946E+03  0.34586252946E+03  0.00000000000E+00 0. -1.
         23    2    1    2    0    0 -0.53763127526E+02  0.13122729370E+03  0.31199274568E+03  0.35511353171E+03  0.93032631656E+02 0.  0.
        254    2    1    2    0    0  0.53763127526E+02 -0.13122729370E+03  0.31744095967E+03  0.96604523255E+03  0.90131212794E+03 0.  0.
         23    2    4    4    0    0 -0.20914775611E+03  0.31263476157E+03  0.13255331345E+03  0.41016956861E+03  0.95840576394E+02 0.  0.
         23    2    4    4    0    0  0.26291088363E+03 -0.44386205527E+03  0.18488764622E+03  0.55587566394E+03  0.93159300097E+02 0.  0.
         11    1    3    3    0    0 -0.40622715739E+02  0.90837456335E+02  0.10843864857E+03  0.14717536822E+03  0.00000000000E+00 0. -1.
        -11    1    3    3    0    0 -0.13140411787E+02  0.40389837368E+02  0.20355409711E+03  0.20793816349E+03  0.00000000000E+00 0.  1.
          2    1    5    5  502    0 -0.38261070175E+02  0.11304687963E+02  0.19153342933E+01  0.39942132722E+02  0.00000000000E+00 0. -1.
          3    1    6    6  503    0  0.17530712423E+02 -0.46218934512E+02 -0.85370416510E+01  0.50163700677E+02  0.00000000000E+00 0. -1.
         -2    1    5    5    0  502 -0.17088668593E+03  0.30133007361E+03  0.13063797916E+03  0.37022743589E+03  0.00000000000E+00 0.  1.
         -3    1    6    6    0  503  0.24538017121E+03 -0.39764312076E+03  0.19342468787E+03  0.50571196326E+03  0.00000000000E+00 0.  1.
<mgrwt>
<rscale>  0 0.11615824E+04</rscale>
<asrwt>0</asrwt>
<pdfrwt beam="1">  1        3 0.53209620E-01 0.11615824E+04</pdfrwt>
<pdfrwt beam="2">  1       -3 0.15004557E+00 0.11615824E+04</pdfrwt>
<totfact> 0.29162010E+00</totfact>
</mgrwt>
</event>
<event>
12    1  0.4820219E-008  0.1331218E+04  0.7818608E-02  0.9005169E-01
         -1   -1    0    0    0  501 -0.00000000000E+00  0.00000000000E+00  0.64053789191E+03  0.64053789191E+03  0.00000000000E+00 0.  1.
          1   -1    0    0  501    0  0.00000000000E+00 -0.00000000000E+00 -0.69166155598E+03  0.69166155598E+03  0.00000000000E+00 0. -1.
         23    2    1    2    0    0 -0.13216450709E+03 -0.27194593738E+03  0.16400072193E+03  0.35712461861E+03  0.96019303424E+02 0.  0.
        254    2    1    2    0    0  0.13216450709E+03  0.27194593738E+03 -0.21512438600E+03  0.97507482928E+03  0.90170414852E+03 0.  0.
         23    2    4    4    0    0  0.31193398628E+03 -0.21246129605E+03  0.37367408800E+02  0.39269213359E+03  0.10182423299E+03 0.  0.
         23    2    4    4    0    0 -0.17976947919E+03  0.48440723343E+03 -0.25249179480E+03  0.58238269569E+03  0.91924231562E+02 0.  0.
         11    1    3    3    0    0  0.55232622068E+01 -0.48145314508E+02  0.21383662343E+01  0.48508250274E+02  0.00000000000E+00 0. -1.
        -11    1    3    3    0    0 -0.13768776930E+03 -0.22380062287E+03  0.16186235570E+03  0.30861636834E+03  0.00000000000E+00 0.  1.
          2    1    5    5  502    0  0.28694798535E+02 -0.71540244828E+01  0.30955325331E+02  0.42811256646E+02  0.00000000000E+00 0. -1.
          1    1    6    6  503    0 -0.12391537859E+03  0.20342383092E+03 -0.12102597719E+03  0.26717702595E+03  0.00000000000E+00 0. -1.
         -2    1    5    5    0  502  0.28323918775E+03 -0.20530727157E+03  0.64120834687E+01  0.34988087694E+03  0.00000000000E+00 0.  1.
         -1    1    6    6    0  503 -0.55854100605E+02  0.28098340251E+03 -0.13146581760E+03  0.31520566974E+03  0.00000000000E+00 0.  1.
<mgrwt>
<rscale>  0 0.13312181E+04</rscale>
<asrwt>0</asrwt>
<pdfrwt beam="1">  1        1 0.10640947E+00 0.13312181E+04</pdfrwt>
<pdfrwt beam="2">  1       -1 0.98544291E-01 0.13312181E+04</pdfrwt>
<totfact> 0.26817153E+01</totfact>
</mgrwt>
</event>
<event>
12    1  0.4820219E-008  0.2318151E+04  0.7818608E-02  0.8470798E-01
          2   -1    0    0  501    0  0.00000000000E+00  0.00000000000E+00  0.57791066217E+03  0.57791066217E+03  0.00000000000E+00 0. -1.
         -2   -1    0    0    0  501 -0.00000000000E+00 -0.00000000000E+00 -0.23246784424E+04  0.23246784424E+04  0.00000000000E+00 0.  1.
         23    2    1    2    0    0  0.56825009506E+03  0.26383897971E+02 -0.17460353112E+04  0.18379094372E+04  0.75282872013E+02 0.  0.
        254    2    1    2    0    0 -0.56825009506E+03 -0.26383897971E+02 -0.73246908110E+00  0.10646796674E+04  0.89996554216E+03 0.  0.
         23    2    4    4    0    0 -0.58119418277E+03  0.19898366671E+02  0.35958162514E+03  0.68986151353E+03  0.91800542636E+02 0.  0.
         23    2    4    4    0    0  0.12944087709E+02 -0.46282264643E+02 -0.36031409422E+03  0.37481815388E+03  0.91393678973E+02 0.  0.
         13    1    3    3    0    0  0.23692201962E+02  0.47231665276E+01 -0.13621423067E+03  0.13833996304E+03  0.00000000000E+00 0. -1.
        -13    1    3    3    0    0  0.54455789310E+03  0.21660731444E+02 -0.16098210805E+04  0.16995694741E+04  0.00000000000E+00 0.  1.
          4    1    5    5  502    0 -0.35961378921E+03  0.54676687175E+02  0.23861922505E+03  0.43502959908E+03  0.00000000000E+00 0. -1.
          4    1    6    6  503    0  0.17731957844E+02 -0.62221180593E+02 -0.34838567812E+03  0.35434231805E+03  0.00000000000E+00 0. -1.
         -4    1    5    5    0  502 -0.22158039356E+03 -0.34778320503E+02  0.12096240009E+03  0.25483191445E+03  0.00000000000E+00 0.  1.
         -4    1    6    6    0  503 -0.47878701349E+01  0.15938915950E+02 -0.11928416097E+02  0.20475835824E+02  0.00000000000E+00 0.  1.
<mgrwt>
<rscale>  0 0.23181514E+04</rscale>
<asrwt>0</asrwt>
<pdfrwt beam="1">  1        2 0.88909333E-01 0.23181514E+04</pdfrwt>
<pdfrwt beam="2">  1       -2 0.35764283E+00 0.23181514E+04</pdfrwt>
<totfact> 0.65457255E-01</totfact>
</mgrwt>
</event>
<event>
12    1  0.4820219E-008  0.1974725E+04  0.7818608E-02  0.8618530E-01
         -1   -1    0    0    0  501 -0.00000000000E+00  0.00000000000E+00  0.14389004398E+04  0.14389004398E+04  0.00000000000E+00 0.  1.
          1   -1    0    0  501    0  0.00000000000E+00 -0.00000000000E+00 -0.67752035337E+03  0.67752035337E+03  0.00000000000E+00 0. -1.
         23    2    1    2    0    0 -0.45476625223E+02  0.73875368733E+03  0.34280709472E+02  0.74612545803E+03  0.87766155721E+02 0.  0.
        254    2    1    2    0    0  0.45476625223E+02 -0.73875368733E+03  0.72709937696E+03  0.13702953351E+04  0.89510371888E+03 0.  0.
         23    2    4    4    0    0 -0.19133904746E+03  0.10805905669E+03  0.19130892184E+02  0.23770629505E+03  0.88605309422E+02 0.  0.
         23    2    4    4    0    0  0.23681567268E+03 -0.84681274401E+03  0.70796848477E+03  0.11325890401E+04  0.91460767805E+02 0.  0.
         11    1    3    3    0    0  0.28366152429E+01  0.20240181507E+02  0.15661758684E+02  0.25748825576E+02  0.00000000000E+00 0.  1.
        -11    1    3    3    0    0 -0.48313240466E+02  0.71851350582E+03  0.18618950788E+02  0.72037663245E+03  0.00000000000E+00 0. -1.
          2    1    5    5  502    0 -0.99471495015E+02  0.83881766406E+02  0.47576130567E+02  0.13854319635E+03  0.00000000000E+00 0.  1.
          2    1    6    6  503    0  0.98132609424E+02 -0.46916079990E+03  0.34300273162E+03  0.58940032160E+03  0.00000000000E+00 0. -1.
         -2    1    5    5    0  502 -0.91867552440E+02  0.24177290279E+02 -0.28445238383E+02  0.99163098697E+02  0.00000000000E+00 0. -1.
         -2    1    6    6    0  503  0.13868306325E+03 -0.37765194411E+03  0.36496575315E+03  0.54318871849E+03  0.00000000000E+00 0.  1.
<mgrwt>
<rscale>  0 0.19747246E+04</rscale>
<asrwt>0</asrwt>
<pdfrwt beam="1">  1        1 0.10423390E+00 0.19747246E+04</pdfrwt>
<pdfrwt beam="2">  1       -1 0.22136930E+00 0.19747246E+04</pdfrwt>
<totfact> 0.28670028E+00</totfact>
</mgrwt>
</event>
<event>
12    1  0.4820219E-008  0.1917102E+04  0.7818608E-02  0.8646390E-01
         -2   -1    0    0    0  501 -0.00000000000E+00  0.00000000000E+00  0.42040541762E+03  0.42040541762E+03  0.00000000000E+00 0.  1.
          2   -1    0    0  501    0  0.00000000000E+00 -0.00000000000E+00 -0.21855570383E+04  0.21855570383E+04  0.00000000000E+00 0. -1.
         23    2    1    2    0    0  0.45642927145E+03 -0.52898385258E+03 -0.34502089747E+03  0.78453948620E+03  0.91165726004E+02 0.  0.
        254    2    1    2    0    0 -0.45642927145E+03  0.52898385258E+03 -0.14201307232E+04  0.18214229697E+04  0.90147588293E+03 0.  0.
         23    2    4    4    0    0 -0.39397631952E+03  0.12783076287E+03 -0.98864989445E+02  0.43572176111E+03  0.92309927321E+02 0.  0.
         23    2    4    4    0    0 -0.62452951922E+02  0.40115308971E+03 -0.13212657338E+04  0.13857012086E+04  0.97982282770E+02 0.  0.
         11    1    3    3    0    0  0.25198994210E+03 -0.28500618817E+03 -0.13729684246E+03  0.40444762475E+03  0.00000000000E+00 0. -1.
        -11    1    3    3    0    0  0.20443932934E+03 -0.24397766441E+03 -0.20772405501E+03  0.38009186145E+03  0.00000000000E+00 0.  1.
          4    1    6    6  502    0 -0.53525213030E+02  0.30675898384E+03 -0.85617837757E+03  0.91104743939E+03  0.00000000000E+00 0. -1.
          4    1    5    5  503    0 -0.52763905369E+02 -0.97154751635E+01 -0.29902982266E+02  0.61421563932E+02  0.00000000000E+00 0. -1.
         -4    1    5    5    0  503 -0.34121241416E+03  0.13754623803E+03 -0.68962007180E+02  0.37430019718E+03  0.00000000000E+00 0.  1.
         -4    1    6    6    0  502 -0.89277388926E+01  0.94394105868E+02 -0.46508735622E+03  0.47465376925E+03  0.00000000000E+00 0.  1.
<mgrwt>
<rscale>  0 0.19171020E+04</rscale>
<asrwt>0</asrwt>
<pdfrwt beam="1">  1        2 0.33623954E+00 0.19171020E+04</pdfrwt>
<pdfrwt beam="2">  1       -2 0.64677758E-01 0.19171020E+04</pdfrwt>
<totfact> 0.10859472E+01</totfact>
</mgrwt>
</event>
<event>
12    1  0.4820219E-008  0.1830350E+04  0.7818608E-02  0.8690324E-01
         -2   -1    0    0    0  501 -0.00000000000E+00  0.00000000000E+00  0.63442368835E+03  0.63442368835E+03  0.00000000000E+00 0.  1.
          2   -1    0    0  501    0  0.00000000000E+00 -0.00000000000E+00 -0.13201665166E+04  0.13201665166E+04  0.00000000000E+00 0. -1.
         23    2    1    2    0    0  0.16354759637E+03  0.66472619426E+03 -0.18268220741E+03  0.71410146969E+03  0.89215416240E+02 0.  0.
        254    2    1    2    0    0 -0.16354759637E+03 -0.66472619426E+03 -0.50306062087E+03  0.12404887353E+04  0.90395441506E+03 0.  0.
         23    2    4    4    0    0 -0.35446933171E+03 -0.49315776087E+03  0.57766831222E+02  0.61731822592E+03  0.94295816617E+02 0.  0.
         23    2    4    4    0    0  0.19092173534E+03 -0.17156843339E+03 -0.56082745209E+03  0.62317050937E+03  0.89034916595E+02 0.  0.
         11    1    3    3    0    0 -0.78177313242E+01  0.26849237791E+02  0.26725384125E+01  0.28091652756E+02  0.00000000000E+00 0.  1.
        -11    1    3    3    0    0  0.17136532769E+03  0.63787695647E+03 -0.18535474583E+03  0.68600981693E+03  0.00000000000E+00 0. -1.
          4    1    5    5  502    0 -0.25445196130E+03 -0.34882820196E+03  0.83718737646E+02  0.43981330372E+03  0.00000000000E+00 0. -1.
          1    1    6    6  503    0  0.11475921323E+03 -0.12566867594E+03 -0.27097328404E+03  0.31998252108E+03  0.00000000000E+00 0. -1.
         -4    1    5    5    0  502 -0.10001737041E+03 -0.14432955891E+03 -0.25951906425E+02  0.17750492220E+03  0.00000000000E+00 0.  1.
         -1    1    6    6    0  503  0.76162522112E+02 -0.45899757442E+02 -0.28985416804E+03  0.30318798829E+03  0.00000000000E+00 0.  1.
<mgrwt>
<rscale>  0 0.18303496E+04</rscale>
<asrwt>0</asrwt>
<pdfrwt beam="1">  1        2 0.20310254E+00 0.18303496E+04</pdfrwt>
<pdfrwt beam="2">  1       -2 0.97603644E-01 0.18303496E+04</pdfrwt>
<totfact> 0.13256747E+01</totfact>
</mgrwt>
</event>
<event>
12    1  0.4820219E-008  0.2801277E+04  0.7818608E-02  0.8302872E-01
          2   -1    0    0  501    0  0.00000000000E+00  0.00000000000E+00  0.17206631655E+04  0.17206631655E+04  0.00000000000E+00 0. -1.
         -2   -1    0    0    0  501 -0.00000000000E+00 -0.00000000000E+00 -0.11401346794E+04  0.11401346794E+04  0.00000000000E+00 0.  1.
         23    2    1    2    0    0  0.66354037611E+03  0.88998147645E+03 -0.34964270944E+03  0.11674665556E+04  0.91516529144E+02 0.  0.
        254    2    1    2    0    0 -0.66354037611E+03 -0.88998147645E+03  0.93017119550E+03  0.16933312893E+04  0.87738221044E+03 0.  0.
         23    2    4    4    0    0 -0.21619477305E+03 -0.38759659380E+03  0.90757381152E+03  0.10142014184E+04  0.89123477653E+02 0.  0.
         23    2    4    4    0    0 -0.44734560306E+03 -0.50238488265E+03  0.22597383978E+02  0.67912987091E+03  0.90543254301E+02 0.  0.
         11    1    3    3    0    0  0.42012968765E+03  0.57011865549E+03 -0.26865036514E+03  0.75744125480E+03  0.00000000000E+00 0. -1.
        -11    1    3    3    0    0  0.24341068846E+03  0.31986282096E+03 -0.80992344301E+02  0.41002530083E+03  0.00000000000E+00 0.  1.
          4    1    5    5  502    0 -0.14871413900E+03 -0.17843266766E+03  0.49270470179E+03  0.54471280065E+03  0.00000000000E+00 0. -1.
          3    1    6    6  503    0 -0.13641053821E+03 -0.10929733297E+03 -0.20936862407E+02  0.17604571604E+03  0.00000000000E+00 0. -1.
         -4    1    5    5    0  502 -0.67480634049E+02 -0.20916392614E+03  0.41486910973E+03  0.46948861773E+03  0.00000000000E+00 0.  1.
         -3    1    6    6    0  503 -0.31093506485E+03 -0.39308754968E+03  0.43534246385E+02  0.50308415486E+03  0.00000000000E+00 0.  1.
<mgrwt>
<rscale>  0 0.28012767E+04</rscale>
<asrwt>0</asrwt>
<pdfrwt beam="1">  1        2 0.26471741E+00 0.28012767E+04</pdfrwt>
<pdfrwt beam="2">  1       -2 0.17540533E+00 0.28012767E+04</pdfrwt>
<totfact> 0.16222596E+00</totfact>
</mgrwt>
</event>
<event>
12    1  0.4820219E-008  0.1209120E+04  0.7818608E-02  0.9104911E-01
          2   -1    0    0  501    0  0.00000000000E+00  0.00000000000E+00  0.34190654562E+04  0.34190654562E+04  0.00000000000E+00 0. -1.
         -2   -1    0    0    0  501 -0.00000000000E+00 -0.00000000000E+00 -0.10689841555E+03  0.10689841555E+03  0.00000000000E+00 0.  1.
         23    2    1    2    0    0  0.21543552400E+03 -0.13075183185E+03  0.17350332855E+04  0.17551375892E+04  0.81602382159E+02 0.  0.
        254    2    1    2    0    0 -0.21543552400E+03  0.13075183185E+03  0.15771337552E+04  0.17708262825E+04  0.76483091905E+03 0.  0.
         23    2    4    4    0    0 -0.46286837888E+03  0.14003088847E+03  0.70681539331E+03  0.86136698854E+03  0.92245882561E+02 0.  0.
         23    2    4    4    0    0  0.24743285487E+03 -0.92790566155E+01  0.87031836185E+03  0.90945929400E+03  0.91394955520E+02 0.  0.
         13    1    3    3    0    0  0.15921122753E+03 -0.67782257492E+02  0.13441593641E+04  0.13552516539E+04  0.00000000000E+00 0. -1.
        -13    1    3    3    0    0  0.56224296475E+02 -0.62969574360E+02  0.39087392146E+03  0.39988593535E+03  0.00000000000E+00 0.  1.
          2    1    5    5  502    0 -0.45815484528E+02  0.27768857495E+01  0.30768114612E+02  0.55258000270E+02  0.00000000000E+00 0. -1.
          1    1    6    6  503    0  0.55772999626E+02 -0.41247439237E+02  0.21160338092E+03  0.22268356371E+03  0.00000000000E+00 0. -1.
         -2    1    5    5    0  502 -0.41705289435E+03  0.13725400272E+03  0.67604727870E+03  0.80610898828E+03  0.00000000000E+00 0.  1.
         -1    1    6    6    0  503  0.19165985525E+03  0.31968382621E+02  0.65871498093E+03  0.68677573028E+03  0.00000000000E+00 0.  1.
<mgrwt>
<rscale>  0 0.12091198E+04</rscale>
<asrwt>0</asrwt>
<pdfrwt beam="1">  1        2 0.52600999E+00 0.12091198E+04</pdfrwt>
<pdfrwt beam="2">  1       -2 0.16445913E-01 0.12091198E+04</pdfrwt>
<totfact> 0.28031875E+01</totfact>
</mgrwt>
</event>
<event>
12    1  0.4820219E-008  0.1942181E+04  0.7818608E-02  0.8634141E-01
         -1   -1    0    0    0  501 -0.00000000000E+00  0.00000000000E+00  0.10890651083E+04  0.10890651083E+04  0.00000000000E+00 0.  1.
          1   -1    0    0  501    0  0.00000000000E+00 -0.00000000000E+00 -0.86589524768E+03  0.86589524768E+03  0.00000000000E+00 0. -1.
         23    2    1    2    0    0 -0.55698021364E+03 -0.17605451967E+03  0.57833477644E+03  0.82681124300E+03  0.89014412404E+02 0.  0.
        254    2    1    2    0    0  0.55698021364E+03  0.17605451967E+03 -0.35516491579E+03  0.11281491130E+04  0.89741637576E+03 0.  0.
         23    2    4    4    0    0  0.73693955537E+03 -0.75393242790E+02 -0.21665503346E+03  0.77731480254E+03  0.92275941594E+02 0.  0.
         23    2    4    4    0    0 -0.17995934173E+03  0.25144776246E+03 -0.13850988233E+03  0.35083431047E+03  0.91040562254E+02 0.  0.
         13    1    3    3    0    0 -0.55753366376E+03 -0.18026983639E+03  0.57002757101E+03  0.81747931585E+03  0.00000000000E+00 0.  1.
        -13    1    3    3    0    0  0.55345011719E+00  0.42153167190E+01  0.83072054355E+01  0.93319271440E+01  0.00000000000E+00 0. -1.
          1    1    6    6  502    0 -0.18946174300E+03  0.23243934204E+03 -0.13653046390E+03  0.32949107327E+03  0.00000000000E+00 0. -1.
          1    1    5    5  503    0  0.72026845700E+03 -0.87879748940E+02 -0.21237664539E+03  0.75605114902E+03  0.00000000000E+00 0. -1.
         -1    1    5    5    0  503  0.16671098374E+02  0.12486506150E+02 -0.42783880715E+01  0.21263653528E+02  0.00000000000E+00 0.  1.
         -1    1    6    6    0  502  0.95024012737E+01  0.19008420422E+02 -0.19794184304E+01  0.21343237201E+02  0.00000000000E+00 0.  1.
<mgrwt>
<rscale>  0 0.19421805E+04</rscale>
<asrwt>0</asrwt>
<pdfrwt beam="1">  1        1 0.13321465E+00 0.19421805E+04</pdfrwt>
<pdfrwt beam="2">  1       -1 0.16754848E+00 0.19421805E+04</pdfrwt>
<totfact> 0.46446774E+00</totfact>
</mgrwt>
</event>
<event>
12    1  0.4820219E-008  0.2421120E+04  0.7818608E-02  0.8431639E-01
          2   -1    0    0  501    0  0.00000000000E+00  0.00000000000E+00  0.12355392204E+04  0.12355392204E+04  0.00000000000E+00 0. -1.
         -2   -1    0    0    0  501 -0.00000000000E+00 -0.00000000000E+00 -0.11860856493E+04  0.11860856493E+04  0.00000000000E+00 0.  1.
         23    2    1    2    0    0  0.43853300746E+03  0.90949150223E+03 -0.22666496391E+03  0.10390036329E+04  0.93088946754E+02 0.  0.
        254    2    1    2    0    0 -0.43853300746E+03 -0.90949150223E+03  0.27611853504E+03  0.13826212369E+04  0.90327960674E+03 0.  0.
         23    2    4    4    0    0 -0.60603297341E+03 -0.52501452493E+03 -0.97715227823E+02  0.81350523771E+03  0.96572717646E+02 0.  0.
         23    2    4    4    0    0  0.16749996595E+03 -0.38447697730E+03  0.37383376286E+03  0.56911599914E+03  0.90898589425E+02 0.  0.
         13    1    3    3    0    0  0.27101580349E+03  0.46620358701E+03 -0.99541718197E+02  0.54836475446E+03  0.00000000000E+00 0.  1.
        -13    1    3    3    0    0  0.16751720398E+03  0.44328791522E+03 -0.12712324571E+03  0.49063887841E+03  0.00000000000E+00 0. -1.
          2    1    5    5  502    0 -0.60843724893E+03 -0.52635255970E+03 -0.98778491759E+02  0.81055542280E+03  0.00000000000E+00 0. -1.
          1    1    6    6  503    0  0.12021681398E+03 -0.19427585420E+03  0.24262812670E+03  0.33326205568E+03  0.00000000000E+00 0. -1.
         -2    1    5    5    0  502  0.24042755223E+01  0.13380347732E+01  0.10632639362E+01  0.29498149161E+01  0.00000000000E+00 0.  1.
         -1    1    6    6    0  503  0.47283151966E+02 -0.19020112309E+03  0.13120563617E+03  0.23585394346E+03  0.00000000000E+00 0.  1.
<mgrwt>
<rscale>  0 0.24211199E+04</rscale>
<asrwt>0</asrwt>
<pdfrwt beam="1">  1        2 0.19008296E+00 0.24211199E+04</pdfrwt>
<pdfrwt beam="2">  1       -2 0.18247471E+00 0.24211199E+04</pdfrwt>
<totfact> 0.28234070E+00</totfact>
</mgrwt>
</event>
<event>
12    1  0.4820219E-008  0.1816428E+04  0.7818608E-02  0.8697612E-01
         -2   -1    0    0    0  501 -0.00000000000E+00  0.00000000000E+00  0.33472619044E+03  0.33472619044E+03  0.00000000000E+00 0.  1.
          2   -1    0    0  501    0  0.00000000000E+00 -0.00000000000E+00 -0.24642612523E+04  0.24642612523E+04  0.00000000000E+00 0. -1.
         23    2    1    2    0    0 -0.47370435405E+03  0.48480365113E+03 -0.96893720569E+03  0.11859144954E+04  0.90130387476E+02 0.  0.
        254    2    1    2    0    0  0.47370435405E+03 -0.48480365113E+03 -0.11605978562E+04  0.16130729473E+04  0.89195658771E+03 0.  0.
         23    2    4    4    0    0  0.19711509959E+03 -0.41106896679E+03 -0.12222407928E+04  0.13071958854E+04  0.84002793393E+02 0.  0.
         23    2    4    4    0    0  0.27658925446E+03 -0.73734684337E+02  0.61642936568E+02  0.30587706194E+03  0.88444932210E+02 0.  0.
         13    1    3    3    0    0 -0.26061302193E+03  0.26658266270E+03 -0.45431474861E+03  0.58769665139E+03  0.00000000000E+00 0.  1.
        -13    1    3    3    0    0 -0.21309133212E+03  0.21822098843E+03 -0.51462245708E+03  0.59821784405E+03  0.00000000000E+00 0. -1.
          2    1    5    5  502    0  0.11348767445E+03 -0.15436698730E+03 -0.44867053395E+03  0.48786664884E+03  0.00000000000E+00 0. -1.
          1    1    6    6  503    0  0.49141885534E+02 -0.18854503960E+02 -0.22486611078E+02  0.57236919127E+02  0.00000000000E+00 0. -1.
         -2    1    5    5    0  502  0.83627425140E+02 -0.25670197949E+03 -0.77357025882E+03  0.81932923654E+03  0.00000000000E+00 0.  1.
         -1    1    6    6    0  503  0.22744736893E+03 -0.54880180377E+02  0.84129547645E+02  0.24864014281E+03  0.00000000000E+00 0.  1.
<mgrwt>
<rscale>  0 0.18164281E+04</rscale>
<asrwt>0</asrwt>
<pdfrwt beam="1">  1        2 0.37911711E+00 0.18164281E+04</pdfrwt>
<pdfrwt beam="2">  1       -2 0.51496338E-01 0.18164281E+04</pdfrwt>
<totfact> 0.12274611E+01</totfact>
</mgrwt>
</event>
<event>
12    1  0.4820219E-008  0.1713769E+04  0.7818608E-02  0.8753550E-01
          1   -1    0    0  501    0  0.00000000000E+00  0.00000000000E+00  0.15853878408E+04  0.15853878408E+04  0.00000000000E+00 0. -1.
         -1   -1    0    0    0  501 -0.00000000000E+00 -0.00000000000E+00 -0.46313663627E+03  0.46313663627E+03  0.00000000000E+00 0.  1.
         23    2    1    2    0    0  0.94617607690E+02  0.22934658449E+03 -0.28115576897E+03  0.38573916983E+03  0.90519573650E+02 0.  0.
        254    2    1    2    0    0 -0.94617607690E+02 -0.22934658449E+03  0.14034069735E+04  0.16627853073E+04  0.85659295889E+03 0.  0.
         23    2    4    4    0    0 -0.65088919959E+01 -0.34317383682E+03  0.12964225226E+03  0.37758737739E+03  0.89187813310E+02 0.  0.
         23    2    4    4    0    0 -0.88108715694E+02  0.11382725233E+03  0.12737647213E+04  0.12851979299E+04  0.92397860685E+02 0.  0.
         13    1    3    3    0    0  0.13840952858E+02  0.14004865198E+03 -0.12260011480E+03  0.18664400619E+03  0.00000000000E+00 0. -1.
        -13    1    3    3    0    0  0.80776654832E+02  0.89297932512E+02 -0.15855565416E+03  0.19909516364E+03  0.00000000000E+00 0.  1.
          1    1    5    5  502    0 -0.44305400805E+01 -0.29198907091E+03  0.14225764632E+03  0.32482993266E+03  0.00000000000E+00 0. -1.
          3    1    6    6  503    0  0.66170840236E+00  0.73564857157E+02  0.55275774524E+03  0.55763191353E+03  0.00000000000E+00 0. -1.
         -1    1    5    5    0  502 -0.20783519154E+01 -0.51184765912E+02 -0.12615394051E+02  0.52757444737E+02  0.00000000000E+00 0.  1.
         -3    1    6    6    0  503 -0.88770424096E+02  0.40262395174E+02  0.72100697602E+03  0.72756601634E+03  0.00000000000E+00 0.  1.
<mgrwt>
<rscale>  0 0.17137692E+04</rscale>
<asrwt>0</asrwt>
<pdfrwt beam="1">  1        1 0.24390582E+00 0.17137692E+04</pdfrwt>
<pdfrwt beam="2">  1       -1 0.71251791E-01 0.17137692E+04</pdfrwt>
<totfact> 0.10797020E+01</totfact>
</mgrwt>
</event>
<event>
12    1  0.4820219E-008  0.1555425E+04  0.7818608E-02  0.8848410E-01
          2   -1    0    0  501    0  0.00000000000E+00  0.00000000000E+00  0.14458797291E+04  0.14458797291E+04  0.00000000000E+00 0.  1.
         -2   -1    0    0    0  501 -0.00000000000E+00 -0.00000000000E+00 -0.41831756852E+03  0.41831756852E+03  0.00000000000E+00 0. -1.
         23    2    1    2    0    0 -0.45660417397E+03 -0.16709756526E+02  0.71061611412E+02  0.47737647997E+03  0.11862530659E+03 0.  0.
        254    2    1    2    0    0  0.45660417397E+03  0.16709756526E+02  0.95650054912E+03  0.13868208176E+04  0.89421031755E+03 0.  0.
         23    2    4    4    0    0  0.36774134282E+03 -0.19238454366E+03  0.10437138662E+04  0.11268859098E+04  0.91036867351E+02 0.  0.
         23    2    4    4    0    0  0.88862831150E+02  0.20909430018E+03 -0.87213317094E+02  0.25993490785E+03  0.91339829805E+02 0.  0.
         11    1    3    3    0    0 -0.25869386252E+02 -0.11367573513E+02 -0.23028937596E+02  0.36452418842E+02  0.00000000000E+00 0.  1.
        -11    1    3    3    0    0 -0.43073478772E+03 -0.53421830123E+01  0.94090549009E+02  0.44092406113E+03  0.00000000000E+00 0. -1.
          1    1    5    5  502    0  0.12821059572E+03 -0.11736934102E+03  0.43707118250E+03  0.47036659919E+03  0.00000000000E+00 0.  1.
          3    1    6    6  503    0  0.10585893754E+03  0.15157505778E+03 -0.64934423786E+02  0.19595303568E+03  0.00000000000E+00 0. -1.
         -1    1    5    5    0  502  0.23953074710E+03 -0.75015202639E+02  0.60664268372E+03  0.65651931056E+03  0.00000000000E+00 0. -1.
         -3    1    6    6    0  503 -0.16996106392E+02  0.57519242405E+02 -0.22278893308E+02  0.63981872170E+02  0.00000000000E+00 0.  1.
<mgrwt>
<rscale>  0 0.15554252E+04</rscale>
<asrwt>0</asrwt>
<pdfrwt beam="1">  1        2 0.22244303E+00 0.15554252E+04</pdfrwt>
<pdfrwt beam="2">  1       -2 0.64356550E-01 0.15554252E+04</pdfrwt>
<totfact> 0.29233468E+01</totfact>
</mgrwt>
</event>
<event>
12    1  0.4820219E-008  0.2059795E+04  0.7818608E-02  0.8579164E-01
         -2   -1    0    0    0  501 -0.00000000000E+00  0.00000000000E+00  0.53547025377E+03  0.53547025377E+03  0.00000000000E+00 0.  1.
          2   -1    0    0  501    0  0.00000000000E+00 -0.00000000000E+00 -0.19808541722E+04  0.19808541722E+04  0.00000000000E+00 0. -1.
         23    2    1    2    0    0 -0.27847204912E+03 -0.26417413508E+03 -0.14892622935E+04  0.15404506020E+04  0.88041028452E+02 0.  0.
        254    2    1    2    0    0  0.27847204912E+03  0.26417413508E+03  0.43878375021E+02  0.97587382398E+03  0.89614159191E+03 0.  0.
         23    2    4    4    0    0 -0.27433100504E+02 -0.19141259105E+03  0.29597094788E+03  0.36519326873E+03  0.91520306620E+02 0.  0.
         23    2    4    4    0    0  0.30590514962E+03  0.45558672612E+03 -0.25209257286E+03  0.61068055524E+03  0.90790140852E+02 0.  0.
         13    1    3    3    0    0 -0.59427330030E+02 -0.81489941457E+02 -0.26870749015E+03  0.28701207880E+03  0.00000000000E+00 0.  1.
        -13    1    3    3    0    0 -0.21904471909E+03 -0.18268419362E+03 -0.12205548033E+04  0.12534385232E+04  0.00000000000E+00 0. -1.
          1    1    6    6  502    0  0.31048257099E+03  0.43182463652E+03 -0.24407856248E+03  0.58518910470E+03  0.00000000000E+00 0. -1.
          1    1    5    5  503    0 -0.61355849815E+02 -0.12491687060E+03  0.19824109727E+03  0.24221539487E+03  0.00000000000E+00 0. -1.
         -1    1    5    5    0  503  0.33922749311E+02 -0.66495720448E+02  0.97729850617E+02  0.12297787386E+03  0.00000000000E+00 0.  1.
         -1    1    6    6    0  502 -0.45774213652E+01  0.23762089599E+02 -0.80140103800E+01  0.25491450544E+02  0.00000000000E+00 0.  1.
<mgrwt>
<rscale>  0 0.20597946E+04</rscale>
<asrwt>0</asrwt>
<pdfrwt beam="1">  1        2 0.30474679E+00 0.20597946E+04</pdfrwt>
<pdfrwt beam="2">  1       -2 0.82380040E-01 0.20597946E+04</pdfrwt>
<totfact> 0.81895045E+00</totfact>
</mgrwt>
</event>
<event>
12    1  0.4820219E-008  0.1575607E+04  0.7818608E-02  0.8835675E-01
          2   -1    0    0  501    0  0.00000000000E+00  0.00000000000E+00  0.17399640222E+04  0.17399640222E+04  0.00000000000E+00 0. -1.
         -2   -1    0    0    0  501 -0.00000000000E+00 -0.00000000000E+00 -0.35669387924E+03  0.35669387924E+03  0.00000000000E+00 0.  1.
         23    2    1    2    0    0 -0.31681893135E+03 -0.14248384573E+02  0.10380580686E+04  0.10894729140E+04  0.93858535878E+02 0.  0.
        254    2    1    2    0    0  0.31681893135E+03  0.14248384573E+02  0.34521207437E+03  0.10071849875E+04  0.89144431738E+03 0.  0.
         23    2    4    4    0    0  0.92279804012E+02 -0.36014198757E+03  0.40410211937E+03  0.55663412077E+03  0.91242578244E+02 0.  0.
         23    2    4    4    0    0  0.22453912734E+03  0.37439037214E+03 -0.58890044994E+02  0.45055086672E+03  0.94562548825E+02 0.  0.
         13    1    3    3    0    0 -0.19363136044E+03  0.30674164276E+02  0.54157075539E+03  0.57596257795E+03  0.00000000000E+00 0. -1.
        -13    1    3    3    0    0 -0.12318757091E+03 -0.44922548849E+02  0.49648731323E+03  0.51351033604E+03  0.00000000000E+00 0.  1.
          1    1    5    5  502    0  0.50521284179E+02 -0.26149005448E+03  0.33964570751E+03  0.43161169514E+03  0.00000000000E+00 0. -1.
          3    1    6    6  503    0  0.14871630402E+03  0.22612414236E+03 -0.81129540119E+02  0.28254321638E+03  0.00000000000E+00 0. -1.
         -1    1    5    5    0  502  0.41758519833E+02 -0.98651933091E+02  0.64456411855E+02  0.12502242563E+03  0.00000000000E+00 0.  1.
         -3    1    6    6    0  503  0.75822823321E+02  0.14826622978E+03  0.22239495125E+02  0.16800765034E+03  0.00000000000E+00 0.  1.
<mgrwt>
<rscale>  0 0.15756072E+04</rscale>
<asrwt>0</asrwt>
<pdfrwt beam="1">  1        2 0.26768677E+00 0.15756072E+04</pdfrwt>
<pdfrwt beam="2">  1       -2 0.54875982E-01 0.15756072E+04</pdfrwt>
<totfact> 0.27958174E+01</totfact>
</mgrwt>
</event>
<event>
12    1  0.4820219E-008  0.1351636E+04  0.7818608E-02  0.8989591E-01
          1   -1    0    0  501    0  0.00000000000E+00  0.00000000000E+00  0.11901973673E+04  0.11901973673E+04  0.00000000000E+00 0. -1.
         -1   -1    0    0    0  501 -0.00000000000E+00 -0.00000000000E+00 -0.38374301055E+03  0.38374301055E+03  0.00000000000E+00 0.  1.
         23    2    1    2    0    0  0.32074866984E+03 -0.16579249120E+03  0.26481852781E+03  0.45710138263E+03  0.91901915041E+02 0.  0.
        254    2    1    2    0    0 -0.32074866984E+03  0.16579249120E+03  0.54163582894E+03  0.11168389952E+04  0.90752030870E+03 0.  0.
         23    2    4    4    0    0  0.25840449709E+03  0.17958842463E+03  0.39283767958E+03  0.51222870472E+03  0.95036398608E+02 0.  0.
         23    2    4    4    0    0 -0.57915316693E+03 -0.13795933429E+02  0.14879814935E+03  0.60461029050E+03  0.88340226291E+02 0.  0.
         13    1    3    3    0    0 -0.57988845836E+01 -0.60901228836E+01  0.23230836198E+01  0.87242980609E+01  0.00000000000E+00 0.  1.
        -13    1    3    3    0    0  0.32654755443E+03 -0.15970236832E+03  0.26249544419E+03  0.44837708457E+03  0.00000000000E+00 0. -1.
          1    1    5    5  502    0  0.14130719563E+02  0.40362612561E+02  0.26049493869E+02  0.50073884001E+02  0.00000000000E+00 0. -1.
          3    1    6    6  503    0 -0.15926061975E+03 -0.10841128370E+02  0.15465288347E+01  0.15963667129E+03  0.00000000000E+00 0. -1.
         -1    1    5    5    0  502  0.24427377752E+03  0.13922581207E+03  0.36678818572E+03  0.46215482072E+03  0.00000000000E+00 0.  1.
         -3    1    6    6    0  503 -0.41989254717E+03 -0.29548050591E+01  0.14725162052E+03  0.44497361921E+03  0.00000000000E+00 0.  1.
<mgrwt>
<rscale>  0 0.13516359E+04</rscale>
<asrwt>0</asrwt>
<pdfrwt beam="1">  1        1 0.18310729E+00 0.13516359E+04</pdfrwt>
<pdfrwt beam="2">  1       -1 0.59037387E-01 0.13516359E+04</pdfrwt>
<totfact> 0.30919474E+01</totfact>
</mgrwt>
</event>
<event>
12    1  0.4820219E-008  0.1084445E+04  0.7818608E-02  0.9220487E-01
         -2   -1    0    0    0  501 -0.00000000000E+00  0.00000000000E+00  0.13659005461E+03  0.13659005461E+03  0.00000000000E+00 0.  1.
          2   -1    0    0  501    0  0.00000000000E+00 -0.00000000000E+00 -0.21524644514E+04  0.21524644514E+04  0.00000000000E+00 0. -1.
         23    2    1    2    0    0  0.76043324510E+02 -0.57311780927E+02 -0.62028227253E+03  0.63388127092E+03  0.89376398237E+02 0.  0.
        254    2    1    2    0    0 -0.76043324510E+02  0.57311780927E+02 -0.13955921243E+04  0.16551732351E+04  0.88479027654E+03 0.  0.
         23    2    4    4    0    0  0.27835793475E+02  0.45554005732E+03 -0.80432685535E+03  0.92892464015E+03  0.87565527598E+02 0.  0.
         23    2    4    4    0    0 -0.10387911799E+03 -0.39822827639E+03 -0.59126526891E+03  0.72624859495E+03  0.92009630883E+02 0.  0.
         11    1    3    3    0    0  0.59202592043E+02 -0.48197242876E+02 -0.60382579774E+03  0.60863249597E+03  0.00000000000E+00 0. -1.
        -11    1    3    3    0    0  0.16840732467E+02 -0.91145380515E+01 -0.16456474791E+02  0.25248774950E+02  0.00000000000E+00 0.  1.
          1    1    5    5  502    0  0.28710885133E+02  0.68448424232E+02 -0.91946695681E+02  0.11816808601E+03  0.00000000000E+00 0. -1.
          3    1    6    6  503    0 -0.44744114234E+02 -0.46848369152E+02 -0.77448101897E+02  0.10097036168E+03  0.00000000000E+00 0. -1.
         -1    1    5    5    0  502 -0.87509165874E+00  0.38709163309E+03 -0.71238015967E+03  0.81075655414E+03  0.00000000000E+00 0.  1.
         -3    1    6    6    0  503 -0.59135003752E+02 -0.35137990724E+03 -0.51381716701E+03  0.62527823327E+03  0.00000000000E+00 0.  1.
<mgrwt>
<rscale>  0 0.10844450E+04</rscale>
<asrwt>0</asrwt>
<pdfrwt beam="1">  1        2 0.33114835E+00 0.10844450E+04</pdfrwt>
<pdfrwt beam="2">  1       -2 0.21013856E-01 0.10844450E+04</pdfrwt>
<totfact> 0.10733390E+02</totfact>
</mgrwt>
</event>
<event>
12    1  0.4820219E-008  0.1790786E+04  0.7818608E-02  0.8711215E-01
         -1   -1    0    0    0  501 -0.00000000000E+00  0.00000000000E+00  0.78427333257E+03  0.78427333257E+03  0.00000000000E+00 0.  1.
          1   -1    0    0  501    0  0.00000000000E+00 -0.00000000000E+00 -0.10222570723E+04  0.10222570723E+04  0.00000000000E+00 0. -1.
         23    2    1    2    0    0 -0.22925163152E+02  0.23366179302E+03 -0.71536072586E+03  0.75856423130E+03  0.92495017586E+02 0.  0.
        254    2    1    2    0    0  0.22925163152E+02 -0.23366179302E+03  0.47737698615E+03  0.10479661735E+04  0.90289585078E+03 0.  0.
         23    2    4    4    0    0  0.32702183195E+03 -0.82255937519E+02 -0.10754455047E+03  0.36541868910E+03  0.90860718572E+02 0.  0.
         23    2    4    4    0    0 -0.30409666879E+03 -0.15140585551E+03  0.58492153662E+03  0.68254748444E+03  0.91320027746E+02 0.  0.
         13    1    3    3    0    0  0.77756267557E+01  0.19900444098E+03 -0.49838638239E+03  0.53670495996E+03  0.00000000000E+00 0. -1.
        -13    1    3    3    0    0 -0.30700789908E+02  0.34657352045E+02 -0.21697434348E+03  0.22185927134E+03  0.00000000000E+00 0.  1.
          2    1    5    5  502    0  0.48522112879E+02 -0.31264720230E+02 -0.50293167189E+02  0.76559002313E+02  0.00000000000E+00 0. -1.
          3    1    6    6  503    0 -0.41309166524E+01 -0.26415969921E+02  0.47964182200E+02  0.54912937577E+02  0.00000000000E+00 0. -1.
         -2    1    5    5    0  502  0.27849971907E+03 -0.50991217288E+02 -0.57251383277E+02  0.28885968678E+03  0.00000000000E+00 0.  1.
         -3    1    6    6    0  503 -0.29996575214E+03 -0.12498988558E+03  0.53695735442E+03  0.62763454687E+03  0.00000000000E+00 0.  1.
<mgrwt>
<rscale>  0 0.17907864E+04</rscale>
<asrwt>0</asrwt>
<pdfrwt beam="1">  1        1 0.15727032E+00 0.17907864E+04</pdfrwt>
<pdfrwt beam="2">  1       -1 0.12065744E+00 0.17907864E+04</pdfrwt>
<totfact> 0.83877470E+00</totfact>
</mgrwt>
</event>
<event>
12    1  0.4820219E-008  0.1767809E+04  0.7818608E-02  0.8723608E-01
          2   -1    0    0  501    0  0.00000000000E+00  0.00000000000E+00  0.27540587536E+04  0.27540587536E+04  0.00000000000E+00 0. -1.
         -2   -1    0    0    0  501 -0.00000000000E+00 -0.00000000000E+00 -0.28368582115E+03  0.28368582115E+03  0.00000000000E+00 0.  1.
         23    2    1    2    0    0 -0.64774567599E+03  0.30380871755E+02  0.78698706019E+03  0.10238687950E+04  0.91984880709E+02 0.  0.
        254    2    1    2    0    0  0.64774567599E+03 -0.30380871755E+02  0.16833858722E+04  0.20138757797E+04  0.89521517149E+03 0.  0.
         23    2    4    4    0    0  0.28438599222E+02 -0.10562050729E+03  0.12294865323E+04  0.12376845509E+04  0.90892624056E+02 0.  0.
         23    2    4    4    0    0  0.61930707677E+03  0.75239635539E+02  0.45389933994E+03  0.77619122878E+03  0.85123174011E+02 0.  0.
         11    1    3    3    0    0 -0.40097123216E+03  0.32303089851E+02  0.55265355461E+03  0.68355495029E+03  0.00000000000E+00 0.  1.
        -11    1    3    3    0    0 -0.24677444382E+03 -0.19222180954E+01  0.23433350558E+03  0.34031384469E+03  0.00000000000E+00 0. -1.
          4    1    5    5  502    0  0.24786039211E+02 -0.31527828570E+02  0.13878581297E+03  0.14446402180E+03  0.00000000000E+00 0. -1.
          1    1    6    6  503    0  0.34451909231E+03  0.78789363658E+02  0.22940038033E+03  0.42133799175E+03  0.00000000000E+00 0. -1.
         -4    1    5    5    0  502  0.36525600107E+01 -0.74092678725E+02  0.10907007193E+04  0.10932205291E+04  0.00000000000E+00 0.  1.
         -1    1    6    6    0  503  0.27478798445E+03 -0.35497281185E+01  0.22449895961E+03  0.35485323703E+03  0.00000000000E+00 0.  1.
<mgrwt>
<rscale>  0 0.17678093E+04</rscale>
<asrwt>0</asrwt>
<pdfrwt beam="1">  1        2 0.42370133E+00 0.17678093E+04</pdfrwt>
<pdfrwt beam="2">  1       -2 0.43643974E-01 0.17678093E+04</pdfrwt>
<totfact> 0.11643781E+01</totfact>
</mgrwt>
</event>
<event>
12    1  0.4820219E-008  0.1810787E+04  0.7818608E-02  0.8700584E-01
          1   -1    0    0  501    0  0.00000000000E+00  0.00000000000E+00  0.18582312386E+04  0.18582312386E+04  0.00000000000E+00 0. -1.
         -1   -1    0    0    0  501 -0.00000000000E+00 -0.00000000000E+00 -0.44113860952E+03  0.44113860952E+03  0.00000000000E+00 0.  1.
         23    2    1    2    0    0 -0.22280502066E+03 -0.42682539241E+03 -0.72587543816E+02  0.49520676578E+03  0.90215278750E+02 0.  0.
        254    2    1    2    0    0  0.22280502066E+03  0.42682539241E+03  0.14896801729E+04  0.18041630824E+04  0.89668022022E+03 0.  0.
         23    2    4    4    0    0  0.74629616350E+02  0.45431972077E+03  0.21329413431E+03  0.51568133805E+03  0.91961222093E+02 0.  0.
         23    2    4    4    0    0  0.14817540431E+03 -0.27494328357E+02  0.12763860386E+04  0.12884817443E+04  0.91170155854E+02 0.  0.
         13    1    3    3    0    0 -0.69041516656E+02 -0.14665246294E+03  0.17829614920E+02  0.16306922173E+03  0.00000000000E+00 0. -1.
        -13    1    3    3    0    0 -0.15376350401E+03 -0.28017292947E+03 -0.90417158736E+02  0.33213754405E+03  0.00000000000E+00 0.  1.
          1    1    5    5  502    0  0.37104560433E+02  0.66105092638E+02  0.59746052020E+02  0.96520580238E+02  0.00000000000E+00 0. -1.
          1    1    6    6  503    0  0.95140414428E+02 -0.11696864388E+02  0.44259269165E+03  0.45285406678E+03  0.00000000000E+00 0. -1.
         -1    1    5    5    0  502  0.37525055917E+02  0.38821462813E+03  0.15354808229E+03  0.41916075781E+03  0.00000000000E+00 0.  1.
         -1    1    6    6    0  503  0.53034989887E+02 -0.15797463968E+02  0.83379334699E+03  0.83562767756E+03  0.00000000000E+00 0.  1.
<mgrwt>
<rscale>  0 0.18107872E+04</rscale>
<asrwt>0</asrwt>
<pdfrwt beam="1">  1        1 0.28588173E+00 0.18107872E+04</pdfrwt>
<pdfrwt beam="2">  1       -1 0.67867479E-01 0.18107872E+04</pdfrwt>
<totfact> 0.77076208E+00</totfact>
</mgrwt>
</event>
<event>
12    1  0.4820219E-008  0.2501381E+04  0.7818608E-02  0.8402494E-01
         -2   -1    0    0    0  501 -0.00000000000E+00  0.00000000000E+00  0.98830806911E+03  0.98830806911E+03  0.00000000000E+00 0.  1.
          2   -1    0    0  501    0  0.00000000000E+00 -0.00000000000E+00 -0.15827313859E+04  0.15827313859E+04  0.00000000000E+00 0. -1.
         23    2    1    2    0    0 -0.99183106489E+03 -0.16480825473E+03 -0.67680872035E+03  0.12155044639E+04  0.92143561007E+02 0.  0.
        254    2    1    2    0    0  0.99183106489E+03  0.16480825473E+03  0.82385403535E+02  0.13555349911E+04  0.90542649357E+03 0.  0.
         23    2    4    4    0    0  0.16297412441E+03 -0.21221391120E+03 -0.25268602650E+03  0.38120955155E+03  0.99373964777E+02 0.  0.
         23    2    4    4    0    0  0.82885694048E+03  0.37702216593E+03  0.33507143003E+03  0.97432543954E+03  0.88812485229E+02 0.  0.
         13    1    3    3    0    0 -0.34362005018E+03 -0.33422285746E+02 -0.27729163226E+03  0.44281196618E+03  0.00000000000E+00 0. -1.
        -13    1    3    3    0    0 -0.64821101471E+03 -0.13138596898E+03 -0.39951708809E+03  0.77269249777E+03  0.00000000000E+00 0.  1.
          2    1    5    5  502    0  0.11698444570E+03 -0.18646375096E+03 -0.24253664718E+03  0.32753338179E+03  0.00000000000E+00 0. -1.
          1    1    6    6  503    0  0.34867492952E+03  0.11150239533E+03  0.14196287729E+03  0.39263271535E+03  0.00000000000E+00 0. -1.
         -2    1    5    5    0  502  0.45989678713E+02 -0.25750160240E+02 -0.10149379313E+02  0.53676169768E+02  0.00000000000E+00 0.  1.
         -1    1    6    6    0  503  0.48018201096E+03  0.26551977060E+03  0.19310855274E+03  0.58169272418E+03  0.00000000000E+00 0.  1.
<mgrwt>
<rscale>  0 0.25013806E+04</rscale>
<asrwt>0</asrwt>
<pdfrwt beam="1">  1        2 0.24349713E+00 0.25013806E+04</pdfrwt>
<pdfrwt beam="2">  1       -2 0.15204740E+00 0.25013806E+04</pdfrwt>
<totfact> 0.29394488E+00</totfact>
</mgrwt>
</event>
<event>
12    1  0.8422832E-008  0.3412765E+04  0.7818608E-02  0.8134780E-01
          1   -1    0    0  501    0  0.00000000000E+00  0.00000000000E+00  0.18597638649E+04  0.18597638649E+04  0.00000000000E+00 0. -1.
         -1   -1    0    0    0  501 -0.00000000000E+00 -0.00000000000E+00 -0.15656514859E+04  0.15656514859E+04  0.00000000000E+00 0.  1.
         23    2    1    2    0    0  0.96422313333E+03 -0.40209593542E+03 -0.10625212668E+04  0.14929281457E+04  0.92063096389E+02 0.  0.
        254    2    1    2    0    0 -0.96422313333E+03  0.40209593542E+03  0.13566336458E+04  0.19324872051E+04  0.89590432344E+03 0.  0.
         23    2    4    4    0    0 -0.69645825275E+03 -0.12661366946E+01  0.12415937195E+04  0.14266918181E+04  0.94015310815E+02 0.  0.
         23    2    4    4    0    0 -0.26776488058E+03  0.40336207212E+03  0.11503992627E+03  0.50579538695E+03  0.90530637485E+02 0.  0.
         13    1    3    3    0    0  0.68301283796E+03 -0.25608719892E+03 -0.78669252623E+03  0.10728337807E+04  0.00000000000E+00 0.  1.
        -13    1    3    3    0    0  0.28121029537E+03 -0.14600873650E+03 -0.27582874061E+03  0.42009436500E+03  0.00000000000E+00 0. -1.
          2    1    5    5  502    0 -0.64773477641E+03 -0.24611913042E+02  0.11302339809E+04  0.13029178556E+04  0.00000000000E+00 0. -1.
          3    1    6    6  503    0 -0.25668733932E+03  0.38895195847E+03  0.89636927618E+02  0.47455957998E+03  0.00000000000E+00 0. -1.
         -2    1    5    5    0  502 -0.48723476339E+02  0.23345776348E+02  0.11135973856E+03  0.12377396250E+03  0.00000000000E+00 0.  1.
         -3    1    6    6    0  503 -0.11077541259E+02  0.14410113653E+02  0.25402998657E+02  0.31235806963E+02  0.00000000000E+00 0.  1.
<mgrwt>
<rscale>  0 0.34127655E+04</rscale>
<asrwt>0</asrwt>
<pdfrwt beam="1">  1        1 0.28611752E+00 0.34127655E+04</pdfrwt>
<pdfrwt beam="2">  1       -1 0.24086946E+00 0.34127655E+04</pdfrwt>
<totfact> 0.24399430E-01</totfact>
</mgrwt>
</event>
<event>
12    1  0.4820219E-008  0.2706296E+04  0.7818608E-02  0.8332965E-01
          1   -1    0    0  501    0  0.00000000000E+00  0.00000000000E+00  0.17619879936E+04  0.17619879936E+04  0.00000000000E+00 0. -1.
         -1   -1    0    0    0  501 -0.00000000000E+00 -0.00000000000E+00 -0.10391722842E+04  0.10391722842E+04  0.00000000000E+00 0.  1.
         23    2    1    2    0    0 -0.98101408747E+03 -0.69555723490E+03  0.38288672780E+03  0.12652847085E+04  0.90303047333E+02 0.  0.
        254    2    1    2    0    0  0.98101408747E+03  0.69555723490E+03  0.33992898157E+03  0.15358755693E+04  0.89284575657E+03 0.  0.
         23    2    4    4    0    0  0.43469204924E+03  0.75673333074E+03  0.42012980358E+03  0.97271402330E+03  0.89783115005E+02 0.  0.
         23    2    4    4    0    0  0.54632203823E+03 -0.61176095837E+02 -0.80200822009E+02  0.56316154600E+03  0.92241372956E+02 0.  0.
         13    1    3    3    0    0 -0.83375347194E+03 -0.55563001649E+03  0.33636123423E+03  0.10568862035E+04  0.00000000000E+00 0.  1.
        -13    1    3    3    0    0 -0.14726061552E+03 -0.13992721842E+03  0.46525493574E+02  0.20839850501E+03  0.00000000000E+00 0. -1.
          1    1    5    5  502    0  0.69174716012E+02  0.13336232451E+03  0.11073380763E+03  0.18663501035E+03  0.00000000000E+00 0. -1.
          3    1    6    6  503    0  0.11705105569E+03 -0.41835918690E+02  0.77596107063E+01  0.12454479230E+03  0.00000000000E+00 0. -1.
         -1    1    5    5    0  502  0.36551733323E+03  0.62337100623E+03  0.30939599596E+03  0.78607901295E+03  0.00000000000E+00 0.  1.
         -3    1    6    6    0  503  0.42927098254E+03 -0.19340177147E+02 -0.87960432715E+02  0.43861675370E+03  0.00000000000E+00 0.  1.
<mgrwt>
<rscale>  0 0.27062957E+04</rscale>
<asrwt>0</asrwt>
<pdfrwt beam="1">  1        1 0.27107508E+00 0.27062957E+04</pdfrwt>
<pdfrwt beam="2">  1       -1 0.15987266E+00 0.27062957E+04</pdfrwt>
<totfact> 0.11052285E+00</totfact>
</mgrwt>
</event>
<event>
12    1  0.4820219E-008  0.1758132E+04  0.7818608E-02  0.8728887E-01
          2   -1    0    0  501    0  0.00000000000E+00  0.00000000000E+00  0.31597102932E+04  0.31597102932E+04  0.00000000000E+00 0. -1.
         -2   -1    0    0    0  501 -0.00000000000E+00 -0.00000000000E+00 -0.24456590562E+03  0.24456590562E+03  0.00000000000E+00 0.  1.
         23    2    1    2    0    0  0.18953460745E+03  0.57962899663E+03  0.65760965969E+03  0.90150300633E+03  0.91455260876E+02 0.  0.
        254    2    1    2    0    0 -0.18953460745E+03 -0.57962899663E+03  0.22575347279E+04  0.25027731925E+04  0.89191785739E+03 0.  0.
         23    2    4    4    0    0 -0.37879340865E+02  0.23030101518E+03  0.56772908417E+03  0.62087441439E+03  0.93248717795E+02 0.  0.
         23    2    4    4    0    0 -0.15165526659E+03 -0.80993001181E+03  0.16898056438E+04  0.18818987782E+04  0.84344256611E+02 0.  0.
         13    1    3    3    0    0  0.13068525472E+03  0.46583179142E+03  0.56248996587E+03  0.74193857927E+03  0.00000000000E+00 0. -1.
        -13    1    3    3    0    0  0.58849352729E+02  0.11379720522E+03  0.95119693816E+02  0.15956442706E+03  0.00000000000E+00 0.  1.
          2    1    5    5  502    0  0.30989098129E+02  0.67383090217E+02  0.18161492949E+03  0.19617540025E+03  0.00000000000E+00 0. -1.
          1    1    6    6  503    0 -0.16043132680E+03 -0.71062936956E+03  0.14762578063E+04  0.16462288487E+04  0.00000000000E+00 0. -1.
         -2    1    5    5    0  502 -0.68868438994E+02  0.16291792496E+03  0.38611415469E+03  0.42469901414E+03  0.00000000000E+00 0.  1.
         -1    1    6    6    0  503  0.87760602126E+01 -0.99300642247E+02  0.21354783744E+03  0.23566992948E+03  0.00000000000E+00 0.  1.
<mgrwt>
<rscale>  0 0.17581324E+04</rscale>
<asrwt>0</asrwt>
<pdfrwt beam="1">  1        2 0.48610925E+00 0.17581324E+04</pdfrwt>
<pdfrwt beam="2">  1       -2 0.37625526E-01 0.17581324E+04</pdfrwt>
<totfact> 0.87426507E+00</totfact>
</mgrwt>
</event>
<event>
12    1  0.4820219E-008  0.1139426E+04  0.7818608E-02  0.9167594E-01
         -2   -1    0    0    0  501 -0.00000000000E+00  0.00000000000E+00  0.19371514540E+03  0.19371514540E+03  0.00000000000E+00 0.  1.
          2   -1    0    0  501    0  0.00000000000E+00 -0.00000000000E+00 -0.16755172520E+04  0.16755172520E+04  0.00000000000E+00 0. -1.
         23    2    1    2    0    0  0.17894916290E+02 -0.19282167137E+03 -0.33643132556E+03  0.39905701296E+03  0.92520472325E+02 0.  0.
        254    2    1    2    0    0 -0.17894916290E+02  0.19282167137E+03 -0.11453707810E+04  0.14701753844E+04  0.90113318102E+03 0.  0.
         23    2    4    4    0    0  0.13757091215E+03  0.80986065238E+02 -0.12284653643E+04  0.12421665358E+04  0.91466128338E+02 0.  0.
         23    2    4    4    0    0 -0.15546582844E+03  0.11183560613E+03  0.83094583323E+02  0.22800884862E+03  0.91686960143E+02 0.  0.
         11    1    3    3    0    0 -0.21544951664E+02 -0.13662001579E+03 -0.17092338952E+03  0.21987273305E+03  0.00000000000E+00 0.  1.
        -11    1    3    3    0    0  0.39439867954E+02 -0.56201655581E+02 -0.16550793604E+03  0.17918427991E+03  0.00000000000E+00 0. -1.
          1    1    5    5  502    0  0.61373334232E+02  0.88178818270E+02 -0.72501135862E+03  0.73292814128E+03  0.00000000000E+00 0. -1.
          3    1    6    6  503    0 -0.93244717901E+02  0.49646936784E+02  0.91341756109E+02  0.13965211118E+03  0.00000000000E+00 0. -1.
         -1    1    5    5    0  502  0.76197577915E+02 -0.71927530322E+01 -0.50345400570E+03  0.50923839450E+03  0.00000000000E+00 0.  1.
         -3    1    6    6    0  503 -0.62221110537E+02  0.62188669347E+02 -0.82471727854E+01  0.88356737437E+02  0.00000000000E+00 0.  1.
<mgrwt>
<rscale>  0 0.11394263E+04</rscale>
<asrwt>0</asrwt>
<pdfrwt beam="1">  1        2 0.25777188E+00 0.11394263E+04</pdfrwt>
<pdfrwt beam="2">  1       -2 0.29802331E-01 0.11394263E+04</pdfrwt>
<totfact> 0.10404433E+02</totfact>
</mgrwt>
</event>
<event>
12    1  0.4820219E-008  0.1972945E+04  0.7818608E-02  0.8619375E-01
          2   -1    0    0  501    0  0.00000000000E+00  0.00000000000E+00  0.10339771533E+04  0.10339771533E+04  0.00000000000E+00 0. -1.
         -2   -1    0    0    0  501 -0.00000000000E+00 -0.00000000000E+00 -0.94115040193E+03  0.94115040193E+03  0.00000000000E+00 0.  1.
         23    2    1    2    0    0  0.10625465157E+02 -0.60444618778E+03  0.52606005353E+03  0.80589700693E+03  0.85221543192E+02 0.  0.
        254    2    1    2    0    0 -0.10625465157E+02  0.60444618778E+03 -0.43323330212E+03  0.11692305483E+04  0.90218672494E+03 0.  0.
         23    2    4    4    0    0 -0.86579035700E+02  0.36734586301E+03 -0.69553274632E+03  0.79656286643E+03  0.91146511068E+02 0.  0.
         23    2    4    4    0    0  0.75953570543E+02  0.23710032477E+03  0.26229944420E+03  0.37266768190E+03  0.89970516408E+02 0.  0.
         11    1    3    3    0    0  0.26422655456E+02 -0.59349815070E+02  0.62915668554E+02  0.90437484595E+02  0.00000000000E+00 0.  1.
        -11    1    3    3    0    0 -0.15797190299E+02 -0.54509637271E+03  0.46314438498E+03  0.71545952233E+03  0.00000000000E+00 0. -1.
          1    1    5    5  502    0 -0.13879535391E+02  0.30664868499E+02 -0.13094251288E+03  0.13519954638E+03  0.00000000000E+00 0.  1.
          3    1    6    6  503    0  0.62507889833E+02  0.21173320699E+03  0.26371313580E+03  0.34392267332E+03  0.00000000000E+00 0. -1.
         -1    1    5    5    0  502 -0.72699500310E+02  0.33668099451E+03 -0.56459023345E+03  0.66136332005E+03  0.00000000000E+00 0. -1.
         -3    1    6    6    0  503  0.13445680710E+02  0.25367117780E+02 -0.14136915990E+01  0.28745008578E+02  0.00000000000E+00 0.  1.
<mgrwt>
<rscale>  0 0.19729450E+04</rscale>
<asrwt>0</asrwt>
<pdfrwt beam="1">  1        2 0.15907341E+00 0.19729450E+04</pdfrwt>
<pdfrwt beam="2">  1       -2 0.14479237E+00 0.19729450E+04</pdfrwt>
<totfact> 0.73375726E+00</totfact>
</mgrwt>
</event>
<event>
12    1  0.4820219E-008  0.2457911E+04  0.7818608E-02  0.8418135E-01
         -2   -1    0    0    0  501 -0.00000000000E+00  0.00000000000E+00  0.12824887639E+04  0.12824887639E+04  0.00000000000E+00 0.  1.
          2   -1    0    0  501    0  0.00000000000E+00 -0.00000000000E+00 -0.11776568747E+04  0.11776568747E+04  0.00000000000E+00 0. -1.
         23    2    1    2    0    0 -0.10178055886E+04  0.23610103797E+03 -0.12519169918E+03  0.10562740977E+04  0.91488204363E+02 0.  0.
        254    2    1    2    0    0  0.10178055886E+04 -0.23610103797E+03  0.23002358839E+03  0.14038715409E+04  0.90899534416E+03 0.  0.
         23    2    4    4    0    0  0.15938445028E+03  0.16419283245E+03  0.36670483426E+03  0.44249466043E+03  0.94691075713E+02 0.  0.
         23    2    4    4    0    0  0.85842113832E+03 -0.40029387042E+03 -0.13668124587E+03  0.96137688042E+03  0.91878777938E+02 0.  0.
         13    1    3    3    0    0 -0.22702684816E+03  0.71919767841E+02 -0.62448710725E+02  0.24619805901E+03  0.00000000000E+00 0.  1.
        -13    1    3    3    0    0 -0.79077874044E+03  0.16418127013E+03 -0.62742988457E+02  0.81007603865E+03  0.00000000000E+00 0. -1.
          4    1    5    5  502    0  0.18807500409E+01  0.21683542965E+02  0.39377239253E+01  0.22118293921E+02  0.00000000000E+00 0. -1.
          3    1    6    6  503    0  0.52588857036E+03 -0.29316279006E+03 -0.77855456115E+02  0.60709528244E+03  0.00000000000E+00 0. -1.
         -4    1    5    5    0  502  0.15750370024E+03  0.14250928949E+03  0.36276711034E+03  0.42037636651E+03  0.00000000000E+00 0.  1.
         -3    1    6    6    0  503  0.33253256795E+03 -0.10713108036E+03 -0.58825789755E+02  0.35428159798E+03  0.00000000000E+00 0.  1.
<mgrwt>
<rscale>  0 0.24579111E+04</rscale>
<asrwt>0</asrwt>
<pdfrwt beam="1">  1        2 0.18117798E+00 0.24579111E+04</pdfrwt>
<pdfrwt beam="2">  1       -2 0.19730596E+00 0.24579111E+04</pdfrwt>
<totfact> 0.24222414E+00</totfact>
</mgrwt>
</event>
<event>
12    1  0.4820219E-008  0.2515060E+04  0.7818608E-02  0.8397640E-01
          2   -1    0    0  501    0  0.00000000000E+00  0.00000000000E+00  0.16105943871E+04  0.16105943871E+04  0.00000000000E+00 0.  1.
         -2   -1    0    0    0  501 -0.00000000000E+00 -0.00000000000E+00 -0.98186203280E+03  0.98186203280E+03  0.00000000000E+00 0. -1.
         23    2    1    2    0    0 -0.36931463858E+03 -0.98406337069E+03 -0.15105331407E+02  0.10549137054E+04  0.88547924907E+02 0.  0.
        254    2    1    2    0    0  0.36931463858E+03  0.98406337069E+03  0.64383768574E+03  0.15375427145E+04  0.91909554107E+03 0.  0.
         23    2    4    4    0    0  0.58060135195E+03  0.62320037196E+03  0.12642677866E+03  0.86607874118E+03  0.92908675960E+02 0.  0.
         23    2    4    4    0    0 -0.21128671336E+03  0.36086299873E+03  0.51741090708E+03  0.67146397335E+03  0.91025499934E+02 0.  0.
         13    1    3    3    0    0 -0.26495858418E+03 -0.72183281423E+03  0.27861206878E+02  0.76942960034E+03  0.00000000000E+00 0.  1.
        -13    1    3    3    0    0 -0.10435605441E+03 -0.26223055646E+03 -0.42966538285E+02  0.28548410507E+03  0.00000000000E+00 0. -1.
          2    1    5    5  502    0  0.25524371680E+03  0.33401473190E+03  0.84309245939E+02  0.42874613122E+03  0.00000000000E+00 0. -1.
          3    1    6    6  503    0 -0.21357723966E+03  0.30664148108E+03  0.45199497870E+03  0.58646713121E+03  0.00000000000E+00 0.  1.
         -2    1    5    5    0  502  0.32535763515E+03  0.28918564007E+03  0.42117532722E+02  0.43733260996E+03  0.00000000000E+00 0.  1.
         -3    1    6    6    0  503  0.22905262975E+01  0.54221517651E+02  0.65415928380E+02  0.84996842135E+02  0.00000000000E+00 0. -1.
<mgrwt>
<rscale>  0 0.25150598E+04</rscale>
<asrwt>0</asrwt>
<pdfrwt beam="1">  1        2 0.24778375E+00 0.25150598E+04</pdfrwt>
<pdfrwt beam="2">  1       -2 0.15105570E+00 0.25150598E+04</pdfrwt>
<totfact> 0.28822782E+00</totfact>
</mgrwt>
</event>
<event>
12    1  0.4820219E-008  0.1577170E+04  0.7818608E-02  0.8834698E-01
         -1   -1    0    0    0  501 -0.00000000000E+00  0.00000000000E+00  0.78135152432E+03  0.78135152432E+03  0.00000000000E+00 0.  1.
          1   -1    0    0  501    0  0.00000000000E+00 -0.00000000000E+00 -0.79588509637E+03  0.79588509637E+03  0.00000000000E+00 0. -1.
         23    2    1    2    0    0 -0.26355675952E+03 -0.21595273506E+03  0.39821497144E+03  0.53152568620E+03  0.88581275362E+02 0.  0.
        254    2    1    2    0    0  0.26355675952E+03  0.21595273506E+03 -0.41274854349E+03  0.10457109345E+04  0.89836086797E+03 0.  0.
         23    2    4    4    0    0  0.27290454852E+03  0.45970134847E+03 -0.53171333836E+03  0.75980481785E+03  0.93712670724E+02 0.  0.
         23    2    4    4    0    0 -0.93477889964E+01 -0.24374861341E+03  0.11896479487E+03  0.28590611664E+03  0.89938409011E+02 0.  0.
         13    1    3    3    0    0 -0.17376243588E+02 -0.16598692462E+02  0.18116713708E+01  0.24098393843E+02  0.00000000000E+00 0. -1.
        -13    1    3    3    0    0 -0.24618051593E+03 -0.19935404260E+03  0.39640330007E+03  0.50742729236E+03  0.00000000000E+00 0.  1.
          2    1    5    5  502    0  0.90930591142E+01  0.77161328147E+02 -0.86323826286E+02  0.11613938725E+03  0.00000000000E+00 0. -1.
          4    1    6    6  503    0 -0.12812896503E+02 -0.13397511452E+03  0.16307704245E+02  0.13557080381E+03  0.00000000000E+00 0. -1.
         -2    1    5    5    0  502  0.26381148940E+03  0.38254002032E+03 -0.44538951207E+03  0.64366543060E+03  0.00000000000E+00 0.  1.
         -4    1    6    6    0  503  0.34651075062E+01 -0.10977349889E+03  0.10265709063E+03  0.15033531283E+03  0.00000000000E+00 0.  1.
<mgrwt>
<rscale>  0 0.15771697E+04</rscale>
<asrwt>0</asrwt>
<pdfrwt beam="1">  1        1 0.12244386E+00 0.15771697E+04</pdfrwt>
<pdfrwt beam="2">  1       -1 0.12020793E+00 0.15771697E+04</pdfrwt>
<totfact> 0.13215021E+01</totfact>
</mgrwt>
</event>
<event>
12    1  0.4820219E-008  0.1357509E+04  0.7818608E-02  0.8985163E-01
         -4   -1    0    0    0  501 -0.00000000000E+00  0.00000000000E+00  0.82007217843E+03  0.82007217843E+03  0.00000000000E+00 0.  1.
          4   -1    0    0  501    0  0.00000000000E+00 -0.00000000000E+00 -0.56178902662E+03  0.56178902662E+03  0.00000000000E+00 0. -1.
         23    2    1    2    0    0 -0.32373169100E+03  0.63061721211E+01 -0.99108630596E+02  0.35059854914E+03  0.90856185451E+02 0.  0.
        254    2    1    2    0    0  0.32373169100E+03 -0.63061721211E+01  0.35739178241E+03  0.10312626559E+04  0.91155460824E+03 0.  0.
         23    2    4    4    0    0 -0.30566749389E+03  0.57652953601E+02  0.75976488092E+02  0.33293224424E+03  0.91186471773E+02 0.  0.
         23    2    4    4    0    0  0.62939918488E+03 -0.63959125722E+02  0.28141529431E+03  0.69833041168E+03  0.90756224640E+02 0.  0.
         13    1    3    3    0    0 -0.31831960598E+03  0.85321465441E+01 -0.11109740767E+03  0.33725776947E+03  0.00000000000E+00 0. -1.
        -13    1    3    3    0    0 -0.54120850134E+01 -0.22259744229E+01  0.11988777073E+02  0.13340779664E+02  0.00000000000E+00 0.  1.
          2    1    5    5  502    0 -0.80236809425E+02 -0.23969008377E+02  0.10472767067E+02  0.84392759164E+02  0.00000000000E+00 0. -1.
          1    1    6    6  503    0  0.12164336588E+01 -0.80775259209E+01  0.60839747762E+01  0.10185326943E+02  0.00000000000E+00 0. -1.
         -2    1    5    5    0  502 -0.22543068446E+03  0.81621961978E+02  0.65503721025E+02  0.24853948508E+03  0.00000000000E+00 0.  1.
         -1    1    6    6    0  503  0.62818275123E+03 -0.55881599801E+02  0.27533131954E+03  0.68814508474E+03  0.00000000000E+00 0.  1.
<mgrwt>
<rscale>  0 0.13575088E+04</rscale>
<asrwt>0</asrwt>
<pdfrwt beam="1">  1        4 0.86429080E-01 0.13575088E+04</pdfrwt>
<pdfrwt beam="2">  1       -4 0.12616495E+00 0.13575088E+04</pdfrwt>
<totfact> 0.10579679E+00</totfact>
</mgrwt>
</event>
<event>
12    1  0.4820219E-008  0.1403970E+04  0.7818608E-02  0.8950950E-01
         -1   -1    0    0    0  501 -0.00000000000E+00  0.00000000000E+00  0.18067169940E+04  0.18067169940E+04  0.00000000000E+00 0.  1.
          1   -1    0    0  501    0  0.00000000000E+00 -0.00000000000E+00 -0.27275063329E+03  0.27275063329E+03  0.00000000000E+00 0. -1.
         23    2    1    2    0    0 -0.22175336483E+03 -0.18171306274E+03  0.22267516884E+02  0.30289169660E+03  0.95149070296E+02 0.  0.
        254    2    1    2    0    0  0.22175336483E+03  0.18171306274E+03  0.15116988438E+04  0.17765759307E+04  0.88814100855E+03 0.  0.
         23    2    4    4    0    0  0.34788878326E+03  0.65636489569E+01  0.14978774603E+04  0.15403416554E+04  0.89139455543E+02 0.  0.
         23    2    4    4    0    0 -0.12613541843E+03  0.17514941378E+03  0.13821383552E+02  0.23623427523E+03  0.95016531291E+02 0.  0.
         11    1    3    3    0    0 -0.72229682378E+02 -0.83216243939E+01  0.12102246591E+02  0.73707807059E+02  0.00000000000E+00 0.  1.
        -11    1    3    3    0    0 -0.14952368245E+03 -0.17339143834E+03  0.10165270293E+02  0.22918388954E+03  0.00000000000E+00 0. -1.
          4    1    5    5  502    0  0.91938642774E+02 -0.15357311910E+02  0.56953381060E+03  0.57711118727E+03  0.00000000000E+00 0. -1.
          3    1    6    6  503    0 -0.16620131180E+02  0.35132014634E+02  0.40903793238E+02  0.56423465987E+02  0.00000000000E+00 0. -1.
         -4    1    5    5    0  502  0.25595014049E+03  0.21920960867E+02  0.92834364967E+03  0.96323046817E+03  0.00000000000E+00 0.  1.
         -3    1    6    6    0  503 -0.10951528725E+03  0.14001739914E+03 -0.27082409686E+02  0.17981080924E+03  0.00000000000E+00 0.  1.
<mgrwt>
<rscale>  0 0.14039704E+04</rscale>
<asrwt>0</asrwt>
<pdfrwt beam="1">  1        1 0.41961637E-01 0.14039704E+04</pdfrwt>
<pdfrwt beam="2">  1       -1 0.27795645E+00 0.14039704E+04</pdfrwt>
<totfact> 0.44501525E+00</totfact>
</mgrwt>
</event>
<event>
12    1  0.4820219E-008  0.1240841E+04  0.7818608E-02  0.9077841E-01
          2   -1    0    0  501    0  0.00000000000E+00  0.00000000000E+00  0.21150811463E+04  0.21150811463E+04  0.00000000000E+00 0.  1.
         -2   -1    0    0    0  501 -0.00000000000E+00 -0.00000000000E+00 -0.18198908134E+03  0.18198908134E+03  0.00000000000E+00 0. -1.
         23    2    1    2    0    0  0.27167691633E+03 -0.27517602677E+01  0.53754278701E+03  0.60832717251E+03  0.85403641015E+02 0.  0.
        254    2    1    2    0    0 -0.27167691633E+03  0.27517602677E+01  0.13955492779E+04  0.16887430551E+04  0.91130642487E+03 0.  0.
         23    2    4    4    0    0 -0.24833878601E+03 -0.42785777120E+03  0.83923291413E+03  0.97895884261E+03  0.96509617868E+02 0.  0.
         23    2    4    4    0    0 -0.23338130326E+02  0.43060953147E+03  0.55631636379E+03  0.70978421251E+03  0.91304407230E+02 0.  0.
         13    1    3    3    0    0 -0.35696201360E+01  0.85338177050E+01  0.15199308942E+02  0.17792898158E+02  0.00000000000E+00 0. -1.
        -13    1    3    3    0    0  0.27524653647E+03 -0.11285577973E+02  0.52234347806E+03  0.59053427435E+03  0.00000000000E+00 0.  1.
          2    1    5    5  502    0 -0.10056739138E+03 -0.25428392157E+03  0.40758607481E+03  0.49081617878E+03  0.00000000000E+00 0. -1.
          1    1    6    6  503    0 -0.57267188251E+02  0.30017160629E+03  0.40040378882E+03  0.50369208667E+03  0.00000000000E+00 0. -1.
         -2    1    5    5    0  502 -0.14777139462E+03 -0.17357384963E+03  0.43164683933E+03  0.48814266382E+03  0.00000000000E+00 0.  1.
         -1    1    6    6    0  503  0.33929057925E+02  0.13043792518E+03  0.15591257497E+03  0.20609212584E+03  0.00000000000E+00 0.  1.
<mgrwt>
<rscale>  0 0.12408411E+04</rscale>
<asrwt>0</asrwt>
<pdfrwt beam="1">  1        2 0.32539708E+00 0.12408411E+04</pdfrwt>
<pdfrwt beam="2">  1       -2 0.27998322E-01 0.12408411E+04</pdfrwt>
<totfact> 0.66242665E+01</totfact>
</mgrwt>
</event>
<event>
12    1  0.4820219E-008  0.1579394E+04  0.7818608E-02  0.8833308E-01
          2   -1    0    0  501    0  0.00000000000E+00  0.00000000000E+00  0.90145381284E+03  0.90145381284E+03  0.00000000000E+00 0. -1.
         -2   -1    0    0    0  501 -0.00000000000E+00 -0.00000000000E+00 -0.69179505461E+03  0.69179505461E+03  0.00000000000E+00 0.  1.
         23    2    1    2    0    0 -0.47423141731E+03  0.23047061388E+03  0.15402866362E+03  0.55674195512E+03  0.90689769833E+02 0.  0.
        254    2    1    2    0    0  0.47423141731E+03 -0.23047061388E+03  0.55630094614E+02  0.10365069123E+04  0.89064006808E+03 0.  0.
         23    2    4    4    0    0  0.54099078373E+03 -0.29407384481E+03  0.34997810305E+03  0.71408946531E+03  0.91041955034E+02 0.  0.
         23    2    4    4    0    0 -0.66759366423E+02  0.63603230929E+02 -0.29434800843E+03  0.32241744703E+03  0.93862005576E+02 0.  0.
         13    1    3    3    0    0 -0.36283830710E+03  0.18488798474E+03  0.15674336442E+03  0.43635270859E+03  0.00000000000E+00 0. -1.
        -13    1    3    3    0    0 -0.11139311021E+03  0.45582629139E+02 -0.27147008010E+01  0.12038924653E+03  0.00000000000E+00 0.  1.
          2    1    5    5  502    0  0.50996887797E+03 -0.29501068764E+03  0.31786956722E+03  0.66943306169E+03  0.00000000000E+00 0. -1.
          1    1    6    6  503    0 -0.10150267962E+02  0.71318187769E+02 -0.13304500408E+03  0.15129535669E+03  0.00000000000E+00 0. -1.
         -2    1    5    5    0  502  0.31021905766E+02  0.93684283359E+00  0.32108535825E+02  0.44656403624E+02  0.00000000000E+00 0.  1.
         -1    1    6    6    0  503 -0.56609098461E+02 -0.77149568400E+01 -0.16130300435E+03  0.17112209034E+03  0.00000000000E+00 0.  1.
<mgrwt>
<rscale>  0 0.15793939E+04</rscale>
<asrwt>0</asrwt>
<pdfrwt beam="1">  1        2 0.13868520E+00 0.15793939E+04</pdfrwt>
<pdfrwt beam="2">  1       -2 0.10643001E+00 0.15793939E+04</pdfrwt>
<totfact> 0.19995791E+01</totfact>
</mgrwt>
</event>
<event>
12    1  0.4820219E-008  0.1812832E+04  0.7818608E-02  0.8699505E-01
          2   -1    0    0  501    0  0.00000000000E+00  0.00000000000E+00  0.10649018377E+04  0.10649018377E+04  0.00000000000E+00 0. -1.
         -2   -1    0    0    0  501 -0.00000000000E+00 -0.00000000000E+00 -0.77151704335E+03  0.77151704335E+03  0.00000000000E+00 0.  1.
         23    2    1    2    0    0 -0.34178607439E+03  0.51171564003E+03  0.39971469765E+03  0.73974664873E+03  0.93715782567E+02 0.  0.
        254    2    1    2    0    0  0.34178607439E+03 -0.51171564003E+03 -0.10632990325E+03  0.10966722324E+04  0.90150613974E+03 0.  0.
         23    2    4    4    0    0  0.21471333101E+03 -0.44341067611E+03 -0.47487572081E+03  0.69104588009E+03  0.96553694750E+02 0.  0.
         23    2    4    4    0    0  0.12707274338E+03 -0.68304963917E+02  0.36854581755E+03  0.40562635227E+03  0.88846315674E+02 0.  0.
         11    1    3    3    0    0 -0.18299145818E+03  0.31491170154E+03  0.28295341394E+03  0.46121349503E+03  0.00000000000E+00 0. -1.
        -11    1    3    3    0    0 -0.15879461621E+03  0.19680393848E+03  0.11676128371E+03  0.27853315371E+03  0.00000000000E+00 0.  1.
          2    1    5    5  502    0  0.22375110247E+03 -0.42662370135E+03 -0.46510380384E+03  0.66962219703E+03  0.00000000000E+00 0. -1.
          1    1    6    6  503    0  0.21398790445E+01 -0.22786080959E+02  0.13461626022E+03  0.13654787470E+03  0.00000000000E+00 0. -1.
         -2    1    5    5    0  502 -0.90377714571E+01 -0.16786974755E+02 -0.97719169680E+01  0.21423683054E+02  0.00000000000E+00 0.  1.
         -1    1    6    6    0  503  0.12493286434E+03 -0.45518882958E+02  0.23392955733E+03  0.26907847757E+03  0.00000000000E+00 0.  1.
<mgrwt>
<rscale>  0 0.18128319E+04</rscale>
<asrwt>0</asrwt>
<pdfrwt beam="1">  1        2 0.16383105E+00 0.18128319E+04</pdfrwt>
<pdfrwt beam="2">  1       -2 0.11869493E+00 0.18128319E+04</pdfrwt>
<totfact> 0.11790018E+01</totfact>
</mgrwt>
</event>
<event>
12    1  0.4820219E-008  0.2524667E+04  0.7818608E-02  0.8394250E-01
         -2   -1    0    0    0  501 -0.00000000000E+00  0.00000000000E+00  0.70388907237E+03  0.70388907237E+03  0.00000000000E+00 0.  1.
          2   -1    0    0  501    0  0.00000000000E+00 -0.00000000000E+00 -0.22638307213E+04  0.22638307213E+04  0.00000000000E+00 0. -1.
         23    2    1    2    0    0  0.50570810324E+03  0.96453875169E+03 -0.94337806001E+03  0.14435528967E+04  0.88357865201E+02 0.  0.
        254    2    1    2    0    0 -0.50570810324E+03 -0.96453875169E+03 -0.61656358892E+03  0.15241668969E+04  0.86997608091E+03 0.  0.
         23    2    4    4    0    0 -0.57933918499E+03 -0.42762848385E+03 -0.64891684220E+03  0.97362346964E+03  0.91376042170E+02 0.  0.
         23    2    4    4    0    0  0.73631081746E+02 -0.53691026785E+03  0.32353253276E+02  0.55054342731E+03  0.91417506187E+02 0.  0.
         13    1    3    3    0    0  0.29073516356E+03  0.51967602704E+03 -0.46129514893E+03  0.75324851333E+03  0.00000000000E+00 0. -1.
        -13    1    3    3    0    0  0.21497293968E+03  0.44486272465E+03 -0.48208291108E+03  0.69030438340E+03  0.00000000000E+00 0.  1.
          2    1    5    5  502    0 -0.45273237385E+03 -0.37407542085E+03 -0.50423869513E+03  0.77405147405E+03  0.00000000000E+00 0. -1.
          1    1    6    6  503    0  0.45640458136E+02 -0.50481759554E+03  0.33057501627E+02  0.50795339806E+03  0.00000000000E+00 0. -1.
         -2    1    5    5    0  502 -0.12660681114E+03 -0.53553062992E+02 -0.14467814706E+03  0.19957199558E+03  0.00000000000E+00 0.  1.
         -1    1    6    6    0  503  0.27990623610E+02 -0.32092672309E+02 -0.70424835139E+00  0.42590029252E+02  0.00000000000E+00 0.  1.
<mgrwt>
<rscale>  0 0.25246669E+04</rscale>
<asrwt>0</asrwt>
<pdfrwt beam="1">  1        2 0.34828165E+00 0.25246669E+04</pdfrwt>
<pdfrwt beam="2">  1       -2 0.10829063E+00 0.25246669E+04</pdfrwt>
<totfact> 0.28863394E+00</totfact>
</mgrwt>
</event>
<event>
12    1  0.4820219E-008  0.1757113E+04  0.7818608E-02  0.8729444E-01
          1   -1    0    0  501    0  0.00000000000E+00  0.00000000000E+00  0.79288051854E+03  0.79288051854E+03  0.00000000000E+00 0. -1.
         -1   -1    0    0    0  501 -0.00000000000E+00 -0.00000000000E+00 -0.97349087725E+03  0.97349087725E+03  0.00000000000E+00 0.  1.
         23    2    1    2    0    0  0.49407759071E+03 -0.22845066892E+03 -0.41711008352E+03  0.69046453077E+03  0.80362134757E+02 0.  0.
        254    2    1    2    0    0 -0.49407759071E+03  0.22845066892E+03  0.23649972481E+03  0.10759068650E+04  0.89740798335E+03 0.  0.
         23    2    4    4    0    0 -0.48694450095E+03  0.33797460341E+03 -0.18768608715E+03  0.62835396346E+03  0.90889254236E+02 0.  0.
         23    2    4    4    0    0 -0.71330897671E+01 -0.10952393449E+03  0.42418581196E+03  0.44755290156E+03  0.91233894076E+02 0.  0.
         11    1    3    3    0    0  0.17784094910E+03 -0.40681318081E+02 -0.13546359399E+03  0.22722842717E+03  0.00000000000E+00 0. -1.
        -11    1    3    3    0    0  0.31623664161E+03 -0.18776935084E+03 -0.28164648954E+03  0.46323610360E+03  0.00000000000E+00 0.  1.
          1    1    5    5  502    0 -0.15220061597E+03  0.10023234416E+03 -0.14734501232E+02  0.18283505092E+03  0.00000000000E+00 0. -1.
          3    1    6    6  503    0  0.34458090069E+02 -0.31740929707E+02  0.84674166913E+02  0.96770662559E+02  0.00000000000E+00 0. -1.
         -1    1    5    5    0  502 -0.33474388498E+03  0.23774225924E+03 -0.17295158592E+03  0.44551891254E+03  0.00000000000E+00 0.  1.
         -3    1    6    6    0  503 -0.41591179836E+02 -0.77783004779E+02  0.33951164505E+03  0.35078223900E+03  0.00000000000E+00 0.  1.
<mgrwt>
<rscale>  0 0.17571135E+04</rscale>
<asrwt>0</asrwt>
<pdfrwt beam="1">  1        1 0.12198162E+00 0.17571135E+04</pdfrwt>
<pdfrwt beam="2">  1       -1 0.14976783E+00 0.17571135E+04</pdfrwt>
<totfact> 0.74428285E+00</totfact>
</mgrwt>
</event>
<event>
12    1  0.4820219E-008  0.5003654E+04  0.7818608E-02  0.7827944E-01
         -2   -1    0    0    0  501 -0.00000000000E+00  0.00000000000E+00  0.17668231947E+04  0.17668231947E+04  0.00000000000E+00 0. -1.
          2   -1    0    0  501    0  0.00000000000E+00 -0.00000000000E+00 -0.35425944859E+04  0.35425944859E+04  0.00000000000E+00 0.  1.
         23    2    1    2    0    0  0.19840437958E+04  0.32844433481E+03 -0.22874814456E+04  0.30471682193E+04  0.91418422382E+02 0.  0.
        254    2    1    2    0    0 -0.19840437958E+04 -0.32844433481E+03  0.51171015449E+03  0.22622494612E+04  0.90089948273E+03 0.  0.
         23    2    4    4    0    0 -0.14265353223E+04 -0.52769394188E+03  0.63483558536E+03  0.16508248537E+04  0.93501630885E+02 0.  0.
         23    2    4    4    0    0 -0.55750847349E+03  0.19924960707E+03 -0.12312543087E+03  0.61142460758E+03  0.90355271511E+02 0.  0.
         13    1    3    3    0    0  0.38490690325E+03  0.99988711189E+02 -0.44202336817E+03  0.59458870200E+03  0.00000000000E+00 0. -1.
        -13    1    3    3    0    0  0.15991368925E+04  0.22845562362E+03 -0.18454580775E+04  0.24525795173E+04  0.00000000000E+00 0.  1.
          4    1    5    5  502    0 -0.11342797217E+04 -0.44458890329E+03  0.47614163042E+03  0.13080369384E+04  0.00000000000E+00 0. -1.
          1    1    6    6  503    0 -0.28033382607E+03  0.84555162820E+02 -0.17232970276E+02  0.29331485619E+03  0.00000000000E+00 0. -1.
         -4    1    5    5    0  502 -0.29225560056E+03 -0.83105038587E+02  0.15869395494E+03  0.34278791523E+03  0.00000000000E+00 0.  1.
         -1    1    6    6    0  503 -0.27717464743E+03  0.11469444425E+03 -0.10589246059E+03  0.31810975139E+03  0.00000000000E+00 0.  1.
<mgrwt>
<rscale>  0 0.50036539E+04</rscale>
<asrwt>0</asrwt>
<pdfrwt beam="1">  1        2 0.54501453E+00 0.50036539E+04</pdfrwt>
<pdfrwt beam="2">  1       -2 0.27181895E+00 0.50036539E+04</pdfrwt>
<totfact> 0.26030818E-02</totfact>
</mgrwt>
</event>
<event>
12    1  0.4820219E-008  0.1261447E+04  0.7818608E-02  0.9060709E-01
          1   -1    0    0  501    0  0.00000000000E+00  0.00000000000E+00  0.11795924469E+04  0.11795924469E+04  0.00000000000E+00 0. -1.
         -1   -1    0    0    0  501 -0.00000000000E+00 -0.00000000000E+00 -0.33724552115E+03  0.33724552115E+03  0.00000000000E+00 0.  1.
         23    2    1    2    0    0 -0.36918259371E+02  0.64428158627E+02 -0.13803871814E+03  0.18258476945E+03  0.93640615271E+02 0.  0.
        254    2    1    2    0    0  0.36918259371E+02 -0.64428158627E+02  0.98038564388E+03  0.13342531986E+04  0.90197651950E+03 0.  0.
         23    2    4    4    0    0  0.42915824310E+03 -0.17796723797E+03  0.40881091339E+03  0.62595407886E+03  0.94037282637E+02 0.  0.
         23    2    4    4    0    0 -0.39223998373E+03  0.11353907934E+03  0.57157473049E+03  0.70829911973E+03  0.90811029642E+02 0.  0.
         11    1    3    3    0    0 -0.55335414093E+02  0.74821494759E+02 -0.13018467689E+03  0.16002597985E+03  0.00000000000E+00 0.  1.
        -11    1    3    3    0    0  0.18417154722E+02 -0.10393336132E+02 -0.78540412555E+01  0.22558789596E+02  0.00000000000E+00 0. -1.
          4    1    5    5  502    0  0.23135422143E+03 -0.91232485791E+02  0.27990677513E+03  0.37442748964E+03  0.00000000000E+00 0. -1.
          4    1    6    6  503    0 -0.31615470501E+03  0.11584746393E+03  0.50620539584E+03  0.60796244554E+03  0.00000000000E+00 0. -1.
         -4    1    5    5    0  502  0.19780402167E+03 -0.86734752181E+02  0.12890413827E+03  0.25152658922E+03  0.00000000000E+00 0.  1.
         -4    1    6    6    0  503 -0.76085278714E+02 -0.23083845828E+01  0.65369334641E+02  0.10033667419E+03  0.00000000000E+00 0.  1.
<mgrwt>
<rscale>  0 0.12614472E+04</rscale>
<asrwt>0</asrwt>
<pdfrwt beam="1">  1        1 0.18147576E+00 0.12614472E+04</pdfrwt>
<pdfrwt beam="2">  1       -1 0.51883927E-01 0.12614472E+04</pdfrwt>
<totfact> 0.40747415E+01</totfact>
</mgrwt>
</event>
<event>
12    1  0.4820219E-008  0.1791779E+04  0.7818608E-02  0.8710684E-01
         -2   -1    0    0    0  501 -0.00000000000E+00  0.00000000000E+00  0.93524009797E+03  0.93524009797E+03  0.00000000000E+00 0.  1.
          2   -1    0    0  501    0  0.00000000000E+00 -0.00000000000E+00 -0.85819437694E+03  0.85819437694E+03  0.00000000000E+00 0. -1.
         23    2    1    2    0    0 -0.26356460119E+03  0.17716009389E+03 -0.55706180713E+03  0.64754012288E+03  0.90212836700E+02 0.  0.
        254    2    1    2    0    0  0.26356460119E+03 -0.17716009389E+03  0.63410752816E+03  0.11458943520E+04  0.90007194761E+03 0.  0.
         23    2    4    4    0    0  0.50635213817E+03 -0.24956048258E+03  0.66285987301E+03  0.87536137811E+03  0.90561629502E+02 0.  0.
         23    2    4    4    0    0 -0.24278753698E+03  0.72400388687E+02 -0.28752344842E+02  0.27053297393E+03  0.90409005373E+02 0.  0.
         13    1    3    3    0    0 -0.11765648147E+03  0.10412729109E+03 -0.19507489044E+03  0.25047904755E+03  0.00000000000E+00 0.  1.
        -13    1    3    3    0    0 -0.14590811972E+03  0.73032802802E+02 -0.36198691669E+03  0.39706107532E+03  0.00000000000E+00 0. -1.
          2    1    5    5  502    0  0.34105645588E+03 -0.18317264193E+03  0.51232069672E+03  0.64214034224E+03  0.00000000000E+00 0. -1.
          1    1    6    6  503    0 -0.24995637028E+03  0.64563576923E+02 -0.25456088732E+02  0.25941213341E+03  0.00000000000E+00 0. -1.
         -2    1    5    5    0  502  0.16529568230E+03 -0.66387840651E+02  0.15053917628E+03  0.23322103586E+03  0.00000000000E+00 0.  1.
         -1    1    6    6    0  503  0.71688332957E+01  0.78368117640E+01 -0.32962561105E+01  0.11120840516E+02  0.00000000000E+00 0.  1.
<mgrwt>
<rscale>  0 0.17917788E+04</rscale>
<asrwt>0</asrwt>
<pdfrwt beam="1">  1        2 0.13202990E+00 0.17917788E+04</pdfrwt>
<pdfrwt beam="2">  1       -2 0.14388309E+00 0.17917788E+04</pdfrwt>
<totfact> 0.98927282E+00</totfact>
</mgrwt>
</event>
<event>
12    1  0.4820219E-008  0.2127409E+04  0.7818608E-02  0.8549265E-01
          2   -1    0    0  501    0  0.00000000000E+00  0.00000000000E+00  0.21918284766E+04  0.21918284766E+04  0.00000000000E+00 0. -1.
         -2   -1    0    0    0  501 -0.00000000000E+00 -0.00000000000E+00 -0.51622074283E+03  0.51622074283E+03  0.00000000000E+00 0.  1.
         23    2    1    2    0    0 -0.74615825500E+03 -0.21030724670E+03  0.12121471554E+04  0.14416072026E+04  0.89158963447E+02 0.  0.
        254    2    1    2    0    0  0.74615825500E+03  0.21030724670E+03  0.46346057833E+03  0.12664420168E+04  0.88774906064E+03 0.  0.
         23    2    4    4    0    0  0.10362422797E+03  0.94294006840E+02 -0.24592391179E+03  0.29812091807E+03  0.93638512671E+02 0.  0.
         23    2    4    4    0    0  0.64253402703E+03  0.11601323986E+03  0.70938449012E+03  0.96832109870E+03  0.90057468584E+02 0.  0.
         11    1    3    3    0    0 -0.41213087607E+03 -0.13618045047E+03  0.60343883411E+03  0.74332725001E+03  0.00000000000E+00 0. -1.
        -11    1    3    3    0    0 -0.33402737893E+03 -0.74126796230E+02  0.60870832131E+03  0.69827995262E+03  0.00000000000E+00 0.  1.
          2    1    5    5  502    0  0.10163829618E+03  0.34649105451E+02 -0.17621989152E+03  0.20635976818E+03  0.00000000000E+00 0. -1.
          3    1    6    6  503    0  0.61372615823E+03  0.11036315983E+03  0.70008189822E+03  0.93752572688E+03  0.00000000000E+00 0.  1.
         -2    1    5    5    0  502  0.19859317883E+01  0.59644901389E+02 -0.69704020274E+02  0.91761149890E+02  0.00000000000E+00 0.  1.
         -3    1    6    6    0  503  0.28807868805E+02  0.56500800315E+01  0.93025918907E+01  0.30795371817E+02  0.00000000000E+00 0. -1.
<mgrwt>
<rscale>  0 0.21274091E+04</rscale>
<asrwt>0</asrwt>
<pdfrwt beam="1">  1        2 0.33720438E+00 0.21274091E+04</pdfrwt>
<pdfrwt beam="2">  1       -2 0.79418577E-01 0.21274091E+04</pdfrwt>
<totfact> 0.67423303E+00</totfact>
</mgrwt>
</event>
<event>
12    1  0.4820219E-008  0.1980488E+04  0.7818608E-02  0.8615798E-01
         -1   -1    0    0    0  501 -0.00000000000E+00  0.00000000000E+00  0.53992767318E+03  0.53992767318E+03  0.00000000000E+00 0.  1.
          1   -1    0    0  501    0  0.00000000000E+00 -0.00000000000E+00 -0.18161386203E+04  0.18161386203E+04  0.00000000000E+00 0. -1.
         23    2    1    2    0    0 -0.48901452950E+03  0.40143346117E+03 -0.10116688330E+04  0.11971425402E+04  0.96914395444E+02 0.  0.
        254    2    1    2    0    0  0.48901452950E+03 -0.40143346117E+03 -0.26454211410E+03  0.11589237533E+04  0.93425783485E+03 0.  0.
         23    2    4    4    0    0  0.39622049171E+03  0.20420290806E+03  0.61007473056E+02  0.45921822836E+03  0.92032406116E+02 0.  0.
         23    2    4    4    0    0  0.92794037790E+02 -0.60563636923E+03 -0.32554958716E+03  0.69970552492E+03  0.90549117746E+02 0.  0.
         13    1    3    3    0    0 -0.42487417173E+03  0.38611525341E+03 -0.90600971055E+03  0.10725934208E+04  0.00000000000E+00 0. -1.
        -13    1    3    3    0    0 -0.64140357772E+02  0.15318207761E+02 -0.10565912246E+03  0.12454911940E+03  0.00000000000E+00 0.  1.
          4    1    5    5  502    0  0.34476907780E+03  0.20497732995E+03  0.69463693829E+02  0.40707078937E+03  0.00000000000E+00 0.  1.
          3    1    6    6  503    0 -0.17407476307E+02 -0.57943710079E+02 -0.37001300539E+02  0.70919602443E+02  0.00000000000E+00 0. -1.
         -4    1    5    5    0  502  0.51451413915E+02 -0.77442189195E+00 -0.84562207738E+01  0.52147438987E+02  0.00000000000E+00 0. -1.
         -3    1    6    6    0  503  0.11020151410E+03 -0.54769265915E+03 -0.28854828662E+03  0.62878592248E+03  0.00000000000E+00 0.  1.
<mgrwt>
<rscale>  0 0.19804883E+04</rscale>
<asrwt>0</asrwt>
<pdfrwt beam="1">  1        1 0.27940594E+00 0.19804883E+04</pdfrwt>
<pdfrwt beam="2">  1       -1 0.83065796E-01 0.19804883E+04</pdfrwt>
<totfact> 0.53111032E+00</totfact>
</mgrwt>
</event>
<event>
12    1  0.4820219E-008  0.1702033E+04  0.7818608E-02  0.8760206E-01
          2   -1    0    0  501    0  0.00000000000E+00  0.00000000000E+00  0.20708252064E+04  0.20708252064E+04  0.00000000000E+00 0. -1.
         -2   -1    0    0    0  501 -0.00000000000E+00 -0.00000000000E+00 -0.34972970919E+03  0.34972970919E+03  0.00000000000E+00 0.  1.
         23    2    1    2    0    0 -0.73657788246E+02  0.50620962473E+03  0.10695316503E+04  0.11887512673E+04  0.86936589540E+02 0.  0.
        254    2    1    2    0    0  0.73657788246E+02 -0.50620962473E+03  0.65156384692E+03  0.12318036483E+04  0.91166393335E+03 0.  0.
         23    2    4    4    0    0  0.26555047501E+03 -0.66925892370E+03  0.63522427111E+03  0.96455978173E+03  0.91875656160E+02 0.  0.
         23    2    4    4    0    0 -0.19189268676E+03  0.16304929897E+03  0.16339575813E+02  0.26724386656E+03  0.88002416719E+02 0.  0.
         13    1    3    3    0    0 -0.27011038762E+02  0.39674771658E+02  0.13332698732E+03  0.14170310253E+03  0.00000000000E+00 0.  1.
        -13    1    3    3    0    0 -0.46646749484E+02  0.46653485307E+03  0.93620466298E+03  0.10470481648E+04  0.00000000000E+00 0. -1.
          2    1    5    5  502    0  0.25748157274E+03 -0.62976936843E+03  0.56857034912E+03  0.88666705116E+03  0.00000000000E+00 0.  1.
          4    1    6    6  503    0 -0.79510530400E+01  0.42008655971E+02  0.19583250257E+02  0.47026057793E+02  0.00000000000E+00 0. -1.
         -2    1    5    5    0  502  0.80689022643E+01 -0.39489555276E+02  0.66653921988E+02  0.77892730572E+02  0.00000000000E+00 0. -1.
         -4    1    6    6    0  503 -0.18394163372E+03  0.12104064300E+03 -0.32436744436E+01  0.22021780876E+03  0.00000000000E+00 0.  1.
<mgrwt>
<rscale>  0 0.17020330E+04</rscale>
<asrwt>0</asrwt>
<pdfrwt beam="1">  1        2 0.31858849E+00 0.17020330E+04</pdfrwt>
<pdfrwt beam="2">  1       -2 0.53804572E-01 0.17020330E+04</pdfrwt>
<totfact> 0.18891768E+01</totfact>
</mgrwt>
</event>
<event>
12    1  0.4820219E-008  0.2562612E+04  0.7818608E-02  0.8381013E-01
          1   -1    0    0  501    0  0.00000000000E+00  0.00000000000E+00  0.14813229568E+04  0.14813229568E+04  0.00000000000E+00 0. -1.
         -1   -1    0    0    0  501 -0.00000000000E+00 -0.00000000000E+00 -0.11082961685E+04  0.11082961685E+04  0.00000000000E+00 0.  1.
         23    2    1    2    0    0 -0.64031999402E+03  0.70147483809E+03 -0.44203328412E+03  0.10523064677E+04  0.99392326313E+02 0.  0.
        254    2    1    2    0    0  0.64031999402E+03 -0.70147483809E+03  0.81506007242E+03  0.15373126576E+04  0.89270971906E+03 0.  0.
         23    2    4    4    0    0  0.76981179455E+03 -0.76525583878E+03  0.54524417155E+03  0.12180174070E+04  0.89713429125E+02 0.  0.
         23    2    4    4    0    0 -0.12949180053E+03  0.63781000690E+02  0.26981590087E+03  0.31929525064E+03  0.91173977986E+02 0.  0.
         11    1    3    3    0    0 -0.24284553141E+03  0.28151840065E+03 -0.22570034568E+03  0.43493356742E+03  0.00000000000E+00 0.  1.
        -11    1    3    3    0    0 -0.39747446261E+03  0.41995643745E+03 -0.21633293844E+03  0.61737290030E+03  0.00000000000E+00 0. -1.
          4    1    5    5  502    0  0.42068050483E+03 -0.47321564495E+03  0.29381201418E+03  0.69801907815E+03  0.00000000000E+00 0. -1.
          1    1    6    6  503    0 -0.95063563482E+02  0.86273307703E+02  0.21980334687E+03  0.25454601946E+03  0.00000000000E+00 0. -1.
         -4    1    5    5    0  502  0.34913128972E+03 -0.29204019383E+03  0.25143215736E+03  0.51999832887E+03  0.00000000000E+00 0.  1.
         -1    1    6    6    0  503 -0.34428237048E+02 -0.22492307013E+02  0.50012553997E+02  0.64749231179E+02  0.00000000000E+00 0.  1.
<mgrwt>
<rscale>  0 0.25626116E+04</rscale>
<asrwt>0</asrwt>
<pdfrwt beam="1">  1        1 0.22789584E+00 0.25626116E+04</pdfrwt>
<pdfrwt beam="2">  1       -1 0.17050710E+00 0.25626116E+04</pdfrwt>
<totfact> 0.14529839E+00</totfact>
</mgrwt>
</event>
<event>
12    1  0.4820219E-008  0.2458753E+04  0.7818608E-02  0.8417829E-01
         -1   -1    0    0    0  501 -0.00000000000E+00  0.00000000000E+00  0.48305818840E+03  0.48305818840E+03  0.00000000000E+00 0.  1.
          1   -1    0    0  501    0  0.00000000000E+00 -0.00000000000E+00 -0.31287472290E+04  0.31287472290E+04  0.00000000000E+00 0. -1.
         23    2    1    2    0    0 -0.95290538082E+03 -0.29703745006E+03 -0.90612325823E+03  0.13511373125E+04  0.90844739597E+02 0.  0.
        254    2    1    2    0    0  0.95290538082E+03  0.29703745006E+03 -0.17395657824E+04  0.22606681049E+04  0.10432024049E+04 0.  0.
         23    2    4    4    0    0 -0.75914020767E+02 -0.24207076737E+03 -0.23477430797E+03  0.35734081881E+03  0.90621686911E+02 0.  0.
         23    2    4    4    0    0  0.10288194016E+04  0.53910821743E+03 -0.15047914744E+04  0.19033272861E+04  0.95657437028E+02 0.  0.
         13    1    3    3    0    0 -0.40233226751E+03 -0.91292077890E+02 -0.33271364680E+03  0.53000364879E+03  0.00000000000E+00 0.  1.
        -13    1    3    3    0    0 -0.55057311331E+03 -0.20574537217E+03 -0.57340961143E+03  0.82113366375E+03  0.00000000000E+00 0. -1.
          2    1    6    6  502    0  0.91682215820E+03  0.51197966519E+03 -0.13639632803E+04  0.17213604728E+04  0.00000000000E+00 0. -1.
          2    1    5    5  503    0 -0.43007164909E+02 -0.21325504627E+03 -0.22407914009E+03  0.31231201069E+03  0.00000000000E+00 0. -1.
         -2    1    5    5    0  503 -0.32906855858E+02 -0.28815721093E+02 -0.10695167877E+02  0.45028808117E+02  0.00000000000E+00 0.  1.
         -2    1    6    6    0  502  0.11199724339E+03  0.27128552240E+02 -0.14082819412E+03  0.18196681327E+03  0.00000000000E+00 0.  1.
<mgrwt>
<rscale>  0 0.24587533E+04</rscale>
<asrwt>0</asrwt>
<pdfrwt beam="1">  1        1 0.48134576E+00 0.24587533E+04</pdfrwt>
<pdfrwt beam="2">  1       -1 0.74316640E-01 0.24587533E+04</pdfrwt>
<totfact> 0.78096172E-01</totfact>
</mgrwt>
</event>
<event>
12    1  0.4820219E-008  0.1716985E+04  0.7818608E-02  0.8751736E-01
          1   -1    0    0  501    0  0.00000000000E+00  0.00000000000E+00  0.77556725961E+03  0.77556725961E+03  0.00000000000E+00 0. -1.
         -1   -1    0    0    0  501 -0.00000000000E+00 -0.00000000000E+00 -0.95028391369E+03  0.95028391369E+03  0.00000000000E+00 0.  1.
         23    2    1    2    0    0  0.36969871654E+03 -0.80725963072E+02 -0.56154737335E+03  0.68255406095E+03  0.85736640155E+02 0.  0.
        254    2    1    2    0    0 -0.36969871654E+03  0.80725963072E+02  0.38683071927E+03  0.10432971124E+04  0.89198488617E+03 0.  0.
         23    2    4    4    0    0  0.42779627399E+02  0.18526089773E+03 -0.21589868097E+03  0.30094809249E+03  0.88350535803E+02 0.  0.
         23    2    4    4    0    0 -0.41247834394E+03 -0.10453493466E+03  0.60272940024E+03  0.74234901988E+03  0.82057300750E+02 0.  0.
         13    1    3    3    0    0  0.14493987235E+03 -0.62154247626E+02 -0.17976418358E+03  0.23913569118E+03  0.00000000000E+00 0. -1.
        -13    1    3    3    0    0  0.22475884419E+03 -0.18571715446E+02 -0.38178318977E+03  0.44341836977E+03  0.00000000000E+00 0.  1.
          4    1    5    5  502    0  0.90437734066E+01  0.14100972659E+03 -0.19648133328E+03  0.24201332021E+03  0.00000000000E+00 0. -1.
          1    1    6    6  503    0 -0.28715124314E+03 -0.10542140246E+03  0.45977611667E+03  0.55223508218E+03  0.00000000000E+00 0. -1.
         -4    1    5    5    0  502  0.33735853992E+02  0.44251171138E+02 -0.19417347689E+02  0.58934772274E+02  0.00000000000E+00 0.  1.
         -1    1    6    6    0  503 -0.12532710080E+03  0.88646780113E+00  0.14295328357E+03  0.19011393769E+03  0.00000000000E+00 0.  1.
<mgrwt>
<rscale>  0 0.17169847E+04</rscale>
<asrwt>0</asrwt>
<pdfrwt beam="1">  1        1 0.11931804E+00 0.17169847E+04</pdfrwt>
<pdfrwt beam="2">  1       -1 0.14619753E+00 0.17169847E+04</pdfrwt>
<totfact> 0.82533302E+00</totfact>
</mgrwt>
</event>
<event>
12    1  0.4820219E-008  0.1830997E+04  0.7818608E-02  0.8689987E-01
         -1   -1    0    0    0  501 -0.00000000000E+00  0.00000000000E+00  0.81657609127E+03  0.81657609127E+03  0.00000000000E+00 0.  1.
          1   -1    0    0  501    0  0.00000000000E+00 -0.00000000000E+00 -0.10264047785E+04  0.10264047785E+04  0.00000000000E+00 0. -1.
         23    2    1    2    0    0 -0.29355037278E+03  0.46361342043E+02  0.54193599471E+03  0.62581214162E+03  0.98107180346E+02 0.  0.
        254    2    1    2    0    0  0.29355037278E+03 -0.46361342043E+02 -0.75176468198E+03  0.12171687282E+04  0.90996064774E+03 0.  0.
         23    2    4    4    0    0  0.39137237650E+01  0.58933074216E+02 -0.86839645460E+03  0.87525411544E+03  0.92026842634E+02 0.  0.
         23    2    4    4    0    0  0.28963664902E+03 -0.10529441626E+03  0.11663177262E+03  0.34191461275E+03  0.91248723159E+02 0.  0.
         13    1    3    3    0    0 -0.13332810616E+03  0.63956856838E+02  0.30880915911E+03  0.34238860989E+03  0.00000000000E+00 0. -1.
        -13    1    3    3    0    0 -0.16022226662E+03 -0.17595514795E+02  0.23312683560E+03  0.28342353173E+03  0.00000000000E+00 0.  1.
          4    1    6    6  502    0  0.60462453462E+02  0.12712892979E+02  0.37479570593E+02  0.72263712459E+02  0.00000000000E+00 0. -1.
          4    1    5    5  503    0  0.59170047581E+01  0.28914682299E+02 -0.66053579745E+02  0.72347392454E+02  0.00000000000E+00 0. -1.
         -4    1    5    5    0  503 -0.20032809931E+01  0.30018391917E+02 -0.80234287486E+03  0.80290672299E+03  0.00000000000E+00 0.  1.
         -4    1    6    6    0  502  0.22917419556E+03 -0.11800730924E+03  0.79152202030E+02  0.26965090029E+03  0.00000000000E+00 0.  1.
<mgrwt>
<rscale>  0 0.18309971E+04</rscale>
<asrwt>0</asrwt>
<pdfrwt beam="1">  1        1 0.15790843E+00 0.18309971E+04</pdfrwt>
<pdfrwt beam="2">  1       -1 0.12562709E+00 0.18309971E+04</pdfrwt>
<totfact> 0.75074685E+00</totfact>
</mgrwt>
</event>
<event>
12    1  0.4820219E-008  0.1184286E+04  0.7818608E-02  0.9126723E-01
         -2   -1    0    0    0  501 -0.00000000000E+00  0.00000000000E+00  0.36062400068E+03  0.36062400068E+03  0.00000000000E+00 0.  1.
          2   -1    0    0  501    0  0.00000000000E+00 -0.00000000000E+00 -0.97229629863E+03  0.97229629863E+03  0.00000000000E+00 0. -1.
         23    2    1    2    0    0  0.13209863030E+03  0.34168543190E+02  0.10357554409E+03  0.19389648885E+03  0.90831809324E+02 0.  0.
        254    2    1    2    0    0 -0.13209863030E+03 -0.34168543190E+02 -0.71524784204E+03  0.11390238105E+04  0.87588710905E+03 0.  0.
         23    2    4    4    0    0  0.21489485795E+03 -0.28500851428E+03 -0.56821432006E+03  0.67721535157E+03  0.91342573346E+02 0.  0.
         23    2    4    4    0    0 -0.34699348825E+03  0.25083997109E+03 -0.14703352198E+03  0.46180845889E+03  0.91230609620E+02 0.  0.
         13    1    3    3    0    0  0.54066096959E+02 -0.17973363065E+02  0.40785354553E+01  0.57121091303E+02  0.00000000000E+00 0. -1.
        -13    1    3    3    0    0  0.78032533337E+02  0.52141906255E+02  0.99497008633E+02  0.13677539755E+03  0.00000000000E+00 0.  1.
          2    1    5    5  502    0  0.20794125983E+02  0.13381134975E+01 -0.49755348164E+02  0.53942384949E+02  0.00000000000E+00 0.  1.
          3    1    6    6  503    0 -0.26848637716E+03  0.18746212012E+03 -0.69967969124E+02  0.33484697685E+03  0.00000000000E+00 0. -1.
         -2    1    5    5    0  502  0.19410073197E+03 -0.28634662778E+03 -0.51845897189E+03  0.62327296663E+03  0.00000000000E+00 0. -1.
         -3    1    6    6    0  503 -0.78507111093E+02  0.63377850966E+02 -0.77065552858E+02  0.12696148204E+03  0.00000000000E+00 0.  1.
<mgrwt>
<rscale>  0 0.11842861E+04</rscale>
<asrwt>0</asrwt>
<pdfrwt beam="1">  1        2 0.14958404E+00 0.11842861E+04</pdfrwt>
<pdfrwt beam="2">  1       -2 0.55480616E-01 0.11842861E+04</pdfrwt>
<totfact> 0.79167893E+01</totfact>
</mgrwt>
</event>
<event>
12    1  0.4820219E-008  0.2024459E+04  0.7818608E-02  0.8595270E-01
          2   -1    0    0  501    0  0.00000000000E+00  0.00000000000E+00  0.11142660449E+04  0.11142660449E+04  0.00000000000E+00 0. -1.
         -2   -1    0    0    0  501 -0.00000000000E+00 -0.00000000000E+00 -0.91953651063E+03  0.91953651063E+03  0.00000000000E+00 0.  1.
         23    2    1    2    0    0  0.66958145642E+03 -0.32315774029E+03 -0.25272740487E+03  0.79335125502E+03  0.11298150642E+03 0.  0.
        254    2    1    2    0    0 -0.66958145642E+03  0.32315774029E+03  0.44745693911E+03  0.12404513005E+04  0.88641495059E+03 0.  0.
         23    2    4    4    0    0 -0.61962288974E+03  0.17872280557E+02  0.61360077933E+03  0.87808622239E+03  0.10137827013E+03 0.  0.
         23    2    4    4    0    0 -0.49958566673E+02  0.30528545973E+03 -0.16614384022E+03  0.36236507809E+03  0.89496390285E+02 0.  0.
         13    1    3    3    0    0  0.51936690849E+03 -0.21411192501E+03 -0.15112826249E+03  0.58174363236E+03  0.00000000000E+00 0.  1.
        -13    1    3    3    0    0  0.15021454793E+03 -0.10904581528E+03 -0.10159914237E+03  0.21160762267E+03  0.00000000000E+00 0. -1.
          2    1    5    5  502    0 -0.59075179070E+03  0.25142583981E+02  0.54857829808E+03  0.80657174316E+03  0.00000000000E+00 0.  1.
          2    1    6    6  503    0 -0.49871390085E+02  0.65994478230E+02 -0.40828539352E+02  0.92246389260E+02  0.00000000000E+00 0. -1.
         -2    1    5    5    0  502 -0.28871099048E+02 -0.72703034235E+01  0.65022481247E+02  0.71514479231E+02  0.00000000000E+00 0. -1.
         -2    1    6    6    0  503 -0.87176587585E-01  0.23929098150E+03 -0.12531530086E+03  0.27011868883E+03  0.00000000000E+00 0.  1.
<mgrwt>
<rscale>  0 0.20244588E+04</rscale>
<asrwt>0</asrwt>
<pdfrwt beam="1">  1        2 0.17142555E+00 0.20244588E+04</pdfrwt>
<pdfrwt beam="2">  1       -2 0.14146715E+00 0.20244588E+04</pdfrwt>
<totfact> 0.69196709E+00</totfact>
</mgrwt>
</event>
<event>
12    1  0.4820219E-008  0.1374870E+04  0.7818608E-02  0.8972213E-01
          2   -1    0    0  501    0  0.00000000000E+00  0.00000000000E+00  0.18560978508E+04  0.18560978508E+04  0.00000000000E+00 0. -1.
         -2   -1    0    0    0  501 -0.00000000000E+00 -0.00000000000E+00 -0.25460232837E+03  0.25460232837E+03  0.00000000000E+00 0.  1.
         23    2    1    2    0    0 -0.21326481476E+03  0.33282102186E+03  0.59591324474E+03  0.72077896767E+03  0.90321709291E+02 0.  0.
        254    2    1    2    0    0  0.21326481476E+03 -0.33282102186E+03  0.10055822776E+04  0.13899212115E+04  0.87431890243E+03 0.  0.
         23    2    4    4    0    0  0.11568236754E+03 -0.32547791029E+03 -0.18343848904E+02  0.35724721514E+03  0.89279312743E+02 0.  0.
         23    2    4    4    0    0  0.97582447221E+02 -0.73431115704E+01  0.10239261266E+04  0.10326739963E+04  0.91731209308E+02 0.  0.
         13    1    3    3    0    0 -0.19934136907E+03  0.27769769495E+03  0.45717534864E+03  0.57084349047E+03  0.00000000000E+00 0. -1.
        -13    1    3    3    0    0 -0.13923445687E+02  0.55123326913E+02  0.13873789610E+03  0.14993547720E+03  0.00000000000E+00 0.  1.
          1    1    6    6  502    0  0.92786827096E+02 -0.38978672218E+02  0.70509216372E+03  0.71223850746E+03  0.00000000000E+00 0. -1.
          1    1    5    5  503    0  0.20041474504E+02 -0.99442133699E+02 -0.43799884416E+02  0.11049356782E+03  0.00000000000E+00 0. -1.
         -1    1    5    5    0  503  0.95640893034E+02 -0.22603577659E+03  0.25456035511E+02  0.24675364732E+03  0.00000000000E+00 0.  1.
         -1    1    6    6    0  502  0.47956201256E+01  0.31635560648E+02  0.31883396283E+03  0.32043548886E+03  0.00000000000E+00 0.  1.
<mgrwt>
<rscale>  0 0.13748699E+04</rscale>
<asrwt>0</asrwt>
<pdfrwt beam="1">  1        2 0.28555351E+00 0.13748699E+04</pdfrwt>
<pdfrwt beam="2">  1       -2 0.39169590E-01 0.13748699E+04</pdfrwt>
<totfact> 0.48267230E+01</totfact>
</mgrwt>
</event>
<event>
12    1  0.4820219E-008  0.1374104E+04  0.7818608E-02  0.8972780E-01
          2   -1    0    0  501    0  0.00000000000E+00  0.00000000000E+00  0.71128015255E+03  0.71128015255E+03  0.00000000000E+00 0.  1.
         -2   -1    0    0    0  501 -0.00000000000E+00 -0.00000000000E+00 -0.66364886919E+03  0.66364886919E+03  0.00000000000E+00 0. -1.
         23    2    1    2    0    0 -0.32644873333E+03  0.16323606072E+03  0.14879673696E+03  0.40433907245E+03  0.90193290006E+02 0.  0.
        254    2    1    2    0    0  0.32644873333E+03 -0.16323606072E+03 -0.10116545361E+03  0.97058994930E+03  0.89364177032E+03 0.  0.
         23    2    4    4    0    0  0.22185750770E+03 -0.38479235358E+03  0.26106438964E+03  0.52388280774E+03  0.94935091592E+02 0.  0.
         23    2    4    4    0    0  0.10459122564E+03  0.22155629286E+03 -0.36222984324E+03  0.44670714156E+03  0.91160822718E+02 0.  0.
         13    1    3    3    0    0 -0.11177846292E+03  0.16141787100E+02  0.22824122434E+02  0.11522119001E+03  0.00000000000E+00 0. -1.
        -13    1    3    3    0    0 -0.21467027041E+03  0.14709427362E+03  0.12597261453E+03  0.28911788243E+03  0.00000000000E+00 0.  1.
          1    1    5    5  502    0  0.86657977598E+02 -0.11519682117E+03  0.13330463300E+03  0.19634163560E+03  0.00000000000E+00 0. -1.
          3    1    6    6  503    0  0.63283360835E+02  0.11755355945E+03 -0.27184599260E+03  0.30285948357E+03  0.00000000000E+00 0. -1.
         -1    1    5    5    0  502  0.13519953010E+03 -0.26959553241E+03  0.12775975663E+03  0.32754117214E+03  0.00000000000E+00 0.  1.
         -3    1    6    6    0  503  0.41307864801E+02  0.10400273341E+03 -0.90383850647E+02  0.14384765799E+03  0.00000000000E+00 0.  1.
<mgrwt>
<rscale>  0 0.13741037E+04</rscale>
<asrwt>0</asrwt>
<pdfrwt beam="1">  1        2 0.10942772E+00 0.13741037E+04</pdfrwt>
<pdfrwt beam="2">  1       -2 0.10209983E+00 0.13741037E+04</pdfrwt>
<totfact> 0.30781408E+01</totfact>
</mgrwt>
</event>
<event>
12    1  0.4820219E-008  0.2847451E+04  0.7818608E-02  0.8288686E-01
         -2   -1    0    0    0  501 -0.00000000000E+00  0.00000000000E+00  0.66023962884E+03  0.66023962884E+03  0.00000000000E+00 0.  1.
          2   -1    0    0  501    0  0.00000000000E+00 -0.00000000000E+00 -0.30700890320E+04  0.30700890320E+04  0.00000000000E+00 0. -1.
         23    2    1    2    0    0 -0.84240975373E+03 -0.89429657531E+03 -0.61244220336E+03  0.13757271560E+04  0.90106589578E+02 0.  0.
        254    2    1    2    0    0  0.84240975373E+03  0.89429657531E+03 -0.17974071998E+04  0.23546015049E+04  0.89669116586E+03 0.  0.
         23    2    4    4    0    0  0.49671214821E+02  0.37045108309E+02 -0.82352088533E+03  0.83132810283E+03  0.95290064319E+02 0.  0.
         23    2    4    4    0    0  0.79273853891E+03  0.85725146700E+03 -0.97388631448E+03  0.15232734020E+04  0.92697545879E+02 0.  0.
         11    1    3    3    0    0 -0.50848959713E+03 -0.57492910831E+03 -0.42266329462E+03  0.87621310798E+03  0.00000000000E+00 0.  1.
        -11    1    3    3    0    0 -0.33392015660E+03 -0.31936746700E+03 -0.18977890874E+03  0.49951404801E+03  0.00000000000E+00 0. -1.
          1    1    5    5  502    0  0.56506551873E+02  0.63530378294E+02 -0.67207927585E+03  0.67743608732E+03  0.00000000000E+00 0. -1.
          3    1    6    6  503    0  0.40130505335E+03  0.37591066629E+03 -0.42613504527E+03  0.69566202403E+03  0.00000000000E+00 0. -1.
         -1    1    5    5    0  502 -0.68353370515E+01 -0.26485269985E+02 -0.15144160947E+03  0.15389201551E+03  0.00000000000E+00 0.  1.
         -3    1    6    6    0  503  0.39143348557E+03  0.48134080071E+03 -0.54775126922E+03  0.82761137799E+03  0.00000000000E+00 0.  1.
<mgrwt>
<rscale>  0 0.28474511E+04</rscale>
<asrwt>0</asrwt>
<pdfrwt beam="1">  1        2 0.47232138E+00 0.28474511E+04</pdfrwt>
<pdfrwt beam="2">  1       -2 0.10157533E+00 0.28474511E+04</pdfrwt>
<totfact> 0.10841678E+00</totfact>
</mgrwt>
</event>
<event>
12    1  0.4820219E-008  0.1506379E+04  0.7818608E-02  0.8880222E-01
          2   -1    0    0  501    0  0.00000000000E+00  0.00000000000E+00  0.13619536886E+04  0.13619536886E+04  0.00000000000E+00 0. -1.
         -2   -1    0    0    0  501 -0.00000000000E+00 -0.00000000000E+00 -0.41652974820E+03  0.41652974820E+03  0.00000000000E+00 0.  1.
         23    2    1    2    0    0  0.28734248099E+03  0.28749979098E+03  0.60321161070E+03  0.73258166024E+03  0.87119518102E+02 0.  0.
        254    2    1    2    0    0 -0.28734248099E+03 -0.28749979098E+03  0.34221232970E+03  0.10459017766E+04  0.90087702624E+03 0.  0.
         23    2    4    4    0    0  0.17754231661E+03 -0.32084206224E+03 -0.10451533558E+03  0.39370591750E+03  0.98081552891E+02 0.  0.
         23    2    4    4    0    0 -0.46488479760E+03  0.33342271254E+02  0.44672766528E+03  0.65219585905E+03  0.92543230698E+02 0.  0.
         11    1    3    3    0    0  0.27655712975E+02  0.27371805512E+02  0.11545754689E+03  0.12183800446E+03  0.00000000000E+00 0. -1.
        -11    1    3    3    0    0  0.25968676801E+03  0.26012798547E+03  0.48775406381E+03  0.61074365578E+03  0.00000000000E+00 0.  1.
          2    1    5    5  502    0  0.63744176753E+02 -0.18871434640E+03 -0.90442613868E+02  0.21876080776E+03  0.00000000000E+00 0.  1.
          4    1    6    6  503    0 -0.22326629717E+03  0.20344782441E+02  0.27835338571E+03  0.35741062793E+03  0.00000000000E+00 0. -1.
         -2    1    5    5    0  502  0.11379813986E+03 -0.13212771583E+03 -0.14072721712E+02  0.17494510974E+03  0.00000000000E+00 0. -1.
         -4    1    6    6    0  503 -0.24161850043E+03  0.12997488812E+02  0.16837427957E+03  0.29478523112E+03  0.00000000000E+00 0.  1.
<mgrwt>
<rscale>  0 0.15063787E+04</rscale>
<asrwt>0</asrwt>
<pdfrwt beam="1">  1        2 0.20953133E+00 0.15063787E+04</pdfrwt>
<pdfrwt beam="2">  1       -2 0.64081500E-01 0.15063787E+04</pdfrwt>
<totfact> 0.33079630E+01</totfact>
</mgrwt>
</event>
<event>
12    1  0.4820219E-008  0.1458129E+04  0.7818608E-02  0.8912784E-01
          2   -1    0    0  501    0  0.00000000000E+00  0.00000000000E+00  0.28012438369E+04  0.28012438369E+04  0.00000000000E+00 0. -1.
         -2   -1    0    0    0  501 -0.00000000000E+00 -0.00000000000E+00 -0.18974961053E+03  0.18974961053E+03  0.00000000000E+00 0.  1.
         23    2    1    2    0    0 -0.25611170605E+03 -0.35926590394E+03  0.88215675564E+03  0.99060196245E+03  0.91796028178E+02 0.  0.
        254    2    1    2    0    0  0.25611170605E+03  0.35926590394E+03  0.17293374708E+04  0.20003914850E+04  0.90348924165E+03 0.  0.
         23    2    4    4    0    0  0.38477414880E+03  0.11903842739E+02  0.24401477315E+03  0.46701528953E+03  0.10181956631E+03 0.  0.
         23    2    4    4    0    0 -0.12866244275E+03  0.34736206121E+03  0.14853226976E+04  0.15333761955E+04  0.88569831599E+02 0.  0.
         11    1    3    3    0    0 -0.23386850353E+03 -0.27117204586E+03  0.73632834307E+03  0.81878457741E+03  0.00000000000E+00 0. -1.
        -11    1    3    3    0    0 -0.22243202515E+02 -0.88093858088E+02  0.14582841257E+03  0.17181738504E+03  0.00000000000E+00 0.  1.
          4    1    5    5  502    0  0.54475037032E+02  0.13862072353E+01  0.83300843497E+02  0.99541357020E+02  0.00000000000E+00 0. -1.
          3    1    6    6  503    0 -0.24603641712E+02  0.33383616328E+02  0.85807648421E+02  0.95303502308E+02  0.00000000000E+00 0. -1.
         -4    1    5    5    0  502  0.33029911176E+03  0.10517635504E+02  0.16071392965E+03  0.36747393251E+03  0.00000000000E+00 0.  1.
         -3    1    6    6    0  503 -0.10405880104E+03  0.31397844488E+03  0.13995150492E+04  0.14380726932E+04  0.00000000000E+00 0.  1.
<mgrwt>
<rscale>  0 0.14581288E+04</rscale>
<asrwt>0</asrwt>
<pdfrwt beam="1">  1        2 0.43096056E+00 0.14581288E+04</pdfrwt>
<pdfrwt beam="2">  1       -2 0.29192250E-01 0.14581288E+04</pdfrwt>
<totfact> 0.24281040E+01</totfact>
</mgrwt>
</event>
<event>
12    1  0.4820219E-008  0.1742163E+04  0.7818608E-02  0.8737676E-01
         -2   -1    0    0    0  501 -0.00000000000E+00  0.00000000000E+00  0.10852431953E+04  0.10852431953E+04  0.00000000000E+00 0.  1.
          2   -1    0    0  501    0  0.00000000000E+00 -0.00000000000E+00 -0.69918216045E+03  0.69918216045E+03  0.00000000000E+00 0. -1.
         23    2    1    2    0    0 -0.34468188998E+03 -0.17382992182E+01  0.58998612877E+03  0.68976741988E+03  0.94270008077E+02 0.  0.
        254    2    1    2    0    0  0.34468188998E+03  0.17382992182E+01 -0.20392509388E+03  0.10946579359E+04  0.10187649021E+04 0.  0.
         23    2    4    4    0    0  0.26500845024E+03 -0.38182569624E+03  0.20938755794E+03  0.51812104732E+03  0.92660289501E+02 0.  0.
         23    2    4    4    0    0  0.79673439745E+02  0.38356399546E+03 -0.41331265181E+03  0.57653688859E+03  0.89990222516E+02 0.  0.
         13    1    3    3    0    0 -0.14014449313E+03  0.23865633492E+02  0.31939793039E+03  0.34960704420E+03  0.00000000000E+00 0. -1.
        -13    1    3    3    0    0 -0.20453739686E+03 -0.25603932710E+02  0.27058819838E+03  0.34016037569E+03  0.00000000000E+00 0.  1.
          2    1    5    5  502    0  0.61034163327E+02 -0.45913658997E+02  0.62097957800E+02  0.98434696822E+02  0.00000000000E+00 0. -1.
          4    1    6    6  503    0  0.83250304687E+01  0.40989496940E+02 -0.93722421738E+02  0.10263204825E+03  0.00000000000E+00 0. -1.
         -2    1    5    5    0  502  0.20397428691E+03 -0.33591203724E+03  0.14728960014E+03  0.41968635050E+03  0.00000000000E+00 0.  1.
         -4    1    6    6    0  503  0.71348409276E+02  0.34257449852E+03 -0.31959023007E+03  0.47390484034E+03  0.00000000000E+00 0.  1.
<mgrwt>
<rscale>  0 0.17421627E+04</rscale>
<asrwt>0</asrwt>
<pdfrwt beam="1">  1        2 0.10756649E+00 0.17421627E+04</pdfrwt>
<pdfrwt beam="2">  1       -2 0.16696049E+00 0.17421627E+04</pdfrwt>
<totfact> 0.87147350E+00</totfact>
</mgrwt>
</event>
<event>
12    1  0.4820219E-008  0.1923869E+04  0.7818608E-02  0.8643066E-01
         -2   -1    0    0    0  501 -0.00000000000E+00  0.00000000000E+00  0.30236939887E+03  0.30236939887E+03  0.00000000000E+00 0.  1.
          2   -1    0    0  501    0  0.00000000000E+00 -0.00000000000E+00 -0.30602244271E+04  0.30602244271E+04  0.00000000000E+00 0. -1.
         23    2    1    2    0    0 -0.72688929042E+03 -0.11509676793E+03 -0.92808768937E+03  0.11876037693E+04  0.86259186345E+02 0.  0.
        254    2    1    2    0    0  0.72688929042E+03  0.11509676793E+03 -0.18297673388E+04  0.21749900566E+04  0.91701577173E+03 0.  0.
         23    2    4    4    0    0 -0.30335566393E+02 -0.18711321015E+03 -0.94773606539E+03  0.97049644848E+03  0.87909651831E+02 0.  0.
         23    2    4    4    0    0  0.75722485681E+03  0.30220997808E+03 -0.88203127344E+03  0.12044936081E+04  0.90029606539E+02 0.  0.
         11    1    3    3    0    0 -0.52642504483E+03 -0.49473603433E+02 -0.63088610575E+03  0.82315748414E+03  0.00000000000E+00 0.  1.
        -11    1    3    3    0    0 -0.20046424559E+03 -0.65623164498E+02 -0.29720158362E+03  0.36444628519E+03  0.00000000000E+00 0. -1.
          2    1    5    5  502    0 -0.12974926775E+02 -0.18558188999E+03 -0.78096030121E+03  0.80281254268E+03  0.00000000000E+00 0.  1.
          1    1    6    6  503    0  0.45189143252E+03  0.13242922446E+03 -0.50547798057E+03  0.69083381151E+03  0.00000000000E+00 0. -1.
         -2    1    5    5    0  502 -0.17360639618E+02 -0.15313201606E+01 -0.16677576417E+03  0.16768390580E+03  0.00000000000E+00 0. -1.
         -1    1    6    6    0  503  0.30533342429E+03  0.16978075362E+03 -0.37655329287E+03  0.51365979662E+03  0.00000000000E+00 0.  1.
<mgrwt>
<rscale>  0 0.19238692E+04</rscale>
<asrwt>0</asrwt>
<pdfrwt beam="1">  1        2 0.47080374E+00 0.19238692E+04</pdfrwt>
<pdfrwt beam="2">  1       -2 0.46518371E-01 0.19238692E+04</pdfrwt>
<totfact> 0.65545511E+00</totfact>
</mgrwt>
</event>
<event>
12    1  0.4820219E-008  0.2225444E+04  0.7818608E-02  0.8507912E-01
         -2   -1    0    0    0  501 -0.00000000000E+00  0.00000000000E+00  0.12074645202E+04  0.12074645202E+04  0.00000000000E+00 0.  1.
          2   -1    0    0  501    0  0.00000000000E+00 -0.00000000000E+00 -0.10254132639E+04  0.10254132639E+04  0.00000000000E+00 0. -1.
         23    2    1    2    0    0 -0.14467554468E+03  0.34457250411E+03  0.92225038212E+03  0.99878972883E+03  0.85871597677E+02 0.  0.
        254    2    1    2    0    0  0.14467554468E+03 -0.34457250411E+03 -0.74019912576E+03  0.12340880552E+04  0.91401168401E+03 0.  0.
         23    2    4    4    0    0 -0.13644732377E+03 -0.39565245888E+03  0.77682090849E+01  0.42831928342E+03  0.90765208589E+02 0.  0.
         23    2    4    4    0    0  0.28112286845E+03  0.51079954779E+02 -0.74796733485E+03  0.80576877183E+03  0.90382247760E+02 0.  0.
         13    1    3    3    0    0 -0.15367156692E+03  0.34051031513E+03  0.89881092770E+03  0.97335672235E+03  0.00000000000E+00 0.  1.
        -13    1    3    3    0    0  0.89960222343E+01  0.40621889735E+01  0.23439454411E+02  0.25433006475E+02  0.00000000000E+00 0. -1.
          2    1    5    5  502    0 -0.60203454567E-01  0.48070506802E-01  0.97686751153E+01  0.97689788995E+01  0.00000000000E+00 0. -1.
          4    1    6    6  503    0  0.14243179873E+03  0.48320484922E+02 -0.49396432712E+03  0.51635495835E+03  0.00000000000E+00 0. -1.
         -2    1    5    5    0  502 -0.13638712031E+03 -0.39570052939E+03 -0.20004660304E+01  0.41855030452E+03  0.00000000000E+00 0.  1.
         -4    1    6    6    0  503  0.13869106972E+03  0.27594698570E+01 -0.25400300773E+03  0.28941381347E+03  0.00000000000E+00 0.  1.
<mgrwt>
<rscale>  0 0.22254439E+04</rscale>
<asrwt>0</asrwt>
<pdfrwt beam="1">  1        2 0.15775589E+00 0.22254439E+04</pdfrwt>
<pdfrwt beam="2">  1       -2 0.18576377E+00 0.22254439E+04</pdfrwt>
<totfact> 0.36632771E+00</totfact>
</mgrwt>
</event>
<event>
12    1  0.4820219E-008  0.1603225E+04  0.7818608E-02  0.8818569E-01
          2   -1    0    0  501    0  0.00000000000E+00  0.00000000000E+00  0.14721888871E+04  0.14721888871E+04  0.00000000000E+00 0. -1.
         -2   -1    0    0    0  501 -0.00000000000E+00 -0.00000000000E+00 -0.43648111401E+03  0.43648111401E+03  0.00000000000E+00 0.  1.
         23    2    1    2    0    0 -0.44851891833E+03 -0.30331129433E+03  0.32208823573E+03  0.63648751971E+03  0.90601157763E+02 0.  0.
        254    2    1    2    0    0  0.44851891833E+03  0.30331129433E+03  0.71361953740E+03  0.12721824814E+04  0.90334293629E+03 0.  0.
         23    2    4    4    0    0  0.13142254737E+03  0.43799819107E+03 -0.88494841452E+01  0.46656763003E+03  0.92156056119E+02 0.  0.
         23    2    4    4    0    0  0.31709637096E+03 -0.13468689674E+03  0.72246902155E+03  0.80561485141E+03  0.91450167263E+02 0.  0.
         13    1    3    3    0    0 -0.30153151875E+03 -0.19754313168E+03  0.16369979236E+03  0.39590676641E+03  0.00000000000E+00 0.  1.
        -13    1    3    3    0    0 -0.14698739958E+03 -0.10576816265E+03  0.15838844337E+03  0.24058075330E+03  0.00000000000E+00 0. -1.
          4    1    5    5  502    0  0.11589560239E+03  0.40368845311E+03 -0.33862279606E+02  0.42135829387E+03  0.00000000000E+00 0.  1.
          3    1    6    6  503    0  0.19178429693E+03 -0.66226469615E+02  0.32350828306E+03  0.38187009707E+03  0.00000000000E+00 0. -1.
         -4    1    5    5    0  502  0.15526944986E+02  0.34309737958E+02  0.25012795460E+02  0.45209336160E+02  0.00000000000E+00 0. -1.
         -3    1    6    6    0  503  0.12531207402E+03 -0.68460427127E+02  0.39896073848E+03  0.42374475434E+03  0.00000000000E+00 0.  1.
<mgrwt>
<rscale>  0 0.16032251E+04</rscale>
<asrwt>0</asrwt>
<pdfrwt beam="1">  1        2 0.22649060E+00 0.16032251E+04</pdfrwt>
<pdfrwt beam="2">  1       -2 0.67150941E-01 0.16032251E+04</pdfrwt>
<totfact> 0.25676331E+01</totfact>
</mgrwt>
</event>
<event>
12    1  0.4820219E-008  0.1219575E+04  0.7818608E-02  0.9095893E-01
         -2   -1    0    0    0  501 -0.00000000000E+00  0.00000000000E+00  0.85027611624E+03  0.85027611624E+03  0.00000000000E+00 0.  1.
          2   -1    0    0  501    0  0.00000000000E+00 -0.00000000000E+00 -0.43731740790E+03  0.43731740790E+03  0.00000000000E+00 0. -1.
         23    2    1    2    0    0 -0.12409342218E+03 -0.18822032227E+03  0.26689185891E+03  0.36125739367E+03  0.91921558875E+02 0.  0.
        254    2    1    2    0    0  0.12409342218E+03  0.18822032227E+03  0.14606684944E+03  0.92633613047E+03  0.88653089905E+03 0.  0.
         23    2    4    4    0    0  0.14952430566E+03  0.11332927803E+03  0.50545861585E+03  0.54611980299E+03  0.86933213675E+02 0.  0.
         23    2    4    4    0    0 -0.25430883472E+02  0.74891044239E+02 -0.35939176642E+03  0.38021632748E+03  0.95637940026E+02 0.  0.
         13    1    3    3    0    0 -0.11567183578E+03 -0.94901658530E+02  0.15796104596E+03  0.21757295426E+03  0.00000000000E+00 0.  1.
        -13    1    3    3    0    0 -0.84215864059E+01 -0.93318663740E+02  0.10893081295E+03  0.14368443941E+03  0.00000000000E+00 0. -1.
          4    1    5    5  502    0  0.12744366403E+03  0.76885439091E+02  0.46145976749E+03  0.48486944145E+03  0.00000000000E+00 0. -1.
          3    1    6    6  503    0 -0.38302734654E+02  0.79093971030E+02 -0.35539357892E+03  0.36609773514E+03  0.00000000000E+00 0. -1.
         -4    1    5    5    0  502  0.22080641622E+02  0.36443838940E+02  0.43998848365E+02  0.61250361538E+02  0.00000000000E+00 0.  1.
         -3    1    6    6    0  503  0.12871851182E+02 -0.42029267904E+01 -0.39981874968E+01  0.14118592342E+02  0.00000000000E+00 0.  1.
<mgrwt>
<rscale>  0 0.12195746E+04</rscale>
<asrwt>0</asrwt>
<pdfrwt beam="1">  1        2 0.67279601E-01 0.12195746E+04</pdfrwt>
<pdfrwt beam="2">  1       -2 0.13081171E+00 0.12195746E+04</pdfrwt>
<totfact> 0.30254890E+01</totfact>
</mgrwt>
</event>
<event>
12    1  0.4820219E-008  0.1087428E+04  0.7818608E-02  0.9217533E-01
         -2   -1    0    0    0  501 -0.00000000000E+00  0.00000000000E+00  0.14496512309E+03  0.14496512309E+03  0.00000000000E+00 0.  1.
          2   -1    0    0  501    0  0.00000000000E+00 -0.00000000000E+00 -0.20392815735E+04  0.20392815735E+04  0.00000000000E+00 0. -1.
         23    2    1    2    0    0 -0.83223120647E+02  0.59613372077E+02 -0.89906186427E+02  0.16425194419E+03  0.91737325396E+02 0.  0.
        254    2    1    2    0    0  0.83223120647E+02 -0.59613372077E+02 -0.18044102640E+04  0.20199947524E+04  0.90222090255E+03 0.  0.
         23    2    4    4    0    0 -0.22632832542E+03  0.29246035294E+03 -0.11382191087E+04  0.12003493378E+04  0.92402513770E+02 0.  0.
         23    2    4    4    0    0  0.30955144606E+03 -0.35207372502E+03 -0.66619115534E+03  0.81964541459E+03  0.90719042114E+02 0.  0.
         11    1    3    3    0    0 -0.96632531138E+01  0.51694505164E+02 -0.70151428085E+02  0.87675100156E+02  0.00000000000E+00 0. -1.
        -11    1    3    3    0    0 -0.73559867533E+02  0.79188669129E+01 -0.19754758342E+02  0.76576844032E+02  0.00000000000E+00 0.  1.
          1    1    6    6  502    0 -0.38945273842E+01 -0.18238448904E+02 -0.37275521743E+02  0.41680605600E+02  0.00000000000E+00 0. -1.
          1    1    5    5  503    0 -0.92641611993E+02  0.12229873249E+03 -0.33448927289E+03  0.36799799174E+03  0.00000000000E+00 0. -1.
         -1    1    5    5    0  503 -0.13368671342E+03  0.17016162045E+03 -0.80372983576E+03  0.83235134607E+03  0.00000000000E+00 0.  1.
         -1    1    6    6    0  502  0.31344597345E+03 -0.33383527611E+03 -0.62891563359E+03  0.77796480899E+03  0.00000000000E+00 0.  1.
<mgrwt>
<rscale>  0 0.10874276E+04</rscale>
<asrwt>0</asrwt>
<pdfrwt beam="1">  1        2 0.31373562E+00 0.10874276E+04</pdfrwt>
<pdfrwt beam="2">  1       -2 0.22302327E-01 0.10874276E+04</pdfrwt>
<totfact> 0.11153230E+02</totfact>
</mgrwt>
</event>
<event>
12    1  0.4820219E-008  0.1928532E+04  0.7818608E-02  0.8640783E-01
          3   -1    0    0  501    0  0.00000000000E+00  0.00000000000E+00  0.34081505327E+04  0.34081505327E+04  0.00000000000E+00 0. -1.
         -3   -1    0    0    0  501 -0.00000000000E+00 -0.00000000000E+00 -0.27281918346E+03  0.27281918346E+03  0.00000000000E+00 0.  1.
         23    2    1    2    0    0  0.18714365384E+03 -0.96524152861E+02 -0.15162679472E+03  0.27424062618E+03  0.88755714815E+02 0.  0.
        254    2    1    2    0    0 -0.18714365384E+03  0.96524152861E+02  0.32869581440E+04  0.34067290900E+04  0.87026983926E+03 0.  0.
         23    2    4    4    0    0 -0.43285933587E+03 -0.14260010694E+03  0.11477997944E+04  0.12381712085E+04  0.89003249499E+02 0.  0.
         23    2    4    4    0    0  0.24571568204E+03  0.23912425980E+03  0.21391583496E+04  0.21685578815E+04  0.95332222990E+02 0.  0.
         13    1    3    3    0    0 -0.78513915004E+01 -0.31415550017E+01  0.23914164156E+01  0.87882073709E+01  0.00000000000E+00 0. -1.
        -13    1    3    3    0    0  0.19499504534E+03 -0.93382597860E+02 -0.15401821113E+03  0.26545241880E+03  0.00000000000E+00 0.  1.
          2    1    5    5  502    0 -0.17121811057E+02 -0.27973233917E+02  0.93292214513E+02  0.98889309425E+02  0.00000000000E+00 0. -1.
          3    1    6    6  503    0  0.89098422000E+02  0.13087869376E+03  0.11906982956E+04  0.12011786680E+04  0.00000000000E+00 0. -1.
         -2    1    5    5    0  502 -0.41573752481E+03 -0.11462687302E+03  0.10545075798E+04  0.11392818991E+04  0.00000000000E+00 0.  1.
         -3    1    6    6    0  503  0.15661726003E+03  0.10824556604E+03  0.94846005406E+03  0.96737921357E+03  0.00000000000E+00 0.  1.
<mgrwt>
<rscale>  0 0.19285319E+04</rscale>
<asrwt>0</asrwt>
<pdfrwt beam="1">  1        3 0.52433082E+00 0.19285319E+04</pdfrwt>
<pdfrwt beam="2">  1       -3 0.41972185E-01 0.19285319E+04</pdfrwt>
<totfact> 0.36217158E-02</totfact>
</mgrwt>
</event>
<event>
12    1  0.4820219E-008  0.1574728E+04  0.7818608E-02  0.8836226E-01
         -2   -1    0    0    0  501 -0.00000000000E+00  0.00000000000E+00  0.21513033138E+03  0.21513033138E+03  0.00000000000E+00 0.  1.
          2   -1    0    0  501    0  0.00000000000E+00 -0.00000000000E+00 -0.28817037363E+04  0.28817037363E+04  0.00000000000E+00 0. -1.
         23    2    1    2    0    0  0.17940423213E+03  0.46631772334E+03 -0.12145052804E+04  0.13164393394E+04  0.91385779875E+02 0.  0.
        254    2    1    2    0    0 -0.17940423213E+03 -0.46631772334E+03 -0.14520681246E+04  0.17803947283E+04  0.90092477624E+03 0.  0.
         23    2    4    4    0    0 -0.32456744819E+03 -0.67405354244E+03 -0.11686339586E+04  0.13905295979E+04  0.90415855421E+02 0.  0.
         23    2    4    4    0    0  0.14516321606E+03  0.20773581910E+03 -0.28343416601E+03  0.38986513041E+03  0.86216956662E+02 0.  0.
         11    1    3    3    0    0  0.15698639017E+03  0.43023483908E+03 -0.11613762304E+04  0.12484155927E+04  0.00000000000E+00 0. -1.
        -11    1    3    3    0    0  0.22417841967E+02  0.36082884265E+02 -0.53129049970E+02  0.68023746780E+02  0.00000000000E+00 0.  1.
          2    1    5    5  502    0 -0.27977430221E+03 -0.59389172651E+03 -0.96485113491E+03  0.11670127487E+04  0.00000000000E+00 0. -1.
          1    1    6    6  503    0  0.10759882875E+03  0.15394978800E+03 -0.25882940746E+03  0.31979791641E+03  0.00000000000E+00 0. -1.
         -2    1    5    5    0  502 -0.44793145981E+02 -0.80161815932E+02 -0.20378282366E+03  0.22351684921E+03  0.00000000000E+00 0.  1.
         -1    1    6    6    0  503  0.37564387313E+02  0.53786031094E+02 -0.24604758557E+02  0.70067214007E+02  0.00000000000E+00 0.  1.
<mgrwt>
<rscale>  0 0.15747278E+04</rscale>
<asrwt>0</asrwt>
<pdfrwt beam="1">  1        2 0.44333905E+00 0.15747278E+04</pdfrwt>
<pdfrwt beam="2">  1       -2 0.33096973E-01 0.15747278E+04</pdfrwt>
<totfact> 0.16969978E+01</totfact>
</mgrwt>
</event>
<event>
12    1  0.4820219E-008  0.2556179E+04  0.7818608E-02  0.8383240E-01
          2   -1    0    0  501    0  0.00000000000E+00  0.00000000000E+00  0.43394483218E+04  0.43394483218E+04  0.00000000000E+00 0.  1.
         -2   -1    0    0    0  501 -0.00000000000E+00 -0.00000000000E+00 -0.37643330396E+03  0.37643330396E+03  0.00000000000E+00 0. -1.
         23    2    1    2    0    0  0.40242028533E+03  0.25687078128E+03  0.36089844101E+04  0.36410866438E+04  0.69417512796E+02 0.  0.
        254    2    1    2    0    0 -0.40242028533E+03 -0.25687078128E+03  0.35403060773E+03  0.10747949819E+04  0.89550091997E+03 0.  0.
         23    2    4    4    0    0 -0.31303124261E+03 -0.12918783905E+03  0.64387678017E+03  0.73305484579E+03  0.90077978981E+02 0.  0.
         23    2    4    4    0    0 -0.89389042726E+02 -0.12768294223E+03 -0.28984617244E+03  0.34174013615E+03  0.92098763712E+02 0.  0.
         13    1    3    3    0    0  0.13610565765E+03  0.11447688757E+03  0.11604177411E+04  0.11739672234E+04  0.00000000000E+00 0. -1.
        -13    1    3    3    0    0  0.26631462769E+03  0.14239389371E+03  0.24485666690E+04  0.24671194203E+04  0.00000000000E+00 0.  1.
          2    1    5    5  502    0 -0.53376754760E+02 -0.59762279389E+02  0.17804025115E+03  0.19524072069E+03  0.00000000000E+00 0. -1.
          4    1    6    6  503    0 -0.98287277129E+02 -0.67287075300E+02 -0.20710884095E+03  0.23891841986E+03  0.00000000000E+00 0. -1.
         -2    1    5    5    0  502 -0.25965448785E+03 -0.69425559661E+02  0.46583652901E+03  0.53781412510E+03  0.00000000000E+00 0.  1.
         -4    1    6    6    0  503  0.88982344029E+01 -0.60395866933E+02 -0.82737331493E+02  0.10282171629E+03  0.00000000000E+00 0.  1.
<mgrwt>
<rscale>  0 0.25561791E+04</rscale>
<asrwt>0</asrwt>
<pdfrwt beam="1">  1        2 0.66760740E+00 0.25561791E+04</pdfrwt>
<pdfrwt beam="2">  1       -2 0.57912819E-01 0.25561791E+04</pdfrwt>
<totfact> 0.43456454E-01</totfact>
</mgrwt>
</event>
<event>
12    1  0.4820219E-008  0.1148983E+04  0.7818608E-02  0.9158723E-01
          1   -1    0    0  501    0  0.00000000000E+00  0.00000000000E+00  0.83049428231E+03  0.83049428231E+03  0.00000000000E+00 0. -1.
         -1   -1    0    0    0  501 -0.00000000000E+00 -0.00000000000E+00 -0.39740226979E+03  0.39740226979E+03  0.00000000000E+00 0.  1.
         23    2    1    2    0    0 -0.19782346983E+03  0.58833155737E+01  0.20275009800E+02  0.21829425956E+03  0.89847476954E+02 0.  0.
        254    2    1    2    0    0  0.19782346983E+03 -0.58833155737E+01  0.41281700272E+03  0.10096022926E+04  0.89983897047E+03 0.  0.
         23    2    4    4    0    0 -0.23022489361E+03  0.14658718438E+03  0.46093571017E+03  0.54330683232E+03  0.90715383906E+02 0.  0.
         23    2    4    4    0    0  0.42804836344E+03 -0.15247049996E+03 -0.48118707444E+02  0.46629546023E+03  0.92969841489E+02 0.  0.
         13    1    3    3    0    0 -0.18307867452E+03 -0.10236750045E+00 -0.10783796037E+02  0.18339602449E+03  0.00000000000E+00 0. -1.
        -13    1    3    3    0    0 -0.14744795314E+02  0.59856830741E+01  0.31058805837E+02  0.34898235066E+02  0.00000000000E+00 0.  1.
          4    1    5    5  502    0 -0.16124616047E+02  0.42359255419E+02  0.44032399496E+02  0.63191470687E+02  0.00000000000E+00 0. -1.
          4    1    6    6  503    0  0.16082468108E+03 -0.10213024716E+03 -0.37472263804E+02  0.19416316845E+03  0.00000000000E+00 0. -1.
         -4    1    5    5    0  502 -0.21410027756E+03  0.10422792897E+03  0.41690331067E+03  0.48011536163E+03  0.00000000000E+00 0.  1.
         -4    1    6    6    0  503  0.26722368236E+03 -0.50340252794E+02 -0.10646443640E+02  0.27213229178E+03  0.00000000000E+00 0.  1.
<mgrwt>
<rscale>  0 0.11489827E+04</rscale>
<asrwt>0</asrwt>
<pdfrwt beam="1">  1        1 0.12776835E+00 0.11489827E+04</pdfrwt>
<pdfrwt beam="2">  1       -1 0.61138811E-01 0.11489827E+04</pdfrwt>
<totfact> 0.56079658E+01</totfact>
</mgrwt>
</event>
<event>
12    1  0.4820219E-008  0.2920524E+04  0.7818608E-02  0.8266797E-01
          1   -1    0    0  501    0  0.00000000000E+00  0.00000000000E+00  0.29244511658E+04  0.29244511658E+04  0.00000000000E+00 0. -1.
         -1   -1    0    0    0  501 -0.00000000000E+00 -0.00000000000E+00 -0.72915071966E+03  0.72915071966E+03  0.00000000000E+00 0.  1.
         23    2    1    2    0    0  0.49437902543E+03  0.88284271333E+03  0.20435048589E+04  0.22821599152E+04  0.92303266081E+02 0.  0.
        254    2    1    2    0    0 -0.49437902543E+03 -0.88284271333E+03  0.15179558726E+03  0.13714419703E+04  0.91323014638E+03 0.  0.
         23    2    4    4    0    0 -0.35374234808E+03 -0.65481660373E+02  0.35321604753E+03  0.51261968432E+03  0.92713903222E+02 0.  0.
         23    2    4    4    0    0 -0.14063667734E+03 -0.81736105296E+03 -0.20142046027E+03  0.85882228596E+03  0.95643876607E+02 0.  0.
         11    1    3    3    0    0  0.72103608396E+02  0.17312152451E+03  0.44573707008E+03  0.48358197675E+03  0.00000000000E+00 0.  1.
        -11    1    3    3    0    0  0.42227541703E+03  0.70972118882E+03  0.15977677888E+04  0.17985779384E+04  0.00000000000E+00 0. -1.
          1    1    5    5  502    0 -0.22007540253E+03 -0.20128923900E+02  0.26944750898E+03  0.34848287831E+03  0.00000000000E+00 0. -1.
          3    1    6    6  503    0 -0.14471495026E+03 -0.62690825894E+03 -0.13782646161E+03  0.65799127310E+03  0.00000000000E+00 0. -1.
         -1    1    5    5    0  502 -0.13366694555E+03 -0.45352736473E+02  0.83768538546E+02  0.16413680601E+03  0.00000000000E+00 0.  1.
         -3    1    6    6    0  503  0.40782729171E+01 -0.19045279402E+03 -0.63593998657E+02  0.20083101285E+03  0.00000000000E+00 0.  1.
<mgrwt>
<rscale>  0 0.29205244E+04</rscale>
<asrwt>0</asrwt>
<pdfrwt beam="1">  1        1 0.44991556E+00 0.29205244E+04</pdfrwt>
<pdfrwt beam="2">  1       -1 0.11217704E+00 0.29205244E+04</pdfrwt>
<totfact> 0.42311287E-01</totfact>
</mgrwt>
</event>
<event>
12    1  0.4820219E-008  0.4533178E+04  0.7818608E-02  0.7904854E-01
         -1   -1    0    0    0  501 -0.00000000000E+00  0.00000000000E+00  0.22857844264E+04  0.22857844264E+04  0.00000000000E+00 0.  1.
          1   -1    0    0  501    0  0.00000000000E+00 -0.00000000000E+00 -0.22475547000E+04  0.22475547000E+04  0.00000000000E+00 0. -1.
         23    2    1    2    0    0 -0.20807580519E+04  0.20106665370E+03  0.61880658831E+03  0.21825893379E+04  0.10388818115E+03 0.  0.
        254    2    1    2    0    0  0.20807580519E+04 -0.20106665370E+03 -0.58057686190E+03  0.23507497886E+04  0.90497138413E+03 0.  0.
         23    2    4    4    0    0  0.46665345938E+03  0.24539274834E+03  0.93055694236E+02  0.54315889129E+03  0.91537789322E+02 0.  0.
         23    2    4    4    0    0  0.16141045926E+04 -0.44645940204E+03 -0.67363255614E+03  0.18075908973E+04  0.94574827189E+02 0.  0.
         13    1    3    3    0    0 -0.90707820363E+02  0.29979497138E+02  0.23702213646E+02  0.98430045491E+02  0.00000000000E+00 0. -1.
        -13    1    3    3    0    0 -0.19900502316E+04  0.17108715656E+03  0.59510437467E+03  0.20841592924E+04  0.00000000000E+00 0.  1.
          3    1    6    6  502    0  0.15377844893E+04 -0.44200007304E+03 -0.63031642785E+03  0.17197220704E+04  0.00000000000E+00 0. -1.
          3    1    5    5  503    0  0.38106174970E+03  0.23746833512E+03  0.73018862304E+02  0.45489671523E+03  0.00000000000E+00 0. -1.
         -3    1    5    5    0  503  0.85591709673E+02  0.79244132159E+01  0.20036831932E+02  0.88262176064E+02  0.00000000000E+00 0.  1.
         -3    1    6    6    0  502  0.76320103214E+02 -0.44593289974E+01 -0.43316128292E+02  0.87868826895E+02  0.00000000000E+00 0.  1.
<mgrwt>
<rscale>  0 0.45331779E+04</rscale>
<asrwt>0</asrwt>
<pdfrwt beam="1">  1        1 0.34577765E+00 0.45331779E+04</pdfrwt>
<pdfrwt beam="2">  1       -1 0.35165914E+00 0.45331779E+04</pdfrwt>
<totfact> 0.22948777E-02</totfact>
</mgrwt>
</event>
<event>
12    1  0.4820219E-008  0.1629251E+04  0.7818608E-02  0.8802777E-01
          1   -1    0    0  501    0  0.00000000000E+00  0.00000000000E+00  0.19108184546E+04  0.19108184546E+04  0.00000000000E+00 0. -1.
         -1   -1    0    0    0  501 -0.00000000000E+00 -0.00000000000E+00 -0.34729331997E+03  0.34729331997E+03  0.00000000000E+00 0.  1.
         23    2    1    2    0    0  0.32193629967E+03  0.10173720950E+03  0.11743300894E+04  0.12254417720E+04  0.93074899774E+02 0.  0.
        254    2    1    2    0    0 -0.32193629967E+03 -0.10173720950E+03  0.38919504523E+03  0.10326700025E+04  0.89495313288E+03 0.  0.
         23    2    4    4    0    0 -0.20014312899E+03 -0.48292324479E+03  0.12699352803E+03  0.54523569175E+03  0.88783280803E+02 0.  0.
         23    2    4    4    0    0 -0.12179317068E+03  0.38118603529E+03  0.26220151720E+03  0.48743431078E+03  0.93307029621E+02 0.  0.
         13    1    3    3    0    0  0.51174972442E+02  0.55201977023E+02  0.27075807685E+03  0.28102681767E+03  0.00000000000E+00 0. -1.
        -13    1    3    3    0    0  0.27076132723E+03  0.46535232477E+02  0.90357201252E+03  0.94441495434E+03  0.00000000000E+00 0.  1.
          3    1    6    6  502    0 -0.90177856061E+02  0.34689466284E+03  0.25582921016E+03  0.44035955491E+03  0.00000000000E+00 0. -1.
          3    1    5    5  503    0 -0.18823533580E+03 -0.42204085533E+03  0.13789092863E+03  0.48224986616E+03  0.00000000000E+00 0. -1.
         -3    1    5    5    0  503 -0.11907793196E+02 -0.60882389459E+02 -0.10897400601E+02  0.62985825587E+02  0.00000000000E+00 0.  1.
         -3    1    6    6    0  502 -0.31615314619E+02  0.34291372454E+02  0.63723070427E+01  0.47074755871E+02  0.00000000000E+00 0.  1.
<mgrwt>
<rscale>  0 0.16292507E+04</rscale>
<asrwt>0</asrwt>
<pdfrwt beam="1">  1        1 0.29397206E+00 0.16292507E+04</pdfrwt>
<pdfrwt beam="2">  1       -1 0.53429742E-01 0.16292507E+04</pdfrwt>
<totfact> 0.11591128E+01</totfact>
</mgrwt>
</event>
<event>
12    1  0.4820219E-008  0.1872740E+04  0.7818608E-02  0.8668546E-01
          2   -1    0    0  501    0  0.00000000000E+00  0.00000000000E+00  0.61228335949E+03  0.61228335949E+03  0.00000000000E+00 0. -1.
         -2   -1    0    0    0  501 -0.00000000000E+00 -0.00000000000E+00 -0.14319980155E+04  0.14319980155E+04  0.00000000000E+00 0.  1.
         23    2    1    2    0    0 -0.37832516484E+02 -0.58109049655E+03  0.16021676273E+03  0.60946422639E+03  0.81729845915E+02 0.  0.
        254    2    1    2    0    0  0.37832516484E+02  0.58109049655E+03 -0.97993141873E+03  0.14348171486E+04  0.87139956391E+03 0.  0.
         23    2    4    4    0    0 -0.28941914358E+02  0.67434905397E+03 -0.30816082503E+03  0.74744911965E+03  0.90182101231E+02 0.  0.
         23    2    4    4    0    0  0.66774430842E+02 -0.93258557427E+02 -0.67177059370E+03  0.68736802893E+03  0.89683295493E+02 0.  0.
         13    1    3    3    0    0 -0.31577480907E+00 -0.11823893978E+03  0.20643333311E-01  0.11823936324E+03  0.00000000000E+00 0. -1.
        -13    1    3    3    0    0 -0.37516741674E+02 -0.46285155677E+03  0.16019611940E+03  0.49122486316E+03  0.00000000000E+00 0.  1.
          2    1    5    5  502    0 -0.59755363159E+02  0.34427565238E+03 -0.15428055797E+03  0.38196716982E+03  0.00000000000E+00 0. -1.
          1    1    6    6  503    0  0.44709330134E+01 -0.74505892593E+02 -0.45367266815E+03  0.45977169019E+03  0.00000000000E+00 0. -1.
         -2    1    5    5    0  502  0.30813448801E+02  0.33007340159E+03 -0.15388026706E+03  0.36548194983E+03  0.00000000000E+00 0.  1.
         -1    1    6    6    0  503  0.62303497828E+02 -0.18752664834E+02 -0.21809792555E+03  0.22759633874E+03  0.00000000000E+00 0.  1.
<mgrwt>
<rscale>  0 0.18727398E+04</rscale>
<asrwt>0</asrwt>
<pdfrwt beam="1">  1        2 0.94197441E-01 0.18727398E+04</pdfrwt>
<pdfrwt beam="2">  1       -2 0.22030738E+00 0.18727398E+04</pdfrwt>
<totfact> 0.44660428E+00</totfact>
</mgrwt>
</event>
<event>
12    1  0.7706302E-008  0.1696017E+04  0.7818608E-02  0.8763640E-01
         -1   -1    0    0    0  501 -0.00000000000E+00  0.00000000000E+00  0.40659872604E+03  0.40659872604E+03  0.00000000000E+00 0. -1.
          1   -1    0    0  501    0  0.00000000000E+00 -0.00000000000E+00 -0.17686184113E+04  0.17686184113E+04  0.00000000000E+00 0.  1.
         23    2    1    2    0    0  0.32922803357E+03  0.34601429187E+03 -0.95961726744E+03  0.10758333089E+04  0.91842366286E+02 0.  0.
        254    2    1    2    0    0 -0.32922803357E+03 -0.34601429187E+03 -0.40240241783E+03  0.10993838285E+04  0.90476522269E+03 0.  0.
         23    2    4    4    0    0  0.12581945071E+03 -0.18970466742E+03  0.20342978553E+03  0.32035049978E+03  0.97068893349E+02 0.  0.
         23    2    4    4    0    0 -0.45504748428E+03 -0.15630962445E+03 -0.60583220336E+03  0.77903332870E+03  0.91429519052E+02 0.  0.
         11    1    3    3    0    0  0.23835642633E+02  0.27060779225E+02 -0.30938979218E+02  0.47514672124E+02  0.00000000000E+00 0. -1.
        -11    1    3    3    0    0  0.30539239093E+03  0.31895351264E+03 -0.92867828822E+03  0.10283186367E+04  0.00000000000E+00 0.  1.
          2    1    5    5  502    0  0.30355486149E+02 -0.15564702486E+02 -0.25752940005E+01  0.34210344079E+02  0.00000000000E+00 0. -1.
          3    1    6    6  503    0 -0.49150113173E+02 -0.12091258482E+02 -0.26576533898E+02  0.57168560508E+02  0.00000000000E+00 0. -1.
         -2    1    5    5    0  502  0.95463964560E+02 -0.17413996493E+03  0.20600507953E+03  0.28614015571E+03  0.00000000000E+00 0.  1.
         -3    1    6    6    0  503 -0.40589737110E+03 -0.14421836597E+03 -0.57925566946E+03  0.72186476819E+03  0.00000000000E+00 0.  1.
<mgrwt>
<rscale>  0 0.16960165E+04</rscale>
<asrwt>0</asrwt>
<pdfrwt beam="1">  1        1 0.27209514E+00 0.16960165E+04</pdfrwt>
<pdfrwt beam="2">  1       -1 0.62553651E-01 0.16960165E+04</pdfrwt>
<totfact> 0.10559474E+01</totfact>
</mgrwt>
</event>
<event>
12    1  0.4820219E-008  0.1847892E+04  0.7818608E-02  0.8681238E-01
         -1   -1    0    0    0  501 -0.00000000000E+00  0.00000000000E+00  0.11338688662E+04  0.11338688662E+04  0.00000000000E+00 0.  1.
          1   -1    0    0  501    0  0.00000000000E+00 -0.00000000000E+00 -0.75288759330E+03  0.75288759330E+03  0.00000000000E+00 0. -1.
         23    2    1    2    0    0 -0.45846890731E+03  0.45878706421E+03 -0.11474543858E+03  0.66476632708E+03  0.89824521662E+02 0.  0.
        254    2    1    2    0    0  0.45846890731E+03 -0.45878706421E+03  0.49572671146E+03  0.12219901324E+04  0.90930501043E+03 0.  0.
         23    2    4    4    0    0  0.59843322941E+03 -0.23386770004E+03  0.63578461815E+03  0.90839854958E+03  0.90274099437E+02 0.  0.
         23    2    4    4    0    0 -0.13996432210E+03 -0.22491936417E+03 -0.14005790669E+03  0.31359158283E+03  0.92437718248E+02 0.  0.
         11    1    3    3    0    0 -0.28461846602E+03  0.32886153737E+03 -0.47272157309E+02  0.43748398693E+03  0.00000000000E+00 0. -1.
        -11    1    3    3    0    0 -0.17385044129E+03  0.12992552684E+03 -0.67473281274E+02  0.22728234016E+03  0.00000000000E+00 0.  1.
          2    1    5    5  502    0  0.17643640304E+03 -0.81707267676E+02  0.25018569370E+03  0.31685763876E+03  0.00000000000E+00 0. -1.
          2    1    6    6  503    0 -0.34032488363E+02 -0.11744833572E+03 -0.27499161760E+02  0.12533365759E+03  0.00000000000E+00 0. -1.
         -2    1    5    5    0  502  0.42199682636E+03 -0.15216043236E+03  0.38559892445E+03  0.59154091082E+03  0.00000000000E+00 0.  1.
         -2    1    6    6    0  503 -0.10593183373E+03 -0.10747102845E+03 -0.11255874493E+03  0.18825792524E+03  0.00000000000E+00 0.  1.
<mgrwt>
<rscale>  0 0.18478916E+04</rscale>
<asrwt>0</asrwt>
<pdfrwt beam="1">  1        1 0.11582886E+00 0.18478916E+04</pdfrwt>
<pdfrwt beam="2">  1       -1 0.17444136E+00 0.18478916E+04</pdfrwt>
<totfact> 0.52234337E+00</totfact>
</mgrwt>
</event>
<event>
12    1  0.4820219E-008  0.1463378E+04  0.7818608E-02  0.8909178E-01
          2   -1    0    0  501    0  0.00000000000E+00  0.00000000000E+00  0.23365979782E+04  0.23365979782E+04  0.00000000000E+00 0. -1.
         -2   -1    0    0    0  501 -0.00000000000E+00 -0.00000000000E+00 -0.22912323904E+03  0.22912323904E+03  0.00000000000E+00 0.  1.
         23    2    1    2    0    0  0.43263425027E+02  0.37151276397E+03  0.17815392760E+03  0.42408419830E+03  0.90637341042E+02 0.  0.
        254    2    1    2    0    0 -0.43263425027E+02 -0.37151276397E+03  0.19293208116E+04  0.21416370189E+04  0.85113857228E+03 0.  0.
         23    2    4    4    0    0 -0.19625455962E+03 -0.32795026811E+03  0.27880086857E+03  0.48114104330E+03  0.87747072353E+02 0.  0.
         23    2    4    4    0    0  0.15299113459E+03 -0.43562495861E+02  0.16505199430E+04  0.16604959756E+04  0.87902358398E+02 0.  0.
         11    1    3    3    0    0  0.10160779124E+02  0.30636974761E+03  0.11465892561E+03  0.32728020549E+03  0.00000000000E+00 0.  1.
        -11    1    3    3    0    0  0.33102645903E+02  0.65143016357E+02  0.63495001991E+02  0.96803992809E+02  0.00000000000E+00 0. -1.
          1    1    5    5  502    0 -0.14022586049E+03 -0.28199630551E+03  0.25383738179E+03  0.40449799093E+03  0.00000000000E+00 0. -1.
          3    1    6    6  503    0  0.15376394620E+03 -0.53009038157E+02  0.16274196707E+04  0.16355268552E+04  0.00000000000E+00 0. -1.
         -1    1    5    5    0  502 -0.56028699123E+02 -0.45953962597E+02  0.24963486783E+02  0.76643052367E+02  0.00000000000E+00 0.  1.
         -3    1    6    6    0  503 -0.77281161070E+00  0.94465422962E+01  0.23100272263E+02  0.24969120485E+02  0.00000000000E+00 0.  1.
<mgrwt>
<rscale>  0 0.14633781E+04</rscale>
<asrwt>0</asrwt>
<pdfrwt beam="1">  1        2 0.35947659E+00 0.14633781E+04</pdfrwt>
<pdfrwt beam="2">  1       -2 0.35249731E-01 0.14633781E+04</pdfrwt>
<totfact> 0.31702501E+01</totfact>
</mgrwt>
</event>
<event>
12    1  0.4820219E-008  0.2978048E+04  0.7818608E-02  0.8250027E-01
         -2   -1    0    0    0  501 -0.00000000000E+00  0.00000000000E+00  0.17898197503E+04  0.17898197503E+04  0.00000000000E+00 0. -1.
          2   -1    0    0  501    0  0.00000000000E+00 -0.00000000000E+00 -0.12387793669E+04  0.12387793669E+04  0.00000000000E+00 0.  1.
         23    2    1    2    0    0  0.48960695363E+03 -0.76547428901E+03 -0.76733495342E+03  0.11925934838E+04  0.88376641202E+02 0.  0.
        254    2    1    2    0    0 -0.48960695363E+03  0.76547428901E+03  0.13183753368E+04  0.18360056334E+04  0.89840820407E+03 0.  0.
         23    2    4    4    0    0 -0.29130717146E+03 -0.14799940008E+03  0.32801889584E+03  0.47092217145E+03  0.86067444292E+02 0.  0.
         23    2    4    4    0    0 -0.19829978217E+03  0.91347368909E+03  0.99035644094E+03  0.13650834620E+04  0.94286763487E+02 0.  0.
         13    1    3    3    0    0  0.11457011009E+03 -0.14156730240E+03 -0.11707794823E+03  0.21650602116E+03  0.00000000000E+00 0. -1.
        -13    1    3    3    0    0  0.37503684353E+03 -0.62390698661E+03 -0.65025700519E+03  0.97608746265E+03  0.00000000000E+00 0.  1.
          3    1    5    5  502    0 -0.78340393327E+02 -0.50010653696E+01  0.52300739651E+02  0.94327065308E+02  0.00000000000E+00 0. -1.
          3    1    6    6  503    0 -0.10066519358E+03  0.57774151800E+03  0.67573351105E+03  0.89472594730E+03  0.00000000000E+00 0. -1.
         -3    1    5    5    0  502 -0.21296677813E+03 -0.14299833471E+03  0.27571815619E+03  0.37659510614E+03  0.00000000000E+00 0.  1.
         -3    1    6    6    0  503 -0.97634588589E+02  0.33573217109E+03  0.31462292989E+03  0.47035751467E+03  0.00000000000E+00 0.  1.
<mgrwt>
<rscale>  0 0.29780475E+04</rscale>
<asrwt>0</asrwt>
<pdfrwt beam="1">  1        2 0.19058144E+00 0.29780475E+04</pdfrwt>
<pdfrwt beam="2">  1       -2 0.27535688E+00 0.29780475E+04</pdfrwt>
<totfact> 0.69230946E-01</totfact>
</mgrwt>
</event>
<event>
12    1  0.4820219E-008  0.1422084E+04  0.7818608E-02  0.8937986E-01
          2   -1    0    0  501    0  0.00000000000E+00  0.00000000000E+00  0.35611325612E+03  0.35611325612E+03  0.00000000000E+00 0. -1.
         -2   -1    0    0    0  501 -0.00000000000E+00 -0.00000000000E+00 -0.14197197943E+04  0.14197197943E+04  0.00000000000E+00 0.  1.
         23    2    1    2    0    0  0.41189491944E+03 -0.33499515599E+02 -0.23340690413E+03  0.48335927662E+03  0.91530132684E+02 0.  0.
        254    2    1    2    0    0 -0.41189491944E+03  0.33499515599E+02 -0.83019963408E+03  0.12924737738E+04  0.90026517284E+03 0.  0.
         23    2    4    4    0    0  0.15452134572E+03  0.16367452720E+03 -0.62310493388E+03  0.66873739725E+03  0.91015112527E+02 0.  0.
         23    2    4    4    0    0 -0.56641626516E+03 -0.13017501160E+03 -0.20709470019E+03  0.62373637659E+03  0.91574742967E+02 0.  0.
         13    1    3    3    0    0  0.34921882235E+03  0.14521199463E+01 -0.21173075885E+03  0.40839418309E+03  0.00000000000E+00 0.  1.
        -13    1    3    3    0    0  0.62676097091E+02 -0.34951635545E+02 -0.21676145284E+02  0.74965093532E+02  0.00000000000E+00 0. -1.
          4    1    5    5  502    0  0.14228042294E+03  0.16999560882E+03 -0.61240802651E+03  0.65129549108E+03  0.00000000000E+00 0. -1.
          3    1    6    6  503    0 -0.51889733909E+03 -0.93124626958E+02 -0.17505356365E+03  0.55549112937E+03  0.00000000000E+00 0. -1.
         -4    1    5    5    0  502  0.12240922778E+02 -0.63210816189E+01 -0.10696907375E+02  0.17441906165E+02  0.00000000000E+00 0.  1.
         -3    1    6    6    0  503 -0.47518926066E+02 -0.37050384642E+02 -0.32041136546E+02  0.68245247217E+02  0.00000000000E+00 0.  1.
<mgrwt>
<rscale>  0 0.14220844E+04</rscale>
<asrwt>0</asrwt>
<pdfrwt beam="1">  1        2 0.54786654E-01 0.14220844E+04</pdfrwt>
<pdfrwt beam="2">  1       -2 0.21841843E+00 0.14220844E+04</pdfrwt>
<totfact> 0.89037797E+00</totfact>
</mgrwt>
</event>
<event>
12    1  0.4820219E-008  0.1516424E+04  0.7818608E-02  0.8873604E-01
          1   -1    0    0  501    0  0.00000000000E+00  0.00000000000E+00  0.13089975169E+04  0.13089975169E+04  0.00000000000E+00 0. -1.
         -1   -1    0    0    0  501 -0.00000000000E+00 -0.00000000000E+00 -0.43917989910E+03  0.43917989910E+03  0.00000000000E+00 0.  1.
         23    2    1    2    0    0 -0.30294599379E+03 -0.98503262156E+02 -0.14036244915E+03  0.35994863018E+03  0.91554527058E+02 0.  0.
        254    2    1    2    0    0  0.30294599379E+03  0.98503262156E+02  0.10101800670E+04  0.13882287859E+04  0.89734955639E+03 0.  0.
         23    2    4    4    0    0  0.57014957659E+03  0.23894200031E+03  0.57214679833E+03  0.84825329567E+03  0.10008933792E+03 0.  0.
         23    2    4    4    0    0 -0.26720358280E+03 -0.14043873815E+03  0.43803326864E+03  0.53997549019E+03  0.92626085562E+02 0.  0.
         13    1    3    3    0    0 -0.12728759097E+03 -0.13482692722E+02 -0.95516090636E+02  0.15970985376E+03  0.00000000000E+00 0. -1.
        -13    1    3    3    0    0 -0.17565840282E+03 -0.85020569434E+02 -0.44846358516E+02  0.20023877641E+03  0.00000000000E+00 0.  1.
          2    1    5    5  502    0  0.43491210954E+03  0.18822894180E+03  0.49183208190E+03  0.68299156243E+03  0.00000000000E+00 0. -1.
          3    1    6    6  503    0 -0.26046590039E+03 -0.13806849640E+03  0.37724184165E+03  0.47876591572E+03  0.00000000000E+00 0. -1.
         -2    1    5    5    0  502  0.13523746705E+03  0.50713058510E+02  0.80314716427E+02  0.16526173324E+03  0.00000000000E+00 0.  1.
         -3    1    6    6    0  503 -0.67376824112E+01 -0.23702417564E+01  0.60791426998E+02  0.61209574470E+02  0.00000000000E+00 0.  1.
<mgrwt>
<rscale>  0 0.15164239E+04</rscale>
<asrwt>0</asrwt>
<pdfrwt beam="1">  1        1 0.20138423E+00 0.15164239E+04</pdfrwt>
<pdfrwt beam="2">  1       -1 0.67566139E-01 0.15164239E+04</pdfrwt>
<totfact> 0.19100036E+01</totfact>
</mgrwt>
</event>
<event>
12    1  0.4820219E-008  0.1225994E+04  0.7818608E-02  0.9090403E-01
         -1   -1    0    0    0  501 -0.00000000000E+00  0.00000000000E+00  0.21996408902E+03  0.21996408902E+03  0.00000000000E+00 0.  1.
          1   -1    0    0  501    0  0.00000000000E+00 -0.00000000000E+00 -0.17083032460E+04  0.17083032460E+04  0.00000000000E+00 0. -1.
         23    2    1    2    0    0  0.11974977101E+02  0.22491255580E+03 -0.11381401946E+03  0.26857277177E+03  0.91916510348E+02 0.  0.
        254    2    1    2    0    0 -0.11974977101E+02 -0.22491255580E+03 -0.13745251375E+04  0.16596945633E+04  0.90251738586E+03 0.  0.
         23    2    4    4    0    0 -0.97348495611E+02 -0.20474558617E+03 -0.14770110017E+04  0.14971288341E+04  0.91846404700E+02 0.  0.
         23    2    4    4    0    0  0.85373518510E+02 -0.20166969634E+02  0.10248586416E+03  0.16256572919E+03  0.90713392771E+02 0.  0.
         11    1    3    3    0    0  0.85401085780E+01  0.19848930806E+03 -0.12997247825E+03  0.23741058100E+03  0.00000000000E+00 0. -1.
        -11    1    3    3    0    0  0.34348685232E+01  0.26423247742E+02  0.16158458787E+02  0.31162190766E+02  0.00000000000E+00 0.  1.
          2    1    5    5  502    0 -0.11396141807E+03 -0.19337447809E+03 -0.13501284209E+04  0.13686590688E+04  0.00000000000E+00 0. -1.
          1    1    6    6  503    0  0.10022385355E+03 -0.13890582652E+01  0.70197044013E+02  0.12236982999E+03  0.00000000000E+00 0. -1.
         -2    1    5    5    0  502  0.16612922463E+02 -0.11371108080E+02 -0.12688258077E+03  0.12846976529E+03  0.00000000000E+00 0.  1.
         -1    1    6    6    0  503 -0.14850335042E+02 -0.18777911369E+02  0.32288820143E+02  0.40195899199E+02  0.00000000000E+00 0.  1.
<mgrwt>
<rscale>  0 0.12259941E+04</rscale>
<asrwt>0</asrwt>
<pdfrwt beam="1">  1        1 0.26281588E+00 0.12259941E+04</pdfrwt>
<pdfrwt beam="2">  1       -1 0.33840629E-01 0.12259941E+04</pdfrwt>
<totfact> 0.38315943E+01</totfact>
</mgrwt>
</event>
<event>
12    1  0.4820219E-008  0.2130047E+04  0.7818608E-02  0.8548122E-01
          1   -1    0    0  501    0  0.00000000000E+00  0.00000000000E+00  0.77046506008E+03  0.77046506008E+03  0.00000000000E+00 0. -1.
         -1   -1    0    0    0  501 -0.00000000000E+00 -0.00000000000E+00 -0.14721954526E+04  0.14721954526E+04  0.00000000000E+00 0.  1.
         23    2    1    2    0    0 -0.18150187174E+03 -0.69826648598E+03 -0.80129208328E+03  0.10819152370E+04  0.89177140444E+02 0.  0.
        254    2    1    2    0    0  0.18150187174E+03  0.69826648598E+03  0.99561690809E+02  0.11607452757E+04  0.90382412548E+03 0.  0.
         23    2    4    4    0    0  0.51158949534E+03  0.46003519350E+03 -0.95058388011E+02  0.70050460812E+03  0.91183429821E+02 0.  0.
         23    2    4    4    0    0 -0.33008762360E+03  0.23823129248E+03  0.19462007882E+03  0.46024066754E+03  0.90733174766E+02 0.  0.
         13    1    3    3    0    0 -0.13311299695E+03 -0.57347093288E+03 -0.60349033384E+03  0.84308277403E+03  0.00000000000E+00 0.  1.
        -13    1    3    3    0    0 -0.48388874792E+02 -0.12479555310E+03 -0.19780174944E+03  0.23883246295E+03  0.00000000000E+00 0. -1.
          3    1    5    5  502    0  0.49591365145E+02  0.76734996393E+02  0.68231782344E+01  0.91619424412E+02  0.00000000000E+00 0. -1.
          3    1    6    6  503    0 -0.25098111572E+03  0.19464450764E+03  0.18933946875E+03  0.36976673624E+03  0.00000000000E+00 0.  1.
         -3    1    5    5    0  502  0.46199813019E+03  0.38330019710E+03 -0.10188156625E+03  0.60888518371E+03  0.00000000000E+00 0.  1.
         -3    1    6    6    0  503 -0.79106507880E+02  0.43586784848E+02  0.52806100715E+01  0.90473931301E+02  0.00000000000E+00 0. -1.
<mgrwt>
<rscale>  0 0.21300471E+04</rscale>
<asrwt>0</asrwt>
<pdfrwt beam="1">  1        1 0.11853308E+00 0.21300471E+04</pdfrwt>
<pdfrwt beam="2">  1       -1 0.22649161E+00 0.21300471E+04</pdfrwt>
<totfact> 0.21446267E+00</totfact>
</mgrwt>
</event>
<event>
12    1  0.4820219E-008  0.1607886E+04  0.7818608E-02  0.8815718E-01
         -2   -1    0    0    0  501 -0.00000000000E+00  0.00000000000E+00  0.39406935044E+03  0.39406935044E+03  0.00000000000E+00 0. -1.
          2   -1    0    0  501    0  0.00000000000E+00 -0.00000000000E+00 -0.16401291110E+04  0.16401291110E+04  0.00000000000E+00 0.  1.
         23    2    1    2    0    0 -0.86790794098E+01  0.47671316699E+02  0.26082836227E+03  0.27990750859E+03  0.89268684020E+02 0.  0.
        254    2    1    2    0    0  0.86790794098E+01 -0.47671316699E+02 -0.15068881228E+04  0.17542909528E+04  0.89692644719E+03 0.  0.
         23    2    4    4    0    0  0.38501004192E+03  0.19446513738E+03 -0.70550140305E+03  0.83187023513E+03  0.90699704172E+02 0.  0.
         23    2    4    4    0    0 -0.37633096251E+03 -0.24213645408E+03 -0.80138671977E+03  0.92242071772E+03  0.91565550944E+02 0.  0.
         13    1    3    3    0    0 -0.15600863514E+02  0.17597766077E+01  0.75057159626E+00  0.15717732464E+02  0.00000000000E+00 0.  1.
        -13    1    3    3    0    0  0.69217841045E+01  0.45911540092E+02  0.26007779067E+03  0.26418977613E+03  0.00000000000E+00 0. -1.
          4    1    5    5  502    0  0.36706722433E+03  0.17068321185E+03 -0.61225521595E+03  0.73398062334E+03  0.00000000000E+00 0. -1.
          3    1    6    6  503    0 -0.35067036929E+03 -0.19048250577E+03 -0.70356499377E+03  0.80886154153E+03  0.00000000000E+00 0. -1.
         -4    1    5    5    0  502  0.17942817591E+02  0.23781925531E+02 -0.93246187109E+02  0.97889611785E+02  0.00000000000E+00 0.  1.
         -3    1    6    6    0  503 -0.25660593221E+02 -0.51653948309E+02 -0.97821725996E+02  0.11355917619E+03  0.00000000000E+00 0.  1.
<mgrwt>
<rscale>  0 0.16078863E+04</rscale>
<asrwt>0</asrwt>
<pdfrwt beam="1">  1        2 0.25232755E+00 0.16078863E+04</pdfrwt>
<pdfrwt beam="2">  1       -2 0.60626054E-01 0.16078863E+04</pdfrwt>
<totfact> 0.25710950E+01</totfact>
</mgrwt>
</event>
<event>
12    1  0.4820219E-008  0.2132610E+04  0.7818608E-02  0.8547013E-01
          2   -1    0    0  501    0  0.00000000000E+00  0.00000000000E+00  0.10173947945E+04  0.10173947945E+04  0.00000000000E+00 0.  1.
         -2   -1    0    0    0  501 -0.00000000000E+00 -0.00000000000E+00 -0.11175660761E+04  0.11175660761E+04  0.00000000000E+00 0. -1.
         23    2    1    2    0    0  0.96749642542E+02  0.26832163332E+03 -0.87129721295E+03  0.92160118295E+03  0.93983588328E+02 0.  0.
        254    2    1    2    0    0 -0.96749642542E+02 -0.26832163332E+03  0.77112593134E+03  0.12133596876E+04  0.89232815565E+03 0.  0.
         23    2    4    4    0    0 -0.51615611772E+02 -0.55635228048E+03  0.27297532194E+03  0.62856225035E+03  0.91558422924E+02 0.  0.
         23    2    4    4    0    0 -0.45134030770E+02  0.28803064716E+03  0.49815060940E+03  0.58479743729E+03  0.93996162558E+02 0.  0.
         11    1    3    3    0    0 -0.80096268088E+01  0.76600849300E+02 -0.30629694711E+03  0.31583170209E+03  0.00000000000E+00 0.  1.
        -11    1    3    3    0    0  0.10475926935E+03  0.19172078402E+03 -0.56500026584E+03  0.60576948086E+03  0.00000000000E+00 0. -1.
          2    1    5    5  502    0 -0.38957078646E+02 -0.13116099946E+03  0.99461546226E+02  0.16915513865E+03  0.00000000000E+00 0. -1.
          1    1    6    6  503    0 -0.53038747648E+02  0.94127780649E+02  0.13368735245E+03  0.17188791711E+03  0.00000000000E+00 0. -1.
         -2    1    5    5    0  502 -0.12658533125E+02 -0.42519128102E+03  0.17351377571E+03  0.45940711170E+03  0.00000000000E+00 0.  1.
         -1    1    6    6    0  503  0.79047168781E+01  0.19390286651E+03  0.36446325695E+03  0.41290952018E+03  0.00000000000E+00 0.  1.
<mgrwt>
<rscale>  0 0.21326096E+04</rscale>
<asrwt>0</asrwt>
<pdfrwt beam="1">  1        2 0.15652228E+00 0.21326096E+04</pdfrwt>
<pdfrwt beam="2">  1       -2 0.17193324E+00 0.21326096E+04</pdfrwt>
<totfact> 0.46587745E+00</totfact>
</mgrwt>
</event>
<event>
12    1  0.4820219E-008  0.1590794E+04  0.7818608E-02  0.8826223E-01
         -2   -1    0    0    0  501 -0.00000000000E+00  0.00000000000E+00  0.24134635147E+03  0.24134635147E+03  0.00000000000E+00 0.  1.
          2   -1    0    0  501    0  0.00000000000E+00 -0.00000000000E+00 -0.26213639030E+04  0.26213639030E+04  0.00000000000E+00 0. -1.
         23    2    1    2    0    0 -0.40412828023E+03 -0.14736789036E+03 -0.13775334374E+04  0.14459778587E+04  0.90645654612E+02 0.  0.
        254    2    1    2    0    0  0.40412828023E+03  0.14736789036E+03 -0.10024841141E+04  0.14167323958E+04  0.90394652506E+03 0.  0.
         23    2    4    4    0    0  0.41973854894E+03 -0.31121079527E+03 -0.58337056964E+03  0.78860462504E+03  0.92430647221E+02 0.  0.
         23    2    4    4    0    0 -0.15610268704E+02  0.45857868564E+03 -0.41911354449E+03  0.62812777074E+03  0.91379657448E+02 0.  0.
         11    1    3    3    0    0 -0.27042264234E+03 -0.10510246477E+03 -0.10573809628E+04  0.10964622356E+04  0.00000000000E+00 0. -1.
        -11    1    3    3    0    0 -0.13370563789E+03 -0.42265425599E+02 -0.32015247468E+03  0.34951562318E+03  0.00000000000E+00 0.  1.
          2    1    5    5  502    0  0.35737665993E+03 -0.30113795836E+03 -0.51949522359E+03  0.69876851272E+03  0.00000000000E+00 0. -1.
          1    1    6    6  503    0 -0.27368313678E+02  0.43636566202E+03 -0.36923464523E+03  0.57227461836E+03  0.00000000000E+00 0. -1.
         -2    1    5    5    0  502  0.62361889006E+02 -0.10072836915E+02 -0.63875346051E+02  0.89836112321E+02  0.00000000000E+00 0.  1.
         -1    1    6    6    0  503  0.11758044974E+02  0.22213023618E+02 -0.49878899253E+02  0.55853152378E+02  0.00000000000E+00 0.  1.
<mgrwt>
<rscale>  0 0.15907943E+04</rscale>
<asrwt>0</asrwt>
<pdfrwt beam="1">  1        2 0.40328674E+00 0.15907943E+04</pdfrwt>
<pdfrwt beam="2">  1       -2 0.37130209E-01 0.15907943E+04</pdfrwt>
<totfact> 0.19454274E+01</totfact>
</mgrwt>
</event>
<event>
12    1  0.4820219E-008  0.1612250E+04  0.7818608E-02  0.8813058E-01
          2   -1    0    0  501    0  0.00000000000E+00  0.00000000000E+00  0.18568795319E+04  0.18568795319E+04  0.00000000000E+00 0. -1.
         -2   -1    0    0    0  501 -0.00000000000E+00 -0.00000000000E+00 -0.34996197891E+03  0.34996197891E+03  0.00000000000E+00 0.  1.
         23    2    1    2    0    0  0.25283078193E+03 -0.95481634688E+02  0.11986768097E+04  0.12320498995E+04  0.89892790476E+02 0.  0.
        254    2    1    2    0    0 -0.25283078193E+03  0.95481634688E+02  0.30824074326E+03  0.97479161132E+03  0.88440159591E+03 0.  0.
         23    2    4    4    0    0 -0.34138867046E+03 -0.32411999044E+03  0.22124882059E+03  0.52869407274E+03  0.94691020783E+02 0.  0.
         23    2    4    4    0    0  0.88557888537E+02  0.41960162513E+03  0.86991922674E+02  0.44609753858E+03  0.86760566433E+02 0.  0.
         13    1    3    3    0    0  0.18610882638E+03 -0.65125865179E+02  0.67308367100E+03  0.70136973256E+03  0.00000000000E+00 0. -1.
        -13    1    3    3    0    0  0.66721955543E+02 -0.30355769509E+02  0.52559313873E+03  0.53068016693E+03  0.00000000000E+00 0.  1.
          4    1    5    5  502    0 -0.31863285749E+03 -0.29449014809E+03  0.22890218616E+03  0.49055841245E+03  0.00000000000E+00 0.  1.
          1    1    6    6  503    0  0.46206292567E+02  0.10809953406E+03  0.55964937124E+02  0.13020216943E+03  0.00000000000E+00 0. -1.
         -4    1    5    5    0  502 -0.22755812971E+02 -0.29629842348E+02 -0.76533655668E+01  0.38135660293E+02  0.00000000000E+00 0. -1.
         -1    1    6    6    0  503  0.42351595969E+02  0.31150209107E+03  0.31026985551E+02  0.31589536916E+03  0.00000000000E+00 0.  1.
<mgrwt>
<rscale>  0 0.16122497E+04</rscale>
<asrwt>0</asrwt>
<pdfrwt beam="1">  1        2 0.28567377E+00 0.16122497E+04</pdfrwt>
<pdfrwt beam="2">  1       -2 0.53840306E-01 0.16122497E+04</pdfrwt>
<totfact> 0.24980218E+01</totfact>
</mgrwt>
</event>
<event>
12    1  0.4820219E-008  0.2031625E+04  0.7818608E-02  0.8591976E-01
         -2   -1    0    0    0  501 -0.00000000000E+00  0.00000000000E+00  0.64214023627E+03  0.64214023627E+03  0.00000000000E+00 0.  1.
          2   -1    0    0  501    0  0.00000000000E+00 -0.00000000000E+00 -0.16069301875E+04  0.16069301875E+04  0.00000000000E+00 0. -1.
         23    2    1    2    0    0 -0.18745211568E+03  0.42308119377E+03  0.35204007885E+03  0.58847775379E+03  0.90762643131E+02 0.  0.
        254    2    1    2    0    0  0.18745211568E+03 -0.42308119377E+03 -0.13168300301E+04  0.16605926700E+04  0.89966143370E+03 0.  0.
         23    2    4    4    0    0  0.38233666047E+03 -0.21077588406E+03 -0.12811077942E+04  0.13565736144E+04  0.91907537846E+02 0.  0.
         23    2    4    4    0    0 -0.19488454479E+03 -0.21230530971E+03 -0.35722235827E+02  0.30401905560E+03  0.89988764338E+02 0.  0.
         13    1    3    3    0    0 -0.15883889950E+02  0.13105823125E+03  0.83096706924E+02  0.15599237366E+03  0.00000000000E+00 0. -1.
        -13    1    3    3    0    0 -0.17156822573E+03  0.29202296252E+03  0.26894337193E+03  0.43248538013E+03  0.00000000000E+00 0.  1.
          2    1    5    5  502    0  0.17228596104E+03 -0.12645672773E+03 -0.51094848052E+03  0.55384303382E+03  0.00000000000E+00 0.  1.
          4    1    6    6  503    0  0.87235260588E+01 -0.19855068246E+02 -0.10131036012E+01  0.21710596971E+02  0.00000000000E+00 0. -1.
         -2    1    5    5    0  502  0.21005069943E+03 -0.84319156329E+02 -0.77015931372E+03  0.80273058056E+03  0.00000000000E+00 0. -1.
         -4    1    6    6    0  503 -0.20360807084E+03 -0.19245024147E+03 -0.34709132225E+02  0.28230845863E+03  0.00000000000E+00 0.  1.
<mgrwt>
<rscale>  0 0.20316245E+04</rscale>
<asrwt>0</asrwt>
<pdfrwt beam="1">  1        2 0.24722003E+00 0.20316245E+04</pdfrwt>
<pdfrwt beam="2">  1       -2 0.98790806E-01 0.20316245E+04</pdfrwt>
<totfact> 0.87079402E+00</totfact>
</mgrwt>
</event>
<event>
12    1  0.4820219E-008  0.2255411E+04  0.7818608E-02  0.8495712E-01
          2   -1    0    0  501    0  0.00000000000E+00  0.00000000000E+00  0.15117624709E+04  0.15117624709E+04  0.00000000000E+00 0. -1.
         -2   -1    0    0    0  501 -0.00000000000E+00 -0.00000000000E+00 -0.84121645580E+03  0.84121645580E+03  0.00000000000E+00 0.  1.
         23    2    1    2    0    0 -0.66081277003E+02 -0.37418270677E+03 -0.61990454313E+03  0.73278870022E+03  0.91204184951E+02 0.  0.
        254    2    1    2    0    0  0.66081277003E+02  0.37418270677E+03  0.12904505583E+04  0.16201902265E+04  0.90298078250E+03 0.  0.
         23    2    4    4    0    0 -0.28063418655E+03  0.37801801887E+03  0.29788140293E+03  0.56495800541E+03  0.93760590935E+02 0.  0.
         23    2    4    4    0    0  0.34671546355E+03 -0.38353121021E+01  0.99256915533E+03  0.10552322211E+04  0.89973274195E+02 0.  0.
         13    1    3    3    0    0 -0.86383032468E+02 -0.34177359471E+03 -0.55982120487E+03  0.66156707880E+03  0.00000000000E+00 0.  1.
        -13    1    3    3    0    0  0.20301755465E+02 -0.32409112065E+02 -0.60083338264E+02  0.71221621414E+02  0.00000000000E+00 0. -1.
          2    1    5    5  502    0 -0.19798736941E+03  0.20265162705E+03  0.20681258793E+03  0.35076791033E+03  0.00000000000E+00 0. -1.
          3    1    6    6  503    0  0.28748682547E+03 -0.16182019951E+02  0.70820407901E+03  0.76450215835E+03  0.00000000000E+00 0. -1.
         -2    1    5    5    0  502 -0.82646817135E+02  0.17536639182E+03  0.91068815003E+02  0.21419009508E+03  0.00000000000E+00 0.  1.
         -3    1    6    6    0  503  0.59228638078E+02  0.12346707849E+02  0.28436507632E+03  0.29073006276E+03  0.00000000000E+00 0.  1.
<mgrwt>
<rscale>  0 0.22554108E+04</rscale>
<asrwt>0</asrwt>
<pdfrwt beam="1">  1        2 0.23257884E+00 0.22554108E+04</pdfrwt>
<pdfrwt beam="2">  1       -2 0.12941792E+00 0.22554108E+04</pdfrwt>
<totfact> 0.49974956E+00</totfact>
</mgrwt>
</event>
<event>
12    1  0.4820219E-008  0.1720476E+04  0.7818608E-02  0.8749771E-01
         -2   -1    0    0    0  501 -0.00000000000E+00  0.00000000000E+00  0.37640583069E+03  0.37640583069E+03  0.00000000000E+00 0.  1.
          2   -1    0    0  501    0  0.00000000000E+00 -0.00000000000E+00 -0.19659889163E+04  0.19659889163E+04  0.00000000000E+00 0. -1.
         23    2    1    2    0    0 -0.32390055801E+02  0.62543591594E+03 -0.64127866126E+03  0.90109095453E+03  0.92235493601E+02 0.  0.
        254    2    1    2    0    0  0.32390055801E+02 -0.62543591594E+03 -0.94830442432E+03  0.14413037924E+04  0.88648527355E+03 0.  0.
         23    2    4    4    0    0 -0.27511548645E+03 -0.68041635060E+03 -0.52325009385E+03  0.90622672665E+03  0.93815128532E+02 0.  0.
         23    2    4    4    0    0  0.30750554225E+03  0.54980434654E+02 -0.42505433048E+03  0.53507706578E+03  0.89742831245E+02 0.  0.
         11    1    3    3    0    0 -0.62665975279E+02  0.44947626522E+03 -0.44139511382E+03  0.63307628605E+03  0.00000000000E+00 0. -1.
        -11    1    3    3    0    0  0.30275919479E+02  0.17595965072E+03 -0.19988354744E+03  0.26801466848E+03  0.00000000000E+00 0.  1.
          1    1    5    5  502    0 -0.93456674930E+02 -0.33825477774E+03 -0.27832200427E+03  0.44789907659E+03  0.00000000000E+00 0. -1.
          3    1    6    6  503    0  0.62650402249E+02 -0.24102403731E+02 -0.10135891699E+03  0.12157149675E+03  0.00000000000E+00 0. -1.
         -1    1    5    5    0  502 -0.18165881152E+03 -0.34216157286E+03 -0.24492808958E+03  0.45832765006E+03  0.00000000000E+00 0.  1.
         -3    1    6    6    0  503  0.24485514000E+03  0.79082838386E+02 -0.32369541349E+03  0.41350556904E+03  0.00000000000E+00 0.  1.
<mgrwt>
<rscale>  0 0.17204763E+04</rscale>
<asrwt>0</asrwt>
<pdfrwt beam="1">  1        2 0.30245983E+00 0.17204763E+04</pdfrwt>
<pdfrwt beam="2">  1       -2 0.57908589E-01 0.17204763E+04</pdfrwt>
<totfact> 0.18506406E+01</totfact>
</mgrwt>
</event>
<event>
12    1  0.4820219E-008  0.1471009E+04  0.7818608E-02  0.8903964E-01
         -1   -1    0    0    0  501 -0.00000000000E+00  0.00000000000E+00  0.85161132901E+03  0.85161132901E+03  0.00000000000E+00 0.  1.
          1   -1    0    0  501    0  0.00000000000E+00 -0.00000000000E+00 -0.63522754579E+03  0.63522754579E+03  0.00000000000E+00 0. -1.
         23    2    1    2    0    0 -0.30677588940E+03 -0.32205132423E+03  0.14122290423E+03  0.47542427919E+03  0.90861624471E+02 0.  0.
        254    2    1    2    0    0  0.30677588940E+03  0.32205132423E+03  0.75160878992E+02  0.10114145956E+04  0.90525235416E+03 0.  0.
         23    2    4    4    0    0  0.30139538546E+03  0.16980197519E+03  0.46296005760E+03  0.58483989535E+03  0.89631462686E+02 0.  0.
         23    2    4    4    0    0  0.53805039460E+01  0.15224934904E+03 -0.38779917861E+03  0.42657470026E+03  0.91482008425E+02 0.  0.
         13    1    3    3    0    0 -0.23910015448E+03 -0.20528223502E+03  0.12681791431E+03  0.33969466184E+03  0.00000000000E+00 0.  1.
        -13    1    3    3    0    0 -0.67675734921E+02 -0.11676908921E+03  0.14404989923E+02  0.13572961735E+03  0.00000000000E+00 0. -1.
          4    1    5    5  502    0  0.97885945920E+02  0.86398710960E+02  0.22991061849E+03  0.26439608197E+03  0.00000000000E+00 0. -1.
          4    1    6    6  503    0  0.12388840232E+02  0.78537197759E+02 -0.30634991202E+03  0.31649935764E+03  0.00000000000E+00 0. -1.
         -4    1    5    5    0  502  0.20350943954E+03  0.83403264233E+02  0.23304943911E+03  0.32044381338E+03  0.00000000000E+00 0.  1.
         -4    1    6    6    0  503 -0.70083362863E+01  0.73712151281E+02 -0.81449266588E+02  0.11007534261E+03  0.00000000000E+00 0.  1.
<mgrwt>
<rscale>  0 0.14710091E+04</rscale>
<asrwt>0</asrwt>
<pdfrwt beam="1">  1        1 0.97727315E-01 0.14710091E+04</pdfrwt>
<pdfrwt beam="2">  1       -1 0.13101713E+00 0.14710091E+04</pdfrwt>
<totfact> 0.15195217E+01</totfact>
</mgrwt>
</event>
<event>
12    1  0.4820219E-008  0.2631377E+04  0.7818608E-02  0.8357621E-01
          2   -1    0    0  501    0  0.00000000000E+00  0.00000000000E+00  0.86761518586E+03  0.86761518586E+03  0.00000000000E+00 0. -1.
         -2   -1    0    0    0  501 -0.00000000000E+00 -0.00000000000E+00 -0.19951662190E+04  0.19951662190E+04  0.00000000000E+00 0.  1.
         23    2    1    2    0    0 -0.94746150037E+03 -0.64819148449E+03 -0.33382300508E+03  0.11988525991E+04  0.89298715010E+02 0.  0.
        254    2    1    2    0    0  0.94746150037E+03  0.64819148449E+03 -0.79372802810E+03  0.16639288058E+04  0.90599083482E+03 0.  0.
         23    2    4    4    0    0  0.42263127478E+03  0.37458512861E+03 -0.88928766949E+03  0.10572413706E+04  0.89417803291E+02 0.  0.
         23    2    4    4    0    0  0.52483022558E+03  0.27360635588E+03  0.95559641395E+02  0.60668743518E+03  0.92902073574E+02 0.  0.
         13    1    3    3    0    0 -0.85864540846E+03 -0.60207575072E+03 -0.28100031698E+03  0.10856925556E+04  0.00000000000E+00 0. -1.
        -13    1    3    3    0    0 -0.88816091902E+02 -0.46115733764E+02 -0.52822688101E+02  0.11316004356E+03  0.00000000000E+00 0.  1.
          2    1    5    5  502    0  0.31150938254E+03  0.32057139514E+03 -0.66709056912E+03  0.80300307733E+03  0.00000000000E+00 0.  1.
          1    1    6    6  503    0  0.33763237932E+03  0.22469645287E+03  0.68906444819E+02  0.41137843603E+03  0.00000000000E+00 0. -1.
         -2    1    5    5    0  502  0.11112189224E+03  0.54013733473E+02 -0.22219710037E+03  0.25423829325E+03  0.00000000000E+00 0. -1.
         -1    1    6    6    0  503  0.18719784627E+03  0.48909903014E+02  0.26653196576E+02  0.19530899915E+03  0.00000000000E+00 0.  1.
<mgrwt>
<rscale>  0 0.26313772E+04</rscale>
<asrwt>0</asrwt>
<pdfrwt beam="1">  1        2 0.13347926E+00 0.26313772E+04</pdfrwt>
<pdfrwt beam="2">  1       -2 0.30694865E+00 0.26313772E+04</pdfrwt>
<totfact> 0.78447793E-01</totfact>
</mgrwt>
</event>
<event>
12    1  0.4820219E-008  0.1576125E+04  0.7818608E-02  0.8835351E-01
          1   -1    0    0  501    0  0.00000000000E+00  0.00000000000E+00  0.31021744560E+03  0.31021744560E+03  0.00000000000E+00 0. -1.
         -1   -1    0    0    0  501 -0.00000000000E+00 -0.00000000000E+00 -0.20019597836E+04  0.20019597836E+04  0.00000000000E+00 0.  1.
         23    2    1    2    0    0  0.19406584600E+03 -0.48313378375E+03 -0.44361910920E+03  0.69004169900E+03  0.90993553241E+02 0.  0.
        254    2    1    2    0    0 -0.19406584600E+03  0.48313378375E+03 -0.12481232288E+04  0.16221355302E+04  0.89578584407E+03 0.  0.
         23    2    4    4    0    0  0.10700366230E+03 -0.18121769978E+03 -0.59996726536E+03  0.64185224091E+03  0.87885955654E+02 0.  0.
         23    2    4    4    0    0 -0.30106950830E+03  0.66435148353E+03 -0.64815596339E+03  0.98028328924E+03  0.94039522456E+02 0.  0.
         13    1    3    3    0    0  0.20246093328E+03 -0.44766955960E+03 -0.40289824351E+03  0.63539393978E+03  0.00000000000E+00 0. -1.
        -13    1    3    3    0    0 -0.83950872733E+01 -0.35464224156E+02 -0.40720865686E+02  0.54647759218E+02  0.00000000000E+00 0.  1.
          2    1    5    5  502    0  0.54460055628E+02 -0.50652338988E+02 -0.31963095020E+03  0.32816992768E+03  0.00000000000E+00 0. -1.
          1    1    6    6  503    0 -0.18409959071E+03  0.36209152697E+03 -0.30265624756E+03  0.50656069467E+03  0.00000000000E+00 0. -1.
         -2    1    5    5    0  502  0.52543606670E+02 -0.13056536079E+03 -0.28033631516E+03  0.31368231324E+03  0.00000000000E+00 0.  1.
         -1    1    6    6    0  503 -0.11696991759E+03  0.30225995656E+03 -0.34549971583E+03  0.47372259456E+03  0.00000000000E+00 0.  1.
<mgrwt>
<rscale>  0 0.15761254E+04</rscale>
<asrwt>0</asrwt>
<pdfrwt beam="1">  1        1 0.47725763E-01 0.15761254E+04</pdfrwt>
<pdfrwt beam="2">  1       -1 0.30799380E+00 0.15761254E+04</pdfrwt>
<totfact> 0.23699678E+00</totfact>
</mgrwt>
</event>
<event>
12    1  0.4820219E-008  0.1405698E+04  0.7818608E-02  0.8949705E-01
          1   -1    0    0  501    0  0.00000000000E+00  0.00000000000E+00  0.17260461992E+04  0.17260461992E+04  0.00000000000E+00 0. -1.
         -1   -1    0    0    0  501 -0.00000000000E+00 -0.00000000000E+00 -0.28620113421E+03  0.28620113421E+03  0.00000000000E+00 0.  1.
         23    2    1    2    0    0 -0.35797147356E+02  0.31650148083E+03  0.78760216157E+03  0.85461417147E+03  0.92701639937E+02 0.  0.
        254    2    1    2    0    0  0.35797147356E+02 -0.31650148083E+03  0.65224290343E+03  0.11576331619E+04  0.90179770982E+03 0.  0.
         23    2    4    4    0    0  0.40043607830E+02 -0.54739672181E+03  0.71056853262E+03  0.90209338001E+03  0.87282100895E+02 0.  0.
         23    2    4    4    0    0 -0.42464604736E+01  0.23089524098E+03 -0.58325629186E+02  0.25553978194E+03  0.92563796369E+02 0.  0.
         13    1    3    3    0    0 -0.64997438990E+02  0.22247831910E+03  0.51414240570E+03  0.56397134935E+03  0.00000000000E+00 0. -1.
        -13    1    3    3    0    0  0.29200291634E+02  0.94023161723E+02  0.27345975587E+03  0.29064282212E+03  0.00000000000E+00 0.  1.
          2    1    5    5  502    0 -0.18626360572E+02 -0.16110139781E+03  0.25155640155E+03  0.29930122760E+03  0.00000000000E+00 0. -1.
          1    1    6    6  503    0  0.38653299294E+02  0.53577276650E+02 -0.21042859192E+02  0.69335445787E+02  0.00000000000E+00 0. -1.
         -2    1    5    5    0  502  0.58669968402E+02 -0.38629532399E+03  0.45901213107E+03  0.60279215241E+03  0.00000000000E+00 0.  1.
         -1    1    6    6    0  503 -0.42899759768E+02  0.17731796433E+03 -0.37282769995E+02  0.18620433615E+03  0.00000000000E+00 0.  1.
<mgrwt>
<rscale>  0 0.14056975E+04</rscale>
<asrwt>0</asrwt>
<pdfrwt beam="1">  1        1 0.26554556E+00 0.14056975E+04</pdfrwt>
<pdfrwt beam="2">  1       -1 0.44030945E-01 0.14056975E+04</pdfrwt>
<totfact> 0.22746422E+01</totfact>
</mgrwt>
</event>
<event>
12    1  0.4820219E-008  0.1084426E+04  0.7818608E-02  0.9220505E-01
          1   -1    0    0  501    0  0.00000000000E+00  0.00000000000E+00  0.54223810301E+03  0.54223810301E+03  0.00000000000E+00 0. -1.
         -1   -1    0    0    0  501 -0.00000000000E+00 -0.00000000000E+00 -0.54218811995E+03  0.54218811995E+03  0.00000000000E+00 0.  1.
         23    2    1    2    0    0 -0.82107044378E+02 -0.18107590895E+02  0.81419969066E+02  0.14863271631E+03  0.91613434660E+02 0.  0.
        254    2    1    2    0    0  0.82107044378E+02  0.18107590895E+02 -0.81369986013E+02  0.93579350665E+03  0.92844976217E+03 0.  0.
         23    2    4    4    0    0  0.18687418940E+03 -0.23340232106E+03 -0.39928508395E+03  0.50723467985E+03  0.91977367024E+02 0.  0.
         23    2    4    4    0    0 -0.10476714502E+03  0.25150991195E+03  0.31791509793E+03  0.42855882680E+03  0.91429032838E+02 0.  0.
         11    1    3    3    0    0 -0.80744593054E+02 -0.48039186620E+02  0.56286280302E+02  0.10952441787E+03  0.00000000000E+00 0. -1.
        -11    1    3    3    0    0 -0.13624513247E+01  0.29931595725E+02  0.25133688764E+02  0.39108298444E+02  0.00000000000E+00 0.  1.
          2    1    5    5  502    0  0.18023714884E+03 -0.20706161811E+03 -0.39294798529E+03  0.47934127994E+03  0.00000000000E+00 0. -1.
          3    1    6    6  503    0 -0.10977657111E+03  0.15658969034E+03  0.22961192288E+03  0.29881911219E+03  0.00000000000E+00 0. -1.
         -2    1    5    5    0  502  0.66370405648E+01 -0.26340702947E+02 -0.63370986595E+01  0.27893399912E+02  0.00000000000E+00 0.  1.
         -3    1    6    6    0  503  0.50094260847E+01  0.94920221609E+02  0.88303175056E+02  0.12973971460E+03  0.00000000000E+00 0.  1.
<mgrwt>
<rscale>  0 0.10844262E+04</rscale>
<asrwt>0</asrwt>
<pdfrwt beam="1">  1        1 0.83421247E-01 0.10844262E+04</pdfrwt>
<pdfrwt beam="2">  1       -1 0.83413557E-01 0.10844262E+04</pdfrwt>
<totfact> 0.56332950E+01</totfact>
</mgrwt>
</event>
<event>
12    1  0.4820219E-008  0.1791163E+04  0.7818608E-02  0.8711013E-01
          1   -1    0    0  501    0  0.00000000000E+00  0.00000000000E+00  0.92586807456E+03  0.92586807456E+03  0.00000000000E+00 0. -1.
         -1   -1    0    0    0  501 -0.00000000000E+00 -0.00000000000E+00 -0.86628543780E+03  0.86628543780E+03  0.00000000000E+00 0.  1.
         23    2    1    2    0    0  0.48663009935E+03  0.89303426842E+01 -0.42598893717E+03  0.65323021423E+03  0.91403137680E+02 0.  0.
        254    2    1    2    0    0 -0.48663009935E+03 -0.89303426842E+01  0.48557157393E+03  0.11389232981E+04  0.90800766572E+03 0.  0.
         23    2    4    4    0    0 -0.84304667499E+02 -0.36528949265E+03  0.45076195831E+03  0.59248953997E+03  0.85520883457E+02 0.  0.
         23    2    4    4    0    0 -0.40232543186E+03  0.35635914997E+03  0.34809615613E+02  0.54643375816E+03  0.92306802766E+02 0.  0.
         13    1    3    3    0    0  0.36030196307E+02  0.15069044592E+02 -0.64998373736E+02  0.75829016472E+02  0.00000000000E+00 0. -1.
        -13    1    3    3    0    0  0.45059990305E+03 -0.61387019074E+01 -0.36099056343E+03  0.57740119776E+03  0.00000000000E+00 0.  1.
          3    1    5    5  502    0  0.11121403162E+02 -0.13054081455E+03  0.16025046832E+03  0.20698986078E+03  0.00000000000E+00 0. -1.
          3    1    6    6  503    0 -0.34428879920E+03  0.25999279268E+03  0.11678925273E+02  0.43158710221E+03  0.00000000000E+00 0. -1.
         -3    1    5    5    0  502 -0.95426070661E+02 -0.23474867810E+03  0.29051149000E+03  0.38549967919E+03  0.00000000000E+00 0.  1.
         -3    1    6    6    0  503 -0.58036632651E+02  0.96366357292E+02  0.23130690340E+02  0.11484665595E+03  0.00000000000E+00 0.  1.
<mgrwt>
<rscale>  0 0.17911628E+04</rscale>
<asrwt>0</asrwt>
<pdfrwt beam="1">  1        1 0.14244124E+00 0.17911628E+04</pdfrwt>
<pdfrwt beam="2">  1       -1 0.13327468E+00 0.17911628E+04</pdfrwt>
<totfact> 0.77936220E+00</totfact>
</mgrwt>
</event>
<event>
12    1  0.4820219E-008  0.1458721E+04  0.7818608E-02  0.8912376E-01
         -2   -1    0    0    0  501 -0.00000000000E+00  0.00000000000E+00  0.50698374033E+03  0.50698374033E+03  0.00000000000E+00 0.  1.
          2   -1    0    0  501    0  0.00000000000E+00 -0.00000000000E+00 -0.10492783280E+04  0.10492783280E+04  0.00000000000E+00 0. -1.
         23    2    1    2    0    0  0.25700558289E+03  0.31214276465E+03  0.33045426229E+02  0.41560970286E+03  0.90301991973E+02 0.  0.
        254    2    1    2    0    0 -0.25700558289E+03 -0.31214276465E+03 -0.57534001392E+03  0.11406523655E+04  0.89810172704E+03 0.  0.
         23    2    4    4    0    0 -0.12064581399E+03  0.12389077383E+03  0.17158583599E+03  0.26033349796E+03  0.91801387656E+02 0.  0.
         23    2    4    4    0    0 -0.13635976890E+03 -0.43603353847E+03 -0.74692584991E+03  0.88031886753E+03  0.91344677021E+02 0.  0.
         11    1    3    3    0    0  0.17309460299E+03  0.24858172435E+03  0.55556858493E+02  0.30796295198E+03  0.00000000000E+00 0.  1.
        -11    1    3    3    0    0  0.83910979906E+02  0.63561040293E+02 -0.22511432264E+02  0.10764675088E+03  0.00000000000E+00 0. -1.
          4    1    6    6  502    0 -0.14133441827E+03 -0.32385513969E+03 -0.57916563523E+03  0.67844705197E+03  0.00000000000E+00 0. -1.
          4    1    5    5  503    0 -0.13455453469E+02  0.40676398338E+02  0.95708960509E+02  0.10486097335E+03  0.00000000000E+00 0. -1.
         -4    1    5    5    0  503 -0.10719036052E+03  0.83214375487E+02  0.75876875479E+02  0.15547252461E+03  0.00000000000E+00 0.  1.
         -4    1    6    6    0  502  0.49746493682E+01 -0.11217839878E+03 -0.16776021467E+03  0.20187181556E+03  0.00000000000E+00 0.  1.
<mgrwt>
<rscale>  0 0.14587214E+04</rscale>
<asrwt>0</asrwt>
<pdfrwt beam="1">  1        2 0.16142743E+00 0.14587214E+04</pdfrwt>
<pdfrwt beam="2">  1       -2 0.77997499E-01 0.14587214E+04</pdfrwt>
<totfact> 0.33237755E+01</totfact>
</mgrwt>
</event>
<event>
12    1  0.4820219E-008  0.1478830E+04  0.7818608E-02  0.8898654E-01
          1   -1    0    0  501    0  0.00000000000E+00  0.00000000000E+00  0.12370015513E+04  0.12370015513E+04  0.00000000000E+00 0. -1.
         -1   -1    0    0    0  501 -0.00000000000E+00 -0.00000000000E+00 -0.44198382636E+03  0.44198382636E+03  0.00000000000E+00 0.  1.
         23    2    1    2    0    0 -0.29124867398E+02  0.47384593166E+03  0.32808409449E+03  0.58388059935E+03  0.88877198330E+02 0.  0.
        254    2    1    2    0    0  0.29124867398E+02 -0.47384593166E+03  0.46693363043E+03  0.10951047783E+04  0.86939590256E+03 0.  0.
         23    2    4    4    0    0  0.22583180946E+03 -0.50787198596E+03  0.61353522785E+03  0.83245087139E+03  0.87264065790E+02 0.  0.
         23    2    4    4    0    0 -0.19670694206E+03  0.34026054297E+02 -0.14660159743E+03  0.26265390691E+03  0.87427987619E+02 0.  0.
         11    1    3    3    0    0 -0.35287578119E+02  0.47197933368E+03  0.33020563464E+03  0.57710091469E+03  0.00000000000E+00 0. -1.
        -11    1    3    3    0    0  0.61627107205E+01  0.18665979806E+01 -0.21215401459E+01  0.67796846561E+01  0.00000000000E+00 0.  1.
          1    1    6    6  502    0 -0.12284007356E+03 -0.22540409897E+02 -0.84854843360E+02  0.15099039106E+03  0.00000000000E+00 0. -1.
          1    1    5    5  503    0 -0.46692799899E+01 -0.32534405180E+02  0.51672069107E+02  0.61239631137E+02  0.00000000000E+00 0. -1.
         -1    1    5    5    0  503  0.23050108945E+03 -0.47533758078E+03  0.56186315875E+03  0.77121124025E+03  0.00000000000E+00 0.  1.
         -1    1    6    6    0  502 -0.73866868503E+02  0.56566464194E+02 -0.61746754068E+02  0.11166351585E+03  0.00000000000E+00 0.  1.
<mgrwt>
<rscale>  0 0.14788302E+04</rscale>
<asrwt>0</asrwt>
<pdfrwt beam="1">  1        1 0.19030793E+00 0.14788302E+04</pdfrwt>
<pdfrwt beam="2">  1       -1 0.67997512E-01 0.14788302E+04</pdfrwt>
<totfact> 0.21308388E+01</totfact>
</mgrwt>
</event>
<event>
12    1  0.4820219E-008  0.1368778E+04  0.7818608E-02  0.8976734E-01
          1   -1    0    0  501    0  0.00000000000E+00  0.00000000000E+00  0.12042164905E+04  0.12042164905E+04  0.00000000000E+00 0. -1.
         -1   -1    0    0    0  501 -0.00000000000E+00 -0.00000000000E+00 -0.38895684320E+03  0.38895684320E+03  0.00000000000E+00 0.  1.
         23    2    1    2    0    0  0.14440584760E+03 -0.30704947626E+03  0.43560976857E+03  0.55978245877E+03  0.92022285222E+02 0.  0.
        254    2    1    2    0    0 -0.14440584760E+03  0.30704947626E+03  0.37964987874E+03  0.10333908749E+04  0.89923870041E+03 0.  0.
         23    2    4    4    0    0  0.82852022804E+02 -0.24536053896E+03 -0.68881030488E+02  0.28109082359E+03  0.84859902107E+02 0.  0.
         23    2    4    4    0    0 -0.22725787040E+03  0.55241001521E+03  0.44853090923E+03  0.75230005135E+03  0.89288443632E+02 0.  0.
         13    1    3    3    0    0  0.58144461069E+02 -0.16743865703E+03  0.29262772312E+03  0.34212200537E+03  0.00000000000E+00 0. -1.
        -13    1    3    3    0    0  0.86261386530E+02 -0.13961081922E+03  0.14298204546E+03  0.21766045340E+03  0.00000000000E+00 0.  1.
          3    1    6    6  502    0 -0.12241503640E+02  0.83068387487E+02  0.35513683961E+02  0.91167061813E+02  0.00000000000E+00 0. -1.
          3    1    5    5  503    0  0.18883495296E+01 -0.21818883277E+01 -0.19952213907E+02  0.20159795148E+02  0.00000000000E+00 0. -1.
         -3    1    5    5    0  503  0.80963673275E+02 -0.24317865063E+03 -0.48928816582E+02  0.26093102844E+03  0.00000000000E+00 0.  1.
         -3    1    6    6    0  502 -0.21501636676E+03  0.46934162773E+03  0.41301722526E+03  0.66113298954E+03  0.00000000000E+00 0.  1.
<mgrwt>
<rscale>  0 0.13687779E+04</rscale>
<asrwt>0</asrwt>
<pdfrwt beam="1">  1        1 0.18526407E+00 0.13687779E+04</pdfrwt>
<pdfrwt beam="2">  1       -1 0.59839515E-01 0.13687779E+04</pdfrwt>
<totfact> 0.29362742E+01</totfact>
</mgrwt>
</event>
<event>
12    1  0.4820219E-008  0.2110624E+04  0.7818608E-02  0.8556578E-01
          2   -1    0    0  501    0  0.00000000000E+00  0.00000000000E+00  0.13912452244E+04  0.13912452244E+04  0.00000000000E+00 0.  1.
         -2   -1    0    0    0  501 -0.00000000000E+00 -0.00000000000E+00 -0.80049366467E+03  0.80049366467E+03  0.00000000000E+00 0. -1.
         23    2    1    2    0    0  0.50704568553E+02  0.25608073932E+03 -0.60457972200E+03  0.66474648247E+03  0.90680468566E+02 0.  0.
        254    2    1    2    0    0 -0.50704568553E+02 -0.25608073932E+03  0.11953312817E+04  0.15269924066E+04  0.91364141676E+03 0.  0.
         23    2    4    4    0    0 -0.28678132984E+03 -0.11780447335E+02  0.11298051854E+04  0.11692359893E+04  0.90943563754E+02 0.  0.
         23    2    4    4    0    0  0.23607676129E+03 -0.24430029199E+03  0.65526096362E+02  0.35775641727E+03  0.91000631355E+02 0.  0.
         11    1    3    3    0    0  0.74582257498E+02  0.16355836538E+03 -0.36662663445E+03  0.40832455365E+03  0.00000000000E+00 0.  1.
        -11    1    3    3    0    0 -0.23877688945E+02  0.92522373942E+02 -0.23795308755E+03  0.25642192883E+03  0.00000000000E+00 0. -1.
          2    1    5    5  502    0 -0.16256853643E+03  0.22500749681E+02  0.49541898591E+03  0.52189537684E+03  0.00000000000E+00 0. -1.
          3    1    6    6  503    0  0.24042914041E+03 -0.21656774559E+03  0.61867070747E+02  0.32944695238E+03  0.00000000000E+00 0. -1.
         -2    1    5    5    0  502 -0.12421279341E+03 -0.34281197016E+02  0.63438619945E+03  0.64734061249E+03  0.00000000000E+00 0.  1.
         -3    1    6    6    0  503 -0.43523791250E+01 -0.27732546403E+02  0.36590256157E+01  0.28309464892E+02  0.00000000000E+00 0.  1.
<mgrwt>
<rscale>  0 0.21106236E+04</rscale>
<asrwt>0</asrwt>
<pdfrwt beam="1">  1        2 0.21403773E+00 0.21106236E+04</pdfrwt>
<pdfrwt beam="2">  1       -2 0.12315287E+00 0.21106236E+04</pdfrwt>
<totfact> 0.67098775E+00</totfact>
</mgrwt>
</event>
<event>
12    1  0.4820219E-008  0.1708175E+04  0.7818608E-02  0.8756715E-01
         -2   -1    0    0    0  501 -0.00000000000E+00  0.00000000000E+00  0.12810044856E+04  0.12810044856E+04  0.00000000000E+00 0.  1.
          2   -1    0    0  501    0  0.00000000000E+00 -0.00000000000E+00 -0.56944811654E+03  0.56944811654E+03  0.00000000000E+00 0. -1.
         23    2    1    2    0    0  0.21806806568E+03 -0.47403842374E+03 -0.76574160187E+02  0.53499799738E+03  0.89961918298E+02 0.  0.
        254    2    1    2    0    0 -0.21806806568E+03  0.47403842374E+03  0.78813052921E+03  0.13154546047E+04  0.91487976124E+03 0.  0.
         23    2    4    4    0    0  0.26996099482E+03  0.27446595662E+03  0.65232018234E+03  0.76328565784E+03  0.94195940012E+02 0.  0.
         23    2    4    4    0    0 -0.48802906050E+03  0.19957246712E+03  0.13581034687E+03  0.55216894687E+03  0.91894298236E+02 0.  0.
         11    1    3    3    0    0  0.12562754542E+03 -0.29509720796E+03 -0.90087199513E+02  0.33313712767E+03  0.00000000000E+00 0. -1.
        -11    1    3    3    0    0  0.92440520257E+02 -0.17894121579E+03  0.13513039326E+02  0.20186086972E+03  0.00000000000E+00 0.  1.
          4    1    5    5  502    0  0.13349070779E+03  0.74786556917E+02  0.28527056055E+03  0.32371606521E+03  0.00000000000E+00 0. -1.
          1    1    6    6  503    0 -0.28875947999E+03  0.89550238667E+02  0.11550524815E+03  0.32363983821E+03  0.00000000000E+00 0. -1.
         -4    1    5    5    0  502  0.13647028702E+03  0.19967939970E+03  0.36704962179E+03  0.43956959263E+03  0.00000000000E+00 0.  1.
         -1    1    6    6    0  503 -0.19926958051E+03  0.11002222846E+03  0.20305098727E+02  0.22852910866E+03  0.00000000000E+00 0.  1.
<mgrwt>
<rscale>  0 0.17081752E+04</rscale>
<asrwt>0</asrwt>
<pdfrwt beam="1">  1        2 0.87607403E-01 0.17081752E+04</pdfrwt>
<pdfrwt beam="2">  1       -2 0.19707761E+00 0.17081752E+04</pdfrwt>
<totfact> 0.69768957E+00</totfact>
</mgrwt>
</event>
<event>
12    1  0.4820219E-008  0.1296669E+04  0.7818608E-02  0.9032211E-01
         -2   -1    0    0    0  501 -0.00000000000E+00  0.00000000000E+00  0.16383337262E+04  0.16383337262E+04  0.00000000000E+00 0.  1.
          2   -1    0    0  501    0  0.00000000000E+00 -0.00000000000E+00 -0.25656403852E+03  0.25656403852E+03  0.00000000000E+00 0. -1.
         23    2    1    2    0    0  0.21399729044E+03  0.23631780907E+03  0.18669683698E+03  0.38081230584E+03  0.92311191841E+02 0.  0.
        254    2    1    2    0    0 -0.21399729044E+03 -0.23631780907E+03  0.11950728507E+04  0.15140854589E+04  0.87327814075E+03 0.  0.
         23    2    4    4    0    0 -0.40631457295E+03  0.82570592951E+02  0.24823168979E+03  0.49189230738E+03  0.91813044959E+02 0.  0.
         23    2    4    4    0    0  0.19231728251E+03 -0.31888840202E+03  0.94684116089E+03  0.10221931515E+04  0.98462708148E+02 0.  0.
         11    1    3    3    0    0  0.20251010485E+02  0.43788115147E+02  0.67083907283E+02  0.82630218868E+02  0.00000000000E+00 0.  1.
        -11    1    3    3    0    0  0.19374627996E+03  0.19252969392E+03  0.11961292970E+03  0.29818208697E+03  0.00000000000E+00 0. -1.
          4    1    5    5  502    0 -0.43208260442E+02  0.21321503644E+02  0.69122016779E+00  0.48187530268E+02  0.00000000000E+00 0. -1.
          3    1    6    6  503    0  0.11229473436E+03 -0.14231597534E+03  0.34246671970E+03  0.38748857829E+03  0.00000000000E+00 0. -1.
         -4    1    5    5    0  502 -0.36310631251E+03  0.61249089307E+02  0.24754046963E+03  0.44370477711E+03  0.00000000000E+00 0.  1.
         -3    1    6    6    0  503  0.80022548156E+02 -0.17657242668E+03  0.60437444118E+03  0.63470457319E+03  0.00000000000E+00 0.  1.
<mgrwt>
<rscale>  0 0.12966688E+04</rscale>
<asrwt>0</asrwt>
<pdfrwt beam="1">  1        2 0.39471392E-01 0.12966688E+04</pdfrwt>
<pdfrwt beam="2">  1       -2 0.25205134E+00 0.12966688E+04</pdfrwt>
<totfact> 0.80170293E+00</totfact>
</mgrwt>
</event>
<event>
12    1  0.4820219E-008  0.2885045E+04  0.7818608E-02  0.8277341E-01
          2   -1    0    0  501    0  0.00000000000E+00  0.00000000000E+00  0.27602432388E+04  0.27602432388E+04  0.00000000000E+00 0. -1.
         -2   -1    0    0    0  501 -0.00000000000E+00 -0.00000000000E+00 -0.75387243424E+03  0.75387243424E+03  0.00000000000E+00 0.  1.
         23    2    1    2    0    0 -0.17476447516E+03 -0.10858141024E+04  0.64316150704E+02  0.11075528842E+04  0.11402603819E+03 0.  0.
        254    2    1    2    0    0  0.17476447516E+03  0.10858141024E+04  0.19420546539E+04  0.24065627888E+04  0.90024068509E+03 0.  0.
         23    2    4    4    0    0 -0.22945421247E+03  0.54067210343E+03  0.39152241388E+03  0.71153164854E+03  0.89509369635E+02 0.  0.
         23    2    4    4    0    0  0.40421868763E+03  0.54514199899E+03  0.15505322400E+04  0.16950311403E+04  0.91694017017E+02 0.  0.
         11    1    3    3    0    0 -0.33813039282E+02 -0.34504588881E+03 -0.28180465720E+02  0.34784209875E+03  0.00000000000E+00 0. -1.
        -11    1    3    3    0    0 -0.14095143588E+03 -0.74076821360E+03  0.92496616423E+02  0.75971078550E+03  0.00000000000E+00 0.  1.
          3    1    6    6  502    0  0.11258601021E+03  0.96085848083E+02  0.29347297546E+03  0.32868600096E+03  0.00000000000E+00 0. -1.
          3    1    5    5  503    0 -0.15792517442E+03  0.32182479655E+03  0.28437138612E+03  0.45757911407E+03  0.00000000000E+00 0. -1.
         -3    1    5    5    0  503 -0.71529038051E+02  0.21884730687E+03  0.10715102777E+03  0.25395253447E+03  0.00000000000E+00 0.  1.
         -3    1    6    6    0  502  0.29163267742E+03  0.44905615090E+03  0.12570592645E+04  0.13663451393E+04  0.00000000000E+00 0.  1.
<mgrwt>
<rscale>  0 0.28850451E+04</rscale>
<asrwt>0</asrwt>
<pdfrwt beam="1">  1        2 0.42465280E+00 0.28850451E+04</pdfrwt>
<pdfrwt beam="2">  1       -2 0.11598038E+00 0.28850451E+04</pdfrwt>
<totfact> 0.12191239E+00</totfact>
</mgrwt>
</event>
<event>
12    1  0.4820219E-008  0.1827525E+04  0.7818608E-02  0.8691798E-01
          1   -1    0    0  501    0  0.00000000000E+00  0.00000000000E+00  0.14674761019E+04  0.14674761019E+04  0.00000000000E+00 0. -1.
         -1   -1    0    0    0  501 -0.00000000000E+00 -0.00000000000E+00 -0.56897797745E+03  0.56897797745E+03  0.00000000000E+00 0.  1.
         23    2    1    2    0    0  0.63059704746E+03 -0.20423682284E+03  0.21536340044E+03  0.70372280543E+03  0.97360549328E+02 0.  0.
        254    2    1    2    0    0 -0.63059704746E+03  0.20423682284E+03  0.68313472400E+03  0.13327312739E+04  0.93280988485E+03 0.  0.
         23    2    4    4    0    0 -0.53946619072E+03  0.16579963233E+03  0.90738482580E+03  0.10725944842E+04  0.92727647010E+02 0.  0.
         23    2    4    4    0    0 -0.91130856735E+02  0.38437190509E+02 -0.22425010180E+03  0.26013678967E+03  0.87182512694E+02 0.  0.
         11    1    3    3    0    0  0.10853944967E+02 -0.78860518166E+01  0.21475799139E+02  0.25322082917E+02  0.00000000000E+00 0. -1.
        -11    1    3    3    0    0  0.61974310249E+03 -0.19635077103E+03  0.19388760130E+03  0.67840072251E+03  0.00000000000E+00 0.  1.
          4    1    5    5  502    0 -0.50046875686E+03  0.17126145998E+03  0.80856443566E+03  0.96621732074E+03  0.00000000000E+00 0. -1.
          1    1    6    6  503    0 -0.36309530402E+02  0.36028919317E+02 -0.18686081440E+03  0.19373546135E+03  0.00000000000E+00 0. -1.
         -4    1    5    5    0  502 -0.38997433861E+02 -0.54618276467E+01  0.98820390138E+02  0.10637716351E+03  0.00000000000E+00 0.  1.
         -1    1    6    6    0  503 -0.54821326333E+02  0.24082711913E+01 -0.37389287402E+02  0.66401328326E+02  0.00000000000E+00 0.  1.
<mgrwt>
<rscale>  0 0.18275246E+04</rscale>
<asrwt>0</asrwt>
<pdfrwt beam="1">  1        1 0.22576555E+00 0.18275246E+04</pdfrwt>
<pdfrwt beam="2">  1       -1 0.87535074E-01 0.18275246E+04</pdfrwt>
<totfact> 0.83300655E+00</totfact>
</mgrwt>
</event>
<event>
12    1  0.4820219E-008  0.1346434E+04  0.7818608E-02  0.8993532E-01
         -2   -1    0    0    0  501 -0.00000000000E+00  0.00000000000E+00  0.39656986214E+03  0.39656986214E+03  0.00000000000E+00 0.  1.
          2   -1    0    0  501    0  0.00000000000E+00 -0.00000000000E+00 -0.11428532161E+04  0.11428532161E+04  0.00000000000E+00 0. -1.
         23    2    1    2    0    0 -0.27436123643E+02  0.83457834067E+02 -0.62572493553E+03  0.63831752605E+03  0.90551743029E+02 0.  0.
        254    2    1    2    0    0  0.27436123643E+02 -0.83457834067E+02 -0.12055841844E+03  0.90110555219E+03  0.88867256793E+03 0.  0.
         23    2    4    4    0    0  0.22782045610E+03 -0.40939761869E+03  0.33891693869E+02  0.47855798376E+03  0.91435914703E+02 0.  0.
         23    2    4    4    0    0 -0.20038433246E+03  0.32593978462E+03 -0.15445011230E+03  0.42254756844E+03  0.91109749790E+02 0.  0.
         11    1    3    3    0    0  0.21239270800E+02  0.64079749083E+02 -0.24987152561E+03  0.25883025360E+03  0.00000000000E+00 0.  1.
        -11    1    3    3    0    0 -0.48675394443E+02  0.19378084984E+02 -0.37585340992E+03  0.37948727244E+03  0.00000000000E+00 0. -1.
          3    1    6    6  502    0 -0.13561171034E+03  0.22283475617E+03 -0.14955446950E+03  0.30068655421E+03  0.00000000000E+00 0. -1.
          3    1    5    5  503    0  0.43128705155E+02 -0.15143072233E+03  0.34971931332E+02  0.16128975434E+03  0.00000000000E+00 0. -1.
         -3    1    5    5    0  503  0.18469175095E+03 -0.25796689636E+03 -0.10802374632E+01  0.31726822942E+03  0.00000000000E+00 0.  1.
         -3    1    6    6    0  502 -0.64772622123E+02  0.10310502845E+03 -0.48956428024E+01  0.12186101422E+03  0.00000000000E+00 0.  1.
<mgrwt>
<rscale>  0 0.13464340E+04</rscale>
<asrwt>0</asrwt>
<pdfrwt beam="1">  1        2 0.17582357E+00 0.13464340E+04</pdfrwt>
<pdfrwt beam="2">  1       -2 0.61010748E-01 0.13464340E+04</pdfrwt>
<totfact> 0.50086127E+01</totfact>
</mgrwt>
</event>
<event>
12    1  0.4820219E-008  0.1368325E+04  0.7818608E-02  0.8977071E-01
          1   -1    0    0  501    0  0.00000000000E+00  0.00000000000E+00  0.93738194250E+03  0.93738194250E+03  0.00000000000E+00 0. -1.
         -1   -1    0    0    0  501 -0.00000000000E+00 -0.00000000000E+00 -0.49934661201E+03  0.49934661201E+03  0.00000000000E+00 0.  1.
         23    2    1    2    0    0  0.12734279357E+03  0.28715270007E+03 -0.91397715573E+02  0.33957955810E+03  0.91037759390E+02 0.  0.
        254    2    1    2    0    0 -0.12734279357E+03 -0.28715270007E+03  0.52943304607E+03  0.10971489964E+04  0.90816502345E+03 0.  0.
         23    2    4    4    0    0  0.23509859852E+03 -0.47350848263E+03  0.23274520696E+03  0.58474473633E+03  0.90963955201E+02 0.  0.
         23    2    4    4    0    0 -0.36244139209E+03  0.18635578256E+03  0.29668783910E+03  0.51240426008E+03  0.91881507845E+02 0.  0.
         13    1    3    3    0    0  0.23477470270E+02  0.88287504676E+01 -0.24510366641E+02  0.35069880496E+02  0.00000000000E+00 0. -1.
        -13    1    3    3    0    0  0.10386532330E+03  0.27832394960E+03 -0.66887348932E+02  0.30450967760E+03  0.00000000000E+00 0.  1.
          4    1    5    5  502    0  0.17670124052E+03 -0.28728475970E+03  0.18127998713E+03  0.38290768507E+03  0.00000000000E+00 0. -1.
          3    1    6    6  503    0 -0.30893846728E+03  0.13784133300E+03  0.20452865213E+03  0.39531655568E+03  0.00000000000E+00 0. -1.
         -4    1    5    5    0  502  0.58397358005E+02 -0.18622372294E+03  0.51465219831E+02  0.20183705125E+03  0.00000000000E+00 0.  1.
         -3    1    6    6    0  503 -0.53502924807E+02  0.48514449558E+02  0.92159186975E+02  0.11708770440E+03  0.00000000000E+00 0.  1.
<mgrwt>
<rscale>  0 0.13683252E+04</rscale>
<asrwt>0</asrwt>
<pdfrwt beam="1">  1        1 0.14421261E+00 0.13683252E+04</pdfrwt>
<pdfrwt beam="2">  1       -1 0.76822556E-01 0.13683252E+04</pdfrwt>
<totfact> 0.28198276E+01</totfact>
</mgrwt>
</event>
<event>
12    1  0.4820219E-008  0.1465486E+04  0.7818608E-02  0.8907734E-01
         -1   -1    0    0    0  501 -0.00000000000E+00  0.00000000000E+00  0.75296274919E+03  0.75296274919E+03  0.00000000000E+00 0.  1.
          1   -1    0    0  501    0  0.00000000000E+00 -0.00000000000E+00 -0.71306639340E+03  0.71306639340E+03  0.00000000000E+00 0. -1.
         23    2    1    2    0    0  0.37554556062E+03 -0.55519611260E+02  0.26052881812E+03  0.46938678496E+03  0.91278658405E+02 0.  0.
        254    2    1    2    0    0 -0.37554556062E+03  0.55519611260E+02 -0.22063246233E+03  0.99664235763E+03  0.89470688511E+03 0.  0.
         23    2    4    4    0    0  0.26744639318E+03 -0.44948462200E+02 -0.17987543858E+03  0.33851233497E+03  0.93206706009E+02 0.  0.
         23    2    4    4    0    0 -0.64299195380E+03  0.10046807346E+03 -0.40757023751E+02  0.65813002267E+03  0.89115123953E+02 0.  0.
         11    1    3    3    0    0  0.60954096187E+02 -0.40441360444E+02  0.70238842372E+02  0.10141203308E+03  0.00000000000E+00 0. -1.
        -11    1    3    3    0    0  0.31459146443E+03 -0.15078250816E+02  0.19028997575E+03  0.36797475187E+03  0.00000000000E+00 0.  1.
          1    1    5    5  502    0  0.23568389152E+03 -0.50332226708E+01 -0.14638060392E+03  0.27748785786E+03  0.00000000000E+00 0. -1.
          3    1    6    6  503    0 -0.46197034232E+03  0.31510434669E+02 -0.23190989881E+02  0.46362412220E+03  0.00000000000E+00 0. -1.
         -1    1    5    5    0  502  0.31762501652E+02 -0.39915239529E+02 -0.33494834654E+02  0.61024477109E+02  0.00000000000E+00 0.  1.
         -3    1    6    6    0  503 -0.18102161148E+03  0.68957638791E+02 -0.17566033870E+02  0.19450590046E+03  0.00000000000E+00 0.  1.
<mgrwt>
<rscale>  0 0.14654862E+04</rscale>
<asrwt>0</asrwt>
<pdfrwt beam="1">  1        1 0.10970252E+00 0.14654862E+04</pdfrwt>
<pdfrwt beam="2">  1       -1 0.11584042E+00 0.14654862E+04</pdfrwt>
<totfact> 0.17334350E+01</totfact>
</mgrwt>
</event>
<event>
12    1  0.4820219E-008  0.1927023E+04  0.7818608E-02  0.8641521E-01
          1   -1    0    0  501    0  0.00000000000E+00  0.00000000000E+00  0.13614917354E+04  0.13614917354E+04  0.00000000000E+00 0. -1.
         -1   -1    0    0    0  501 -0.00000000000E+00 -0.00000000000E+00 -0.68186537729E+03  0.68186537729E+03  0.00000000000E+00 0.  1.
         23    2    1    2    0    0 -0.27712521946E+03  0.31353260567E+03 -0.39524195058E+03  0.58326263205E+03  0.94223226263E+02 0.  0.
        254    2    1    2    0    0  0.27712521946E+03 -0.31353260567E+03  0.10748683087E+04  0.14600944806E+04  0.89522786444E+03 0.  0.
         23    2    4    4    0    0 -0.21681935469E+03 -0.42854189523E+00  0.48476491368E+01  0.23737056869E+03  0.96490781732E+02 0.  0.
         23    2    4    4    0    0  0.49394457415E+03 -0.31310406377E+03  0.10700206595E+04  0.12227239119E+04  0.89967526877E+02 0.  0.
         11    1    3    3    0    0 -0.12979233840E+02  0.61733984182E+02 -0.45342223891E+02  0.77688239660E+02  0.00000000000E+00 0. -1.
        -11    1    3    3    0    0 -0.26414598562E+03  0.25179862149E+03 -0.34989972669E+03  0.50557439239E+03  0.00000000000E+00 0.  1.
          3    1    5    5  502    0  0.96960945982E+01  0.46078976875E+01  0.76156454978E+00  0.10762293070E+02  0.00000000000E+00 0. -1.
          3    1    6    6  503    0  0.31181123240E+03 -0.14564963122E+03  0.63537306668E+03  0.72259185823E+03  0.00000000000E+00 0. -1.
         -3    1    5    5    0  502 -0.22651544929E+03 -0.50364395827E+01  0.40860845871E+01  0.22660827562E+03  0.00000000000E+00 0.  1.
         -3    1    6    6    0  503  0.18213334175E+03 -0.16745443256E+03  0.43464759286E+03  0.50013205370E+03  0.00000000000E+00 0.  1.
<mgrwt>
<rscale>  0 0.19270227E+04</rscale>
<asrwt>0</asrwt>
<pdfrwt beam="1">  1        1 0.20946027E+00 0.19270227E+04</pdfrwt>
<pdfrwt beam="2">  1       -1 0.10490237E+00 0.19270227E+04</pdfrwt>
<totfact> 0.65140358E+00</totfact>
</mgrwt>
</event>
<event>
12    1  0.4820219E-008  0.1176829E+04  0.7818608E-02  0.9133383E-01
          1   -1    0    0  501    0  0.00000000000E+00  0.00000000000E+00  0.43510930381E+03  0.43510930381E+03  0.00000000000E+00 0. -1.
         -1   -1    0    0    0  501 -0.00000000000E+00 -0.00000000000E+00 -0.79573508462E+03  0.79573508462E+03  0.00000000000E+00 0.  1.
         23    2    1    2    0    0  0.22991817062E+03  0.67313606547E+02 -0.15235952303E+03  0.29836972091E+03  0.91747366681E+02 0.  0.
        254    2    1    2    0    0 -0.22991817062E+03 -0.67313606547E+02 -0.20826625778E+03  0.93247466752E+03  0.87677858359E+03 0.  0.
         23    2    4    4    0    0 -0.18571846324E+03  0.37353046404E+03 -0.21960604297E+03  0.48010937181E+03  0.90894662276E+02 0.  0.
         23    2    4    4    0    0 -0.44199707373E+02 -0.44084407059E+03  0.11339785195E+02  0.45236529572E+03  0.90601662973E+02 0.  0.
         11    1    3    3    0    0  0.82591719465E+02 -0.10303401481E+01 -0.11514369012E+02  0.83396848974E+02  0.00000000000E+00 0. -1.
        -11    1    3    3    0    0  0.14732645115E+03  0.68343946695E+02 -0.14084515402E+03  0.21497287194E+03  0.00000000000E+00 0.  1.
          4    1    5    5  502    0 -0.19017567016E+03  0.36264465842E+03 -0.19652254097E+03  0.45420154437E+03  0.00000000000E+00 0. -1.
          1    1    6    6  503    0 -0.70712367580E+02 -0.35889447065E+03  0.15616937712E+02  0.36612753070E+03  0.00000000000E+00 0. -1.
         -4    1    5    5    0  502  0.44572069186E+01  0.10885805625E+02 -0.23083502008E+02  0.25907827438E+02  0.00000000000E+00 0.  1.
         -1    1    6    6    0  503  0.26512660206E+02 -0.81949599941E+02 -0.42771525170E+01  0.86237765018E+02  0.00000000000E+00 0.  1.
<mgrwt>
<rscale>  0 0.11768292E+04</rscale>
<asrwt>0</asrwt>
<pdfrwt beam="1">  1        1 0.66939894E-01 0.11768292E+04</pdfrwt>
<pdfrwt beam="2">  1       -1 0.12242078E+00 0.11768292E+04</pdfrwt>
<totfact> 0.31321414E+01</totfact>
</mgrwt>
</event>
<event>
12    1  0.4820219E-008  0.2576047E+04  0.7818608E-02  0.8376383E-01
         -2   -1    0    0    0  501 -0.00000000000E+00  0.00000000000E+00  0.12319888723E+04  0.12319888723E+04  0.00000000000E+00 0.  1.
          2   -1    0    0  501    0  0.00000000000E+00 -0.00000000000E+00 -0.13466070191E+04  0.13466070191E+04  0.00000000000E+00 0. -1.
         23    2    1    2    0    0 -0.78616658589E+03  0.79251844844E+03 -0.29338212036E+03  0.11574288493E+04  0.86168907986E+02 0.  0.
        254    2    1    2    0    0  0.78616658589E+03 -0.79251844844E+03  0.17876397357E+03  0.14211670421E+04  0.86117118582E+03 0.  0.
         23    2    4    4    0    0  0.27791162915E+03  0.59647803107E+02  0.29315835618E+03  0.41823245354E+03  0.90464519925E+02 0.  0.
         23    2    4    4    0    0  0.50825495674E+03 -0.85216625155E+03 -0.11439438261E+03  0.10029345885E+04  0.91001608384E+02 0.  0.
         11    1    3    3    0    0 -0.73712979529E+03  0.74547884000E+03 -0.29620199757E+03  0.10894194139E+04  0.00000000000E+00 0.  1.
        -11    1    3    3    0    0 -0.49036790594E+02  0.47039608441E+02  0.28198772074E+01  0.68009435386E+02  0.00000000000E+00 0. -1.
          4    1    5    5  502    0  0.30142222932E+02  0.34200381640E+02  0.71582003002E+02  0.84865793234E+02  0.00000000000E+00 0. -1.
          4    1    6    6  503    0  0.18987964892E+03 -0.29288521110E+03  0.13775752459E+01  0.34905289809E+03  0.00000000000E+00 0. -1.
         -4    1    5    5    0  502  0.24776940621E+03  0.25447421467E+02  0.22157635318E+03  0.33336666031E+03  0.00000000000E+00 0.  1.
         -4    1    6    6    0  503  0.31837530782E+03 -0.55928104045E+03 -0.11577195785E+03  0.65388169042E+03  0.00000000000E+00 0.  1.
<mgrwt>
<rscale>  0 0.25760473E+04</rscale>
<asrwt>0</asrwt>
<pdfrwt beam="1">  1        2 0.20717031E+00 0.25760473E+04</pdfrwt>
<pdfrwt beam="2">  1       -2 0.18953675E+00 0.25760473E+04</pdfrwt>
<totfact> 0.21492703E+00</totfact>
</mgrwt>
</event>
<event>
12    1  0.4820219E-008  0.1184442E+04  0.7818608E-02  0.9126584E-01
          1   -1    0    0  501    0  0.00000000000E+00  0.00000000000E+00  0.11103306412E+04  0.11103306412E+04  0.00000000000E+00 0. -1.
         -1   -1    0    0    0  501 -0.00000000000E+00 -0.00000000000E+00 -0.31587510021E+03  0.31587510021E+03  0.00000000000E+00 0.  1.
         23    2    1    2    0    0 -0.17442882612E+03 -0.15055503958E+03  0.23542719194E+03  0.34169872068E+03  0.90773441516E+02 0.  0.
        254    2    1    2    0    0  0.17442882612E+03  0.15055503958E+03  0.55902834904E+03  0.10845070207E+04  0.90030580783E+03 0.  0.
         23    2    4    4    0    0  0.46639876923E+03  0.32049438455E+03  0.40371764834E+03  0.70171627079E+03  0.95777464205E+02 0.  0.
         23    2    4    4    0    0 -0.29196994310E+03 -0.16993934497E+03  0.15531070070E+03  0.38279074992E+03  0.91002834149E+02 0.  0.
         13    1    3    3    0    0 -0.63708656625E+02 -0.29647346079E+02  0.12699769259E+03  0.14514190291E+03  0.00000000000E+00 0. -1.
        -13    1    3    3    0    0 -0.11072016950E+03 -0.12090769350E+03  0.10842949935E+03  0.19655681777E+03  0.00000000000E+00 0.  1.
          2    1    5    5  502    0  0.13131021439E+03  0.14456943842E+03  0.14590701979E+03  0.24378587603E+03  0.00000000000E+00 0. -1.
          1    1    6    6  503    0 -0.17158437645E+03 -0.55020336120E+02  0.10667705123E+03  0.20940016449E+03  0.00000000000E+00 0. -1.
         -2    1    5    5    0  502  0.33508855484E+03  0.17592494614E+03  0.25781062854E+03  0.45793039476E+03  0.00000000000E+00 0.  1.
         -1    1    6    6    0  503 -0.12038556665E+03 -0.11491900885E+03  0.48633649475E+02  0.17339058543E+03  0.00000000000E+00 0.  1.
<mgrwt>
<rscale>  0 0.11844422E+04</rscale>
<asrwt>0</asrwt>
<pdfrwt beam="1">  1        1 0.17082010E+00 0.11844422E+04</pdfrwt>
<pdfrwt beam="2">  1       -1 0.48596170E-01 0.11844422E+04</pdfrwt>
<totfact> 0.52266411E+01</totfact>
</mgrwt>
</event>
<event>
12    1  0.4820219E-008  0.3182876E+04  0.7818608E-02  0.8193354E-01
          2   -1    0    0  501    0  0.00000000000E+00  0.00000000000E+00  0.29811163811E+04  0.29811163811E+04  0.00000000000E+00 0. -1.
         -2   -1    0    0    0  501 -0.00000000000E+00 -0.00000000000E+00 -0.84957255307E+03  0.84957255307E+03  0.00000000000E+00 0.  1.
         23    2    1    2    0    0 -0.92294176892E+03  0.10836906290E+04  0.10870068296E+04  0.17931953206E+04  0.88083608738E+02 0.  0.
        254    2    1    2    0    0  0.92294176892E+03 -0.10836906290E+04  0.10445369985E+04  0.20374936136E+04  0.10169148420E+04 0.  0.
         23    2    4    4    0    0  0.10315471630E+04 -0.11021583048E+04  0.70262924365E+03  0.16676742092E+04  0.92773573394E+02 0.  0.
         23    2    4    4    0    0 -0.10860539404E+03  0.18467675723E+02  0.34190775484E+03  0.36981940436E+03  0.87916394138E+02 0.  0.
         13    1    3    3    0    0 -0.87159975339E+03  0.10184757924E+04  0.10476472487E+04  0.17013358950E+04  0.00000000000E+00 0. -1.
        -13    1    3    3    0    0 -0.51342015525E+02  0.65214836658E+02  0.39359580879E+02  0.91859425676E+02  0.00000000000E+00 0.  1.
          2    1    5    5  502    0  0.76338482103E+03 -0.84783433056E+03  0.49354213983E+03  0.12430459689E+04  0.00000000000E+00 0. -1.
          3    1    6    6  503    0 -0.10150792255E+03  0.43576608657E+02  0.30676971625E+03  0.32605281470E+03  0.00000000000E+00 0. -1.
         -2    1    5    5    0  502  0.26816234192E+03 -0.25432397420E+03  0.20908710382E+03  0.42462824030E+03  0.00000000000E+00 0.  1.
         -3    1    6    6    0  503 -0.70974714835E+01 -0.25108932934E+02  0.35138038590E+02  0.43766589660E+02  0.00000000000E+00 0.  1.
<mgrwt>
<rscale>  0 0.31828758E+04</rscale>
<asrwt>0</asrwt>
<pdfrwt beam="1">  1        2 0.45863328E+00 0.31828758E+04</pdfrwt>
<pdfrwt beam="2">  1       -2 0.13070347E+00 0.31828758E+04</pdfrwt>
<totfact> 0.64590280E-01</totfact>
</mgrwt>
</event>
<event>
12    1  0.4820219E-008  0.1292704E+04  0.7818608E-02  0.9035371E-01
          2   -1    0    0  501    0  0.00000000000E+00  0.00000000000E+00  0.44916721778E+04  0.44916721778E+04  0.00000000000E+00 0. -1.
         -2   -1    0    0    0  501 -0.00000000000E+00 -0.00000000000E+00 -0.93010110046E+02  0.93010110046E+02  0.00000000000E+00 0.  1.
         23    2    1    2    0    0 -0.10602740008E+03  0.30215481211E+03  0.58584573803E+03  0.67387476735E+03  0.91392741784E+02 0.  0.
        254    2    1    2    0    0  0.10602740008E+03 -0.30215481211E+03  0.38128163297E+04  0.39108075205E+04  0.80889292129E+03 0.  0.
         23    2    4    4    0    0  0.18252657475E+02 -0.44211411111E+03  0.10720083883E+04  0.11635067252E+04  0.93530038629E+02 0.  0.
         23    2    4    4    0    0  0.87774742606E+02  0.13995929899E+03  0.27408079414E+04  0.27473007953E+04  0.91326215123E+02 0.  0.
         11    1    3    3    0    0 -0.56625875452E+02  0.21175227230E+03  0.31206519763E+03  0.38135312004E+03  0.00000000000E+00 0.  1.
        -11    1    3    3    0    0 -0.49401524630E+02  0.90402539812E+02  0.27378054040E+03  0.29252164731E+03  0.00000000000E+00 0. -1.
          2    1    5    5  502    0  0.23323304349E+02 -0.55909032230E+02  0.92217841834E+02  0.11033551905E+03  0.00000000000E+00 0. -1.
          4    1    6    6  503    0  0.73925813556E+02  0.12581622874E+03  0.16849427788E+04  0.16912501048E+04  0.00000000000E+00 0.  1.
         -2    1    5    5    0  502 -0.50706468735E+01 -0.38620507888E+03  0.97979054648E+03  0.10531712061E+04  0.00000000000E+00 0.  1.
         -4    1    6    6    0  503  0.13848929050E+02  0.14143070249E+02  0.10558651626E+04  0.10560506905E+04  0.00000000000E+00 0. -1.
<mgrwt>
<rscale>  0 0.12927040E+04</rscale>
<asrwt>0</asrwt>
<pdfrwt beam="1">  1        2 0.69102632E+00 0.12927040E+04</pdfrwt>
<pdfrwt beam="2">  1       -2 0.14309251E-01 0.12927040E+04</pdfrwt>
<totfact> 0.49128959E+00</totfact>
</mgrwt>
</event>
<event>
12    1  0.4820219E-008  0.3394099E+04  0.7818608E-02  0.8139356E-01
         -1   -1    0    0    0  501 -0.00000000000E+00  0.00000000000E+00  0.15707227040E+04  0.15707227040E+04  0.00000000000E+00 0.  1.
          1   -1    0    0  501    0  0.00000000000E+00 -0.00000000000E+00 -0.18335365505E+04  0.18335365505E+04  0.00000000000E+00 0. -1.
         23    2    1    2    0    0 -0.12073281732E+04  0.36911394440E+03 -0.10247871272E+04  0.16287095190E+04  0.92841906394E+02 0.  0.
        254    2    1    2    0    0  0.12073281732E+04 -0.36911394440E+03  0.76197328074E+03  0.17755497354E+04  0.98898289198E+03 0.  0.
         23    2    4    4    0    0  0.11694037751E+04 -0.61472109646E+03  0.54144379878E+03  0.14306514167E+04  0.90635938044E+02 0.  0.
         23    2    4    4    0    0  0.37924398081E+02  0.24560715206E+03  0.22052948197E+03  0.34489831869E+03  0.92522779413E+02 0.  0.
         11    1    3    3    0    0 -0.12002968284E+04  0.35846130754E+03 -0.10096753953E+04  0.16089286463E+04  0.00000000000E+00 0. -1.
        -11    1    3    3    0    0 -0.70313448066E+01  0.10652636865E+02 -0.15111731977E+02  0.19780872713E+02  0.00000000000E+00 0.  1.
          2    1    5    5  502    0  0.45489601577E+02 -0.10004698197E+02  0.74347238089E+01  0.47166438871E+02  0.00000000000E+00 0.  1.
          2    1    6    6  503    0 -0.46174846017E+01  0.20329687388E+03  0.18648790447E+03  0.27591425952E+03  0.00000000000E+00 0. -1.
         -2    1    5    5    0  502  0.11239141735E+04 -0.60471639826E+03  0.53400907497E+03  0.13834849778E+04  0.00000000000E+00 0. -1.
         -2    1    6    6    0  503  0.42541882683E+02  0.42310278174E+02  0.34041577502E+02  0.68984059175E+02  0.00000000000E+00 0.  1.
<mgrwt>
<rscale>  0 0.33940993E+04</rscale>
<asrwt>0</asrwt>
<pdfrwt beam="1">  1        1 0.28208254E+00 0.33940993E+04</pdfrwt>
<pdfrwt beam="2">  1       -1 0.24164965E+00 0.33940993E+04</pdfrwt>
<totfact> 0.25162208E-01</totfact>
</mgrwt>
</event>
<event>
12    1  0.4820219E-008  0.1571943E+04  0.7818608E-02  0.8837972E-01
         -2   -1    0    0    0  501 -0.00000000000E+00  0.00000000000E+00  0.45092930175E+03  0.45092930175E+03  0.00000000000E+00 0.  1.
          2   -1    0    0  501    0  0.00000000000E+00 -0.00000000000E+00 -0.13699515270E+04  0.13699515270E+04  0.00000000000E+00 0. -1.
         23    2    1    2    0    0 -0.22185145404E+03 -0.41322288608E+03 -0.59753410589E+03  0.76490835402E+03  0.89814036274E+02 0.  0.
        254    2    1    2    0    0  0.22185145404E+03  0.41322288608E+03 -0.32148811934E+03  0.10559724747E+04  0.88980449270E+03 0.  0.
         23    2    4    4    0    0 -0.10331352183E+02 -0.24598708991E+03  0.42658961626E+02  0.26290253957E+03  0.81740889787E+02 0.  0.
         23    2    4    4    0    0  0.23218280622E+03  0.65920997599E+03 -0.36414708096E+03  0.79306993514E+03  0.88826671146E+02 0.  0.
         13    1    3    3    0    0 -0.11784302455E+03 -0.24070815808E+03 -0.40909861267E+03  0.48906959698E+03  0.00000000000E+00 0. -1.
        -13    1    3    3    0    0 -0.10400842949E+03 -0.17251472800E+03 -0.18843549322E+03  0.27583875704E+03  0.00000000000E+00 0.  1.
          1    1    6    6  502    0  0.62231057420E+01  0.11612026225E+03 -0.58018378746E+02  0.12995681830E+03  0.00000000000E+00 0. -1.
          1    1    5    5  503    0  0.31705165510E+02 -0.12112542032E+03  0.38867090042E+02  0.13110009785E+03  0.00000000000E+00 0. -1.
         -1    1    5    5    0  503 -0.42036517693E+02 -0.12486166959E+03  0.37918715846E+01  0.13180244172E+03  0.00000000000E+00 0.  1.
         -1    1    6    6    0  502  0.22595970048E+03  0.54308971373E+03 -0.30612870222E+03  0.66311311684E+03  0.00000000000E+00 0.  1.
<mgrwt>
<rscale>  0 0.15719431E+04</rscale>
<asrwt>0</asrwt>
<pdfrwt beam="1">  1        2 0.21076177E+00 0.15719431E+04</pdfrwt>
<pdfrwt beam="2">  1       -2 0.69373739E-01 0.15719431E+04</pdfrwt>
<totfact> 0.27431103E+01</totfact>
</mgrwt>
</event>
<event>
12    1  0.4820219E-008  0.1675723E+04  0.7818608E-02  0.8775333E-01
          1   -1    0    0  501    0  0.00000000000E+00  0.00000000000E+00  0.40208362975E+04  0.40208362975E+04  0.00000000000E+00 0. -1.
         -1   -1    0    0    0  501 -0.00000000000E+00 -0.00000000000E+00 -0.17459345054E+03  0.17459345054E+03  0.00000000000E+00 0.  1.
         23    2    1    2    0    0 -0.23792757165E+03  0.27886610572E+03  0.25444151375E+04  0.25724643125E+04  0.95647335345E+02 0.  0.
        254    2    1    2    0    0  0.23792757165E+03 -0.27886610572E+03  0.13018277095E+04  0.16229654355E+04  0.89715415934E+03 0.  0.
         23    2    4    4    0    0  0.39889296192E+03 -0.36731098741E+03  0.13073499150E+04  0.14182691830E+04  0.91053383857E+02 0.  0.
         23    2    4    4    0    0 -0.16096539027E+03  0.88444881685E+02 -0.55222055698E+01  0.20469625251E+03  0.90209240513E+02 0.  0.
         11    1    3    3    0    0 -0.18241122401E+03  0.21087315054E+03  0.21731325517E+04  0.21909464684E+04  0.00000000000E+00 0. -1.
        -11    1    3    3    0    0 -0.55516347634E+02  0.67992955181E+02  0.37128258583E+03  0.38151784408E+03  0.00000000000E+00 0.  1.
          2    1    5    5  502    0  0.32391845514E+03 -0.33110824056E+03  0.10458401562E+04  0.11438258018E+04  0.00000000000E+00 0.  1.
          3    1    6    6  503    0 -0.82605702835E+01  0.10362641145E+02  0.27049172556E+02  0.30121073833E+02  0.00000000000E+00 0. -1.
         -2    1    5    5    0  502  0.74974506777E+02 -0.36202746841E+02  0.26150975879E+03  0.27444338121E+03  0.00000000000E+00 0. -1.
         -3    1    6    6    0  503 -0.15270481999E+03  0.78082240540E+02 -0.32571378126E+02  0.17457517867E+03  0.00000000000E+00 0.  1.
<mgrwt>
<rscale>  0 0.16757227E+04</rscale>
<asrwt>0</asrwt>
<pdfrwt beam="1">  1        1 0.61859013E+00 0.16757227E+04</pdfrwt>
<pdfrwt beam="2">  1       -1 0.26860534E-01 0.16757227E+04</pdfrwt>
<totfact> 0.11014183E+00</totfact>
</mgrwt>
</event>
<event>
12    1  0.4820219E-008  0.1879526E+04  0.7818608E-02  0.8665115E-01
         -2   -1    0    0    0  501 -0.00000000000E+00  0.00000000000E+00  0.68729242297E+03  0.68729242297E+03  0.00000000000E+00 0.  1.
          2   -1    0    0  501    0  0.00000000000E+00 -0.00000000000E+00 -0.12849756868E+04  0.12849756868E+04  0.00000000000E+00 0. -1.
         23    2    1    2    0    0  0.65382800091E+03  0.28990705359E+03 -0.57875901851E+02  0.72332766257E+03  0.91192833739E+02 0.  0.
        254    2    1    2    0    0 -0.65382800091E+03 -0.28990705359E+03 -0.53980736194E+03  0.12489404472E+04  0.87001327463E+03 0.  0.
         23    2    4    4    0    0  0.16402129790E+03 -0.20612477420E+03 -0.24903295791E+03  0.37183287803E+03  0.82776001084E+02 0.  0.
         23    2    4    4    0    0 -0.81784929881E+03 -0.83782279393E+02 -0.29077440403E+03  0.87710756912E+03  0.94185921825E+02 0.  0.
         13    1    3    3    0    0  0.45456410349E+03  0.16149576231E+03 -0.61071667756E+02  0.48625009411E+03  0.00000000000E+00 0. -1.
        -13    1    3    3    0    0  0.19926389742E+03  0.12841129128E+03  0.31957659059E+01  0.23707756845E+03  0.00000000000E+00 0.  1.
          2    1    5    5  502    0  0.36927182420E+02 -0.38386961809E+01 -0.36890989534E+02  0.52338298583E+02  0.00000000000E+00 0. -1.
          1    1    6    6  503    0 -0.18983402465E+03 -0.17035340544E+02 -0.26254590858E+02  0.19239663012E+03  0.00000000000E+00 0. -1.
         -2    1    5    5    0  502  0.12709411548E+03 -0.20228607801E+03 -0.21214196837E+03  0.31949457944E+03  0.00000000000E+00 0.  1.
         -1    1    6    6    0  503 -0.62801527416E+03 -0.66746938849E+02 -0.26451981317E+03  0.68471093900E+03  0.00000000000E+00 0.  1.
<mgrwt>
<rscale>  0 0.18795255E+04</rscale>
<asrwt>0</asrwt>
<pdfrwt beam="1">  1        2 0.19768857E+00 0.18795255E+04</pdfrwt>
<pdfrwt beam="2">  1       -2 0.10573730E+00 0.18795255E+04</pdfrwt>
<totfact> 0.11440652E+01</totfact>
</mgrwt>
</event>
<event>
12    1  0.4820219E-008  0.1736213E+04  0.7818608E-02  0.8740976E-01
         -2   -1    0    0    0  501 -0.00000000000E+00  0.00000000000E+00  0.60122404734E+03  0.60122404734E+03  0.00000000000E+00 0.  1.
          2   -1    0    0  501    0  0.00000000000E+00 -0.00000000000E+00 -0.12534579543E+04  0.12534579543E+04  0.00000000000E+00 0. -1.
         23    2    1    2    0    0 -0.34579145537E+03  0.44966888287E+03 -0.54208595580E+03  0.78996473637E+03  0.91723859450E+02 0.  0.
        254    2    1    2    0    0  0.34579145537E+03 -0.44966888287E+03 -0.11014795119E+03  0.10647172653E+04  0.89426866716E+03 0.  0.
         23    2    4    4    0    0  0.44594333019E+03 -0.34196667241E+03  0.28266183153E+03  0.63585338812E+03  0.92764009145E+02 0.  0.
         23    2    4    4    0    0 -0.10015187482E+03 -0.10770221045E+03 -0.39280978272E+03  0.42886387719E+03  0.89412166935E+02 0.  0.
         13    1    3    3    0    0 -0.27882537044E+03  0.35272596408E+03 -0.47639495203E+03  0.65506590756E+03  0.00000000000E+00 0. -1.
        -13    1    3    3    0    0 -0.66966084933E+02  0.96942918791E+02 -0.65691003777E+02  0.13489882880E+03  0.00000000000E+00 0.  1.
          1    1    6    6  502    0 -0.11689983391E+03 -0.98187183006E+02 -0.35486105141E+03  0.38630643262E+03  0.00000000000E+00 0. -1.
          1    1    5    5  503    0  0.39830571618E+03 -0.33687296724E+03  0.25918717358E+03  0.58250221506E+03  0.00000000000E+00 0. -1.
         -1    1    5    5    0  503  0.47637614013E+02 -0.50937051766E+01  0.23474657943E+02  0.53351173060E+02  0.00000000000E+00 0.  1.
         -1    1    6    6    0  502  0.16747959088E+02 -0.95150274486E+01 -0.37948731309E+02  0.42557444577E+02  0.00000000000E+00 0.  1.
<mgrwt>
<rscale>  0 0.17362132E+04</rscale>
<asrwt>0</asrwt>
<pdfrwt beam="1">  1        2 0.19283969E+00 0.17362132E+04</pdfrwt>
<pdfrwt beam="2">  1       -2 0.92496007E-01 0.17362132E+04</pdfrwt>
<totfact> 0.16571478E+01</totfact>
</mgrwt>
</event>
<event>
12    1  0.4820219E-008  0.2005340E+04  0.7818608E-02  0.8604128E-01
         -2   -1    0    0    0  501 -0.00000000000E+00  0.00000000000E+00  0.30254622069E+04  0.30254622069E+04  0.00000000000E+00 0.  1.
          2   -1    0    0  501    0  0.00000000000E+00 -0.00000000000E+00 -0.33229545579E+03  0.33229545579E+03  0.00000000000E+00 0. -1.
         23    2    1    2    0    0  0.51175733181E+03 -0.60021929505E+03  0.80215909431E+03  0.11284078458E+04  0.87671461364E+02 0.  0.
        254    2    1    2    0    0 -0.51175733181E+03  0.60021929505E+03  0.18910076568E+04  0.22293498169E+04  0.87859653941E+03 0.  0.
         23    2    4    4    0    0 -0.71472606145E+02 -0.11694815783E+03  0.94884011851E+03  0.96269401988E+03  0.87732550277E+02 0.  0.
         23    2    4    4    0    0 -0.44028472567E+03  0.71716745288E+03  0.94216753828E+03  0.12666557970E+04  0.92506446693E+02 0.  0.
         11    1    3    3    0    0  0.20773890195E+03 -0.22248619175E+03  0.36783264626E+03  0.47744781134E+03  0.00000000000E+00 0.  1.
        -11    1    3    3    0    0  0.30401842986E+03 -0.37773310331E+03  0.43432644805E+03  0.65096003449E+03  0.00000000000E+00 0. -1.
          3    1    5    5  502    0  0.65394758703E+01 -0.72749869575E+02  0.41712843301E+03  0.42347542773E+03  0.00000000000E+00 0. -1.
          3    1    6    6  503    0 -0.38073799801E+03  0.61285595928E+03  0.85210753761E+03  0.11165308350E+04  0.00000000000E+00 0. -1.
         -3    1    5    5    0  502 -0.78012082015E+02 -0.44198288257E+02  0.53171168550E+03  0.53921859215E+03  0.00000000000E+00 0.  1.
         -3    1    6    6    0  503 -0.59546727654E+02  0.10431149360E+03  0.90060000666E+02  0.15012496192E+03  0.00000000000E+00 0.  1.
<mgrwt>
<rscale>  0 0.20053402E+04</rscale>
<asrwt>0</asrwt>
<pdfrwt beam="1">  1        2 0.51122380E-01 0.20053402E+04</pdfrwt>
<pdfrwt beam="2">  1       -2 0.46545571E+00 0.20053402E+04</pdfrwt>
<totfact> 0.24985468E-01</totfact>
</mgrwt>
</event>
<event>
12    1  0.4820219E-008  0.1939056E+04  0.7818608E-02  0.8635656E-01
         -2   -1    0    0    0  501 -0.00000000000E+00  0.00000000000E+00  0.51865508061E+03  0.51865508061E+03  0.00000000000E+00 0.  1.
          2   -1    0    0  501    0  0.00000000000E+00 -0.00000000000E+00 -0.18123503397E+04  0.18123503397E+04  0.00000000000E+00 0. -1.
         23    2    1    2    0    0 -0.64483093372E+03 -0.37005152645E+03 -0.34396669654E+03  0.82384199828E+03  0.87507053968E+02 0.  0.
        254    2    1    2    0    0  0.64483093372E+03  0.37005152645E+03 -0.94972856252E+03  0.15071634220E+04  0.90377661665E+03 0.  0.
         23    2    4    4    0    0  0.55084365885E+03  0.15196664881E+03 -0.10777483098E+04  0.12233076203E+04  0.91747021019E+02 0.  0.
         23    2    4    4    0    0  0.93987274867E+02  0.21808487764E+03  0.12801974726E+03  0.28385580166E+03  0.88263462162E+02 0.  0.
         13    1    3    3    0    0 -0.91741559405E+02 -0.45626312283E+02 -0.16281059792E+02  0.10374655176E+03  0.00000000000E+00 0. -1.
        -13    1    3    3    0    0 -0.55308937431E+03 -0.32442521417E+03 -0.32768563674E+03  0.72009544652E+03  0.00000000000E+00 0.  1.
          4    1    5    5  502    0  0.45196125278E+03  0.86684194043E+02 -0.85036269340E+03  0.96690218422E+03  0.00000000000E+00 0. -1.
          1    1    6    6  503    0  0.97751016770E+02  0.20205096327E+03  0.13904825196E+03  0.26403459889E+03  0.00000000000E+00 0. -1.
         -4    1    5    5    0  502  0.98882406070E+02  0.65282454769E+02 -0.22738561638E+03  0.25640543611E+03  0.00000000000E+00 0.  1.
         -1    1    6    6    0  503 -0.37637419034E+01  0.16033914375E+02 -0.11028504700E+02  0.19821202769E+02  0.00000000000E+00 0.  1.
<mgrwt>
<rscale>  0 0.19390562E+04</rscale>
<asrwt>0</asrwt>
<pdfrwt beam="1">  1        2 0.27882313E+00 0.19390562E+04</pdfrwt>
<pdfrwt beam="2">  1       -2 0.79793088E-01 0.19390562E+04</pdfrwt>
<totfact> 0.11024747E+01</totfact>
</mgrwt>
</event>
<event>
12    1  0.4820219E-008  0.1602020E+04  0.7818608E-02  0.8819308E-01
         -2   -1    0    0    0  501 -0.00000000000E+00  0.00000000000E+00  0.61908056247E+03  0.61908056247E+03  0.00000000000E+00 0.  1.
          2   -1    0    0  501    0  0.00000000000E+00 -0.00000000000E+00 -0.10364029825E+04  0.10364029825E+04  0.00000000000E+00 0. -1.
         23    2    1    2    0    0 -0.43840977285E+03  0.31815515359E+02  0.21004915330E+03  0.49556637260E+03  0.90829658704E+02 0.  0.
        254    2    1    2    0    0  0.43840977285E+03 -0.31815515359E+02 -0.62737157337E+03  0.11599171724E+04  0.87097497083E+03 0.  0.
         23    2    4    4    0    0  0.57546897097E+03  0.47599566425E+02 -0.88006491837E+02  0.59045712468E+03  0.86395707088E+02 0.  0.
         23    2    4    4    0    0 -0.13705919812E+03 -0.79415081784E+02 -0.53936508153E+03  0.56946004772E+03  0.90983931413E+02 0.  0.
         11    1    3    3    0    0 -0.27194463323E+03  0.25386083369E+02  0.17775437781E+03  0.32587567507E+03  0.00000000000E+00 0. -1.
        -11    1    3    3    0    0 -0.16646513962E+03  0.64294319902E+01  0.32294775496E+02  0.16969069753E+03  0.00000000000E+00 0.  1.
          2    1    5    5  502    0  0.33898124016E+02  0.23413583060E+02 -0.12887342202E+02  0.43166680120E+02  0.00000000000E+00 0. -1.
          1    1    6    6  503    0  0.71326869491E-01 -0.23840857986E+02 -0.26356235693E+02  0.35539312837E+02  0.00000000000E+00 0. -1.
         -2    1    5    5    0  502  0.54157084696E+03  0.24185983365E+02 -0.75119149635E+02  0.54729044456E+03  0.00000000000E+00 0.  1.
         -1    1    6    6    0  503 -0.13713052499E+03 -0.55574223799E+02 -0.51300884584E+03  0.53392073489E+03  0.00000000000E+00 0.  1.
<mgrwt>
<rscale>  0 0.16020199E+04</rscale>
<asrwt>0</asrwt>
<pdfrwt beam="1">  1        2 0.15944661E+00 0.16020199E+04</pdfrwt>
<pdfrwt beam="2">  1       -2 0.95243164E-01 0.16020199E+04</pdfrwt>
<totfact> 0.21212495E+01</totfact>
</mgrwt>
</event>
<event>
12    1  0.4820219E-008  0.1681545E+04  0.7818608E-02  0.8771961E-01
         -2   -1    0    0    0  501 -0.00000000000E+00  0.00000000000E+00  0.90894404506E+03  0.90894404506E+03  0.00000000000E+00 0.  1.
          2   -1    0    0  501    0  0.00000000000E+00 -0.00000000000E+00 -0.77771342529E+03  0.77771342529E+03  0.00000000000E+00 0. -1.
         23    2    1    2    0    0  0.16809809195E+03  0.39912487480E+03  0.45740111077E+03  0.63635770994E+03  0.90430772789E+02 0.  0.
        254    2    1    2    0    0 -0.16809809195E+03 -0.39912487480E+03 -0.32617049099E+03  0.10502997604E+04  0.89954697672E+03 0.  0.
         23    2    4    4    0    0 -0.73182790194E+02  0.28152247820E+03 -0.95213488663E+02  0.31956511002E+03  0.91900079458E+02 0.  0.
         23    2    4    4    0    0 -0.94915301753E+02 -0.68064735300E+03 -0.23095700233E+03  0.73073465040E+03  0.91335966165E+02 0.  0.
         13    1    3    3    0    0  0.13356422159E+03  0.37619053837E+03  0.39617729677E+03  0.56241903677E+03  0.00000000000E+00 0. -1.
        -13    1    3    3    0    0  0.34533870355E+02  0.22934336430E+02  0.61223813997E+02  0.73938673166E+02  0.00000000000E+00 0.  1.
          2    1    5    5  502    0 -0.92199575983E+02  0.19603925252E+03 -0.78429983972E+02  0.23039837831E+03  0.00000000000E+00 0.  1.
          3    1    6    6  503    0  0.34105807922E+01 -0.47805380706E+02  0.50629026684E+01  0.48193562528E+02  0.00000000000E+00 0. -1.
         -2    1    5    5    0  502  0.19016785790E+02  0.85483225674E+02 -0.16783504690E+02  0.89166731705E+02  0.00000000000E+00 0. -1.
         -3    1    6    6    0  503 -0.98325882546E+02 -0.63284197230E+03 -0.23601990500E+03  0.68254108787E+03  0.00000000000E+00 0.  1.
<mgrwt>
<rscale>  0 0.16815445E+04</rscale>
<asrwt>0</asrwt>
<pdfrwt beam="1">  1        2 0.11964822E+00 0.16815445E+04</pdfrwt>
<pdfrwt beam="2">  1       -2 0.13983755E+00 0.16815445E+04</pdfrwt>
<totfact> 0.12272136E+01</totfact>
</mgrwt>
</event>
<event>
12    1  0.4820219E-008  0.1564069E+04  0.7818608E-02  0.8842931E-01
          2   -1    0    0  501    0  0.00000000000E+00  0.00000000000E+00  0.99010855469E+03  0.99010855469E+03  0.00000000000E+00 0. -1.
         -2   -1    0    0    0  501 -0.00000000000E+00 -0.00000000000E+00 -0.61768810376E+03  0.61768810376E+03  0.00000000000E+00 0.  1.
         23    2    1    2    0    0 -0.18376983059E+03  0.29697780406E+03  0.50870792356E+03  0.62374204357E+03  0.91121998910E+02 0.  0.
        254    2    1    2    0    0  0.18376983059E+03 -0.29697780406E+03 -0.13628747263E+03  0.98405461488E+03  0.90984726363E+03 0.  0.
         23    2    4    4    0    0 -0.21172879495E+03  0.18658680982E+03  0.95532799774E+02  0.31143368718E+03  0.90668106126E+02 0.  0.
         23    2    4    4    0    0  0.39549862554E+03 -0.48356461389E+03 -0.23182027240E+03  0.67262092770E+03  0.91784394517E+02 0.  0.
         13    1    3    3    0    0 -0.15036573745E+02  0.88731777360E+00  0.55876447690E+01  0.16065729267E+02  0.00000000000E+00 0.  1.
        -13    1    3    3    0    0 -0.16873325685E+03  0.29609048629E+03  0.50312027879E+03  0.60767631430E+03  0.00000000000E+00 0. -1.
          2    1    5    5  502    0 -0.20633468381E+03  0.18086431679E+03  0.10948341091E+03  0.29541922770E+03  0.00000000000E+00 0. -1.
          1    1    6    6  503    0  0.31107197450E+03 -0.36776221882E+03 -0.13700770589E+03  0.50078531766E+03  0.00000000000E+00 0. -1.
         -2    1    5    5    0  502 -0.53941111325E+01  0.57224930333E+01 -0.13950611132E+02  0.16014459478E+02  0.00000000000E+00 0.  1.
         -1    1    6    6    0  503  0.84426651040E+02 -0.11580239507E+03 -0.94812566517E+02  0.17183561004E+03  0.00000000000E+00 0.  1.
<mgrwt>
<rscale>  0 0.15640694E+04</rscale>
<asrwt>0</asrwt>
<pdfrwt beam="1">  1        2 0.15232439E+00 0.15640694E+04</pdfrwt>
<pdfrwt beam="2">  1       -2 0.95028939E-01 0.15640694E+04</pdfrwt>
<totfact> 0.22896072E+01</totfact>
</mgrwt>
</event>
<event>
12    1  0.4820219E-008  0.1675326E+04  0.7818608E-02  0.8775564E-01
          1   -1    0    0  501    0  0.00000000000E+00  0.00000000000E+00  0.14103617666E+04  0.14103617666E+04  0.00000000000E+00 0. -1.
         -1   -1    0    0    0  501 -0.00000000000E+00 -0.00000000000E+00 -0.49751698039E+03  0.49751698039E+03  0.00000000000E+00 0.  1.
         23    2    1    2    0    0  0.28954590614E+03 -0.76644365713E+02  0.90081234915E+03  0.95357591418E+03  0.90182842925E+02 0.  0.
        254    2    1    2    0    0 -0.28954590614E+03  0.76644365713E+02  0.12032437015E+02  0.95430283276E+03  0.90600106320E+03 0.  0.
         23    2    4    4    0    0 -0.72748713859E+02  0.16172370102E+03  0.42622476191E+03  0.47040910593E+03  0.90389426566E+02 0.  0.
         23    2    4    4    0    0 -0.21679719228E+03 -0.85079335303E+02 -0.41419232490E+03  0.48389372683E+03  0.91423962872E+02 0.  0.
         13    1    3    3    0    0  0.11675813987E+03 -0.42304333556E+02  0.24722445520E+03  0.27666234133E+03  0.00000000000E+00 0. -1.
        -13    1    3    3    0    0  0.17278776628E+03 -0.34340032157E+02  0.65358789395E+03  0.67691357285E+03  0.00000000000E+00 0.  1.
          1    1    5    5  502    0 -0.35545632760E+02  0.10649077480E+02  0.42955984668E+02  0.56763645745E+02  0.00000000000E+00 0. -1.
          1    1    6    6  503    0  0.88606364488E+00  0.34843392840E+01 -0.52088791897E+02  0.52212718473E+02  0.00000000000E+00 0. -1.
         -1    1    5    5    0  502 -0.37203081099E+02  0.15107462354E+03  0.38326877724E+03  0.41364546018E+03  0.00000000000E+00 0.  1.
         -1    1    6    6    0  503 -0.21768325593E+03 -0.88563674587E+02 -0.36210353300E+03  0.43168100836E+03  0.00000000000E+00 0.  1.
<mgrwt>
<rscale>  0 0.16753256E+04</rscale>
<asrwt>0</asrwt>
<pdfrwt beam="1">  1        1 0.21697873E+00 0.16753256E+04</pdfrwt>
<pdfrwt beam="2">  1       -1 0.76541074E-01 0.16753256E+04</pdfrwt>
<totfact> 0.12341767E+01</totfact>
</mgrwt>
</event>
<event>
12    1  0.4820219E-008  0.2932369E+04  0.7818608E-02  0.8263311E-01
          2   -1    0    0  501    0  0.00000000000E+00  0.00000000000E+00  0.17931753814E+04  0.17931753814E+04  0.00000000000E+00 0. -1.
         -2   -1    0    0    0  501 -0.00000000000E+00 -0.00000000000E+00 -0.11988212884E+04  0.11988212884E+04  0.00000000000E+00 0.  1.
         23    2    1    2    0    0 -0.75094619854E+02 -0.65721191668E+02  0.15962890580E+04  0.16026691471E+04  0.10223092210E+03 0.  0.
        254    2    1    2    0    0  0.75094619854E+02  0.65721191668E+02 -0.10019349650E+04  0.13893275227E+04  0.95728721621E+03 0.  0.
         23    2    4    4    0    0  0.42355390109E+03  0.25512313068E+03 -0.77368471062E+03  0.92266958442E+03  0.90804248997E+02 0.  0.
         23    2    4    4    0    0 -0.34845928124E+03 -0.18940193901E+03 -0.22825025433E+03  0.46665793826E+03  0.91512226267E+02 0.  0.
         13    1    3    3    0    0 -0.66411268691E+02 -0.34733893332E+02  0.14831500515E+04  0.14850424153E+04  0.00000000000E+00 0. -1.
        -13    1    3    3    0    0 -0.86833511636E+01 -0.30987298335E+02  0.11313900650E+03  0.11762673182E+03  0.00000000000E+00 0.  1.
          3    1    6    6  502    0 -0.66422593125E+01 -0.89100522543E+01  0.79465413397E+01  0.13662216482E+02  0.00000000000E+00 0. -1.
          3    1    5    5  503    0  0.21415016081E+02  0.21437291440E+02 -0.96490381438E+02  0.10113631439E+03  0.00000000000E+00 0. -1.
         -3    1    5    5    0  503  0.40213888501E+03  0.23368583924E+03 -0.67719432918E+03  0.82153327003E+03  0.00000000000E+00 0.  1.
         -3    1    6    6    0  502 -0.34181702192E+03 -0.18049188676E+03 -0.23619679567E+03  0.45299572178E+03  0.00000000000E+00 0.  1.
<mgrwt>
<rscale>  0 0.29323689E+04</rscale>
<asrwt>0</asrwt>
<pdfrwt beam="1">  1        2 0.27587314E+00 0.29323689E+04</pdfrwt>
<pdfrwt beam="2">  1       -2 0.18443404E+00 0.29323689E+04</pdfrwt>
<totfact> 0.12667604E+00</totfact>
</mgrwt>
</event>
<event>
12    1  0.4820219E-008  0.1176605E+04  0.7818608E-02  0.9133584E-01
         -1   -1    0    0    0  501 -0.00000000000E+00  0.00000000000E+00  0.16908043647E+03  0.16908043647E+03  0.00000000000E+00 0.  1.
          1   -1    0    0  501    0  0.00000000000E+00 -0.00000000000E+00 -0.20469537910E+04  0.20469537910E+04  0.00000000000E+00 0. -1.
         23    2    1    2    0    0 -0.41944817868E+02 -0.85955939858E+02 -0.79873944412E+03  0.80961200661E+03  0.91318729243E+02 0.  0.
        254    2    1    2    0    0  0.41944817868E+02  0.85955939858E+02 -0.10791339104E+04  0.14064222208E+04  0.89685320726E+03 0.  0.
         23    2    4    4    0    0  0.13524070658E+03 -0.37146635932E+03 -0.64496267066E+03  0.76263035928E+03  0.96700121677E+02 0.  0.
         23    2    4    4    0    0 -0.93295888715E+02  0.45742229917E+03 -0.43417123970E+03  0.64379186154E+03  0.89576855083E+02 0.  0.
         13    1    3    3    0    0 -0.26208889415E+02 -0.36013858357E+02 -0.65702732224E+03  0.65853534912E+03  0.00000000000E+00 0. -1.
        -13    1    3    3    0    0 -0.15735928453E+02 -0.49942081501E+02 -0.14171212188E+03  0.15107665749E+03  0.00000000000E+00 0.  1.
          2    1    5    5  502    0  0.11988544748E+03 -0.37190599261E+03 -0.62888451186E+03  0.74039335297E+03  0.00000000000E+00 0. -1.
          3    1    6    6  503    0 -0.10623403734E+03  0.33324953609E+03 -0.33544510015E+03  0.48462804212E+03  0.00000000000E+00 0. -1.
         -2    1    5    5    0  502  0.15355259102E+02  0.43963329332E+00 -0.16078158795E+02  0.22237006313E+02  0.00000000000E+00 0.  1.
         -3    1    6    6    0  503  0.12938148622E+02  0.12417276308E+03 -0.98726139556E+02  0.15916381942E+03  0.00000000000E+00 0.  1.
<mgrwt>
<rscale>  0 0.11766050E+04</rscale>
<asrwt>0</asrwt>
<pdfrwt beam="1">  1        1 0.31491599E+00 0.11766050E+04</pdfrwt>
<pdfrwt beam="2">  1       -1 0.26012373E-01 0.11766050E+04</pdfrwt>
<totfact> 0.35998218E+01</totfact>
</mgrwt>
</event>
<event>
12    1  0.4820219E-008  0.1171482E+04  0.7818608E-02  0.9138191E-01
         -1   -1    0    0    0  501 -0.00000000000E+00  0.00000000000E+00  0.60196603723E+03  0.60196603723E+03  0.00000000000E+00 0.  1.
          1   -1    0    0  501    0  0.00000000000E+00 -0.00000000000E+00 -0.56995329116E+03  0.56995329116E+03  0.00000000000E+00 0. -1.
         23    2    1    2    0    0  0.12502922795E+03 -0.62471365698E+02  0.18688327685E+03  0.25104973233E+03  0.92550686444E+02 0.  0.
        254    2    1    2    0    0 -0.12502922795E+03  0.62471365698E+02 -0.15487053078E+03  0.92086959606E+03  0.89692862161E+03 0.  0.
         23    2    4    4    0    0  0.51189090910E+02  0.29319820044E+03  0.26033517297E+03  0.40610456233E+03  0.92525701775E+02 0.  0.
         23    2    4    4    0    0 -0.17621831886E+03 -0.23072683474E+03 -0.41520570374E+03  0.51476503373E+03  0.91101566184E+02 0.  0.
         13    1    3    3    0    0  0.22974298040E+02  0.24405398681E+02  0.34168289144E+02  0.47863491705E+02  0.00000000000E+00 0. -1.
        -13    1    3    3    0    0  0.10205492991E+03 -0.86876764379E+02  0.15271498771E+03  0.20318624062E+03  0.00000000000E+00 0.  1.
          4    1    5    5  502    0  0.51877589535E+02  0.28137443986E+03  0.21136326193E+03  0.35572080090E+03  0.00000000000E+00 0. -1.
          1    1    6    6  503    0 -0.16080113804E+03 -0.20458446939E+03 -0.30730013548E+03  0.40267255230E+03  0.00000000000E+00 0. -1.
         -4    1    5    5    0  502 -0.68849862494E+00  0.11823760582E+02  0.48971911035E+02  0.50383761422E+02  0.00000000000E+00 0.  1.
         -1    1    6    6    0  503 -0.15417180817E+02 -0.26142365347E+02 -0.10790556827E+03  0.11209248143E+03  0.00000000000E+00 0.  1.
<mgrwt>
<rscale>  0 0.11714820E+04</rscale>
<asrwt>0</asrwt>
<pdfrwt beam="1">  1        1 0.87685122E-01 0.11714820E+04</pdfrwt>
<pdfrwt beam="2">  1       -1 0.92610159E-01 0.11714820E+04</pdfrwt>
<totfact> 0.41479854E+01</totfact>
</mgrwt>
</event>
<event>
12    1  0.4820219E-008  0.2984749E+04  0.7818608E-02  0.8248099E-01
         -2   -1    0    0    0  501 -0.00000000000E+00  0.00000000000E+00  0.94680336786E+03  0.94680336786E+03  0.00000000000E+00 0.  1.
          2   -1    0    0  501    0  0.00000000000E+00 -0.00000000000E+00 -0.23523163180E+04  0.23523163180E+04  0.00000000000E+00 0. -1.
         23    2    1    2    0    0  0.12336213733E+04  0.44310366084E+03 -0.96298200920E+03  0.16290814879E+04  0.91703856313E+02 0.  0.
        254    2    1    2    0    0 -0.12336213733E+04 -0.44310366084E+03 -0.44253094089E+03  0.16700381979E+04  0.93543113152E+03 0.  0.
         23    2    4    4    0    0 -0.54286703468E+03 -0.34554381425E+03 -0.66695598204E+03  0.93126642938E+03  0.91223547431E+02 0.  0.
         23    2    4    4    0    0 -0.69075433865E+03 -0.97559846589E+02  0.22442504115E+03  0.73877176852E+03  0.93582299836E+02 0.  0.
         11    1    3    3    0    0  0.86777483978E+03  0.28780353732E+03 -0.71474046192E+03  0.11604817864E+04  0.00000000000E+00 0. -1.
        -11    1    3    3    0    0  0.36584653355E+03  0.15530012351E+03 -0.24824154728E+03  0.46859970153E+03  0.00000000000E+00 0.  1.
          1    1    6    6  502    0 -0.43561987833E+03 -0.92224835516E+02  0.10748970878E+03  0.45806564615E+03  0.00000000000E+00 0. -1.
          1    1    5    5  503    0 -0.37309786544E+03 -0.21611404594E+03 -0.50014753048E+03  0.66034449365E+03  0.00000000000E+00 0. -1.
         -1    1    5    5    0  503 -0.16976916924E+03 -0.12942976831E+03 -0.16680845156E+03  0.27092193573E+03  0.00000000000E+00 0.  1.
         -1    1    6    6    0  502 -0.25513446031E+03 -0.53350110732E+01  0.11693533237E+03  0.28070612238E+03  0.00000000000E+00 0.  1.
<mgrwt>
<rscale>  0 0.29847486E+04</rscale>
<asrwt>0</asrwt>
<pdfrwt beam="1">  1        2 0.36189481E+00 0.29847486E+04</pdfrwt>
<pdfrwt beam="2">  1       -2 0.14566206E+00 0.29847486E+04</pdfrwt>
<totfact> 0.11745937E+00</totfact>
</mgrwt>
</event>
<event>
12    1  0.4820219E-008  0.1370045E+04  0.7818608E-02  0.8975791E-01
         -2   -1    0    0    0  501 -0.00000000000E+00  0.00000000000E+00  0.23951334086E+03  0.23951334086E+03  0.00000000000E+00 0.  1.
          2   -1    0    0  501    0  0.00000000000E+00 -0.00000000000E+00 -0.19592056163E+04  0.19592056163E+04  0.00000000000E+00 0. -1.
         23    2    1    2    0    0  0.32729836874E+03 -0.18643641850E+03 -0.40838428737E+03  0.56266125964E+03  0.89034861763E+02 0.  0.
        254    2    1    2    0    0 -0.32729836874E+03  0.18643641850E+03 -0.13113079881E+04  0.16360576975E+04  0.90292490811E+03 0.  0.
         23    2    4    4    0    0 -0.40775537452E+03  0.36103324088E+03 -0.13113169957E+04  0.14228093120E+04  0.90689739580E+02 0.  0.
         23    2    4    4    0    0  0.80457005773E+02 -0.17459682238E+03  0.90076044397E-02  0.21324838546E+03  0.92290268476E+02 0.  0.
         13    1    3    3    0    0  0.17755117867E+03 -0.86251631902E+02 -0.27491143166E+03  0.33843767566E+03  0.00000000000E+00 0. -1.
        -13    1    3    3    0    0  0.14974719008E+03 -0.10018478660E+03 -0.13347285571E+03  0.22422358398E+03  0.00000000000E+00 0.  1.
          2    1    6    6  502    0 -0.24709312368E+01 -0.48641258126E+02 -0.33055604690E+02  0.58862131245E+02  0.00000000000E+00 0.  1.
          2    1    5    5  503    0 -0.70949670297E+02  0.11271386098E+03 -0.34265070552E+03  0.36762450431E+03  0.00000000000E+00 0.  1.
         -2    1    5    5    0  503 -0.33680570422E+03  0.24831937990E+03 -0.96866629013E+03  0.10551848077E+04  0.00000000000E+00 0. -1.
         -2    1    6    6    0  502  0.82927937010E+02 -0.12595556426E+03  0.33064612294E+02  0.15438625421E+03  0.00000000000E+00 0. -1.
<mgrwt>
<rscale>  0 0.13700451E+04</rscale>
<asrwt>0</asrwt>
<pdfrwt beam="1">  1        2 0.30141624E+00 0.13700451E+04</pdfrwt>
<pdfrwt beam="2">  1       -2 0.36848207E-01 0.13700451E+04</pdfrwt>
<totfact> 0.47668504E+01</totfact>
</mgrwt>
</event>
<event>
12    1  0.4820219E-008  0.1413057E+04  0.7818608E-02  0.8944421E-01
         -1   -1    0    0    0  501 -0.00000000000E+00  0.00000000000E+00  0.25347844471E+03  0.25347844471E+03  0.00000000000E+00 0.  1.
          1   -1    0    0  501    0  0.00000000000E+00 -0.00000000000E+00 -0.19693298553E+04  0.19693298553E+04  0.00000000000E+00 0. -1.
         23    2    1    2    0    0  0.15940695854E+03  0.37354921227E+03 -0.44061984458E+03  0.60623253609E+03  0.91773895841E+02 0.  0.
        254    2    1    2    0    0 -0.15940695854E+03 -0.37354921227E+03 -0.12752315660E+04  0.16165757640E+04  0.90672601218E+03 0.  0.
         23    2    4    4    0    0 -0.19580529736E+03 -0.54250891525E+03 -0.12953919381E+04  0.14209774298E+04  0.92092047825E+02 0.  0.
         23    2    4    4    0    0  0.36398338815E+02  0.16895970298E+03  0.20160372046E+02  0.19559833411E+03  0.89331111087E+02 0.  0.
         11    1    3    3    0    0  0.13450173418E+03  0.23437750392E+03 -0.33120013047E+03  0.42745415809E+03  0.00000000000E+00 0. -1.
        -11    1    3    3    0    0  0.24905224360E+02  0.13917170835E+03 -0.10941971411E+03  0.17877837800E+03  0.00000000000E+00 0.  1.
          4    1    5    5  502    0 -0.19606043413E+02 -0.23160360433E+02 -0.34296709338E+02  0.45793705956E+02  0.00000000000E+00 0. -1.
          1    1    6    6  503    0  0.33170263623E+02  0.56719413599E+02 -0.30466363128E+02  0.72426221426E+02  0.00000000000E+00 0. -1.
         -4    1    5    5    0  502 -0.17619925394E+03 -0.51934855481E+03 -0.12610952287E+04  0.13751837239E+04  0.00000000000E+00 0.  1.
         -1    1    6    6    0  503  0.32280751911E+01  0.11224028938E+03  0.50626735174E+02  0.12317211269E+03  0.00000000000E+00 0.  1.
<mgrwt>
<rscale>  0 0.14130572E+04</rscale>
<asrwt>0</asrwt>
<pdfrwt beam="1">  1        1 0.30297383E+00 0.14130572E+04</pdfrwt>
<pdfrwt beam="2">  1       -1 0.38996683E-01 0.14130572E+04</pdfrwt>
<totfact> 0.19445723E+01</totfact>
</mgrwt>
</event>
<event>
12    1  0.4820219E-008  0.1524732E+04  0.7818608E-02  0.8868171E-01
          4   -1    0    0  501    0  0.00000000000E+00  0.00000000000E+00  0.53837062317E+03  0.53837062317E+03  0.00000000000E+00 0. -1.
         -4   -1    0    0    0  501 -0.00000000000E+00 -0.00000000000E+00 -0.10795569165E+04  0.10795569165E+04  0.00000000000E+00 0.  1.
         23    2    1    2    0    0 -0.22308531945E+03 -0.32912721291E+03  0.12139756872E+03  0.42602901046E+03  0.93121243703E+02 0.  0.
        254    2    1    2    0    0  0.22308531945E+03  0.32912721291E+03 -0.66258386205E+03  0.11918985292E+04  0.90747614166E+03 0.  0.
         23    2    4    4    0    0  0.35653512702E+03  0.57474817455E+03 -0.54689775984E+03  0.87453983391E+03  0.90939542756E+02 0.  0.
         23    2    4    4    0    0 -0.13344980757E+03 -0.24562096164E+03 -0.11568610221E+03  0.31735869531E+03  0.95889307572E+02 0.  0.
         13    1    3    3    0    0 -0.14867945433E+03 -0.27891534251E+03  0.74402291870E+02  0.32470763691E+03  0.00000000000E+00 0. -1.
        -13    1    3    3    0    0 -0.74405865114E+02 -0.50211870400E+02  0.46995276846E+02  0.10132137355E+03  0.00000000000E+00 0.  1.
          3    1    5    5  502    0  0.34583420057E+03  0.57465726182E+03 -0.54364475955E+03  0.86335501819E+03  0.00000000000E+00 0. -1.
          3    1    6    6  503    0 -0.56975926393E+02 -0.57876057884E+02 -0.75094477409E+02  0.11061227238E+03  0.00000000000E+00 0. -1.
         -3    1    5    5    0  502  0.10700926442E+02  0.90912728630E-01 -0.32530002936E+01  0.11184815723E+02  0.00000000000E+00 0.  1.
         -3    1    6    6    0  503 -0.76473881178E+02 -0.18774490375E+03 -0.40591624797E+02  0.20674642292E+03  0.00000000000E+00 0.  1.
<mgrwt>
<rscale>  0 0.15247318E+04</rscale>
<asrwt>0</asrwt>
<pdfrwt beam="1">  1        4 0.82826251E-01 0.15247318E+04</pdfrwt>
<pdfrwt beam="2">  1       -4 0.16608568E+00 0.15247318E+04</pdfrwt>
<totfact> 0.55799993E-01</totfact>
</mgrwt>
</event>
<event>
12    1  0.4820219E-008  0.1553769E+04  0.7818608E-02  0.8849464E-01
          2   -1    0    0  501    0  0.00000000000E+00  0.00000000000E+00  0.10839933024E+04  0.10839933024E+04  0.00000000000E+00 0. -1.
         -2   -1    0    0    0  501 -0.00000000000E+00 -0.00000000000E+00 -0.55678377359E+03  0.55678377359E+03  0.00000000000E+00 0.  1.
         23    2    1    2    0    0 -0.46556029890E+03  0.17774425206E+03  0.29561893340E+03  0.58648896808E+03  0.90770836975E+02 0.  0.
        254    2    1    2    0    0  0.46556029890E+03 -0.17774425206E+03  0.23159059539E+03  0.10542881079E+04  0.89974985387E+03 0.  0.
         23    2    4    4    0    0  0.49406562188E+03  0.20010280410E+03  0.35204830534E+03  0.64552784230E+03  0.92877419023E+02 0.  0.
         23    2    4    4    0    0 -0.28505322980E+02 -0.37784705615E+03 -0.12045770995E+03  0.40876026560E+03  0.94836404216E+02 0.  0.
         11    1    3    3    0    0 -0.71643976221E+01 -0.38874014539E+01  0.20040423839E+02  0.21634672889E+02  0.00000000000E+00 0.  1.
        -11    1    3    3    0    0 -0.45839590127E+03  0.18163165351E+03  0.27557850956E+03  0.56485429519E+03  0.00000000000E+00 0. -1.
          1    1    5    5  502    0  0.25873785129E+03  0.63724071917E+02  0.14250563041E+03  0.30218187856E+03  0.00000000000E+00 0. -1.
          3    1    6    6  503    0 -0.41810227596E+02 -0.66254605827E+02 -0.16954574604E+02  0.80157504483E+02  0.00000000000E+00 0. -1.
         -1    1    5    5    0  502  0.23532777059E+03  0.13637873218E+03  0.20954267493E+03  0.34334596374E+03  0.00000000000E+00 0.  1.
         -3    1    6    6    0  503  0.13304904615E+02 -0.31159245033E+03 -0.10350313534E+03  0.32860276112E+03  0.00000000000E+00 0.  1.
<mgrwt>
<rscale>  0 0.15537695E+04</rscale>
<asrwt>0</asrwt>
<pdfrwt beam="1">  1        2 0.16676820E+00 0.15537695E+04</pdfrwt>
<pdfrwt beam="2">  1       -2 0.85659042E-01 0.15537695E+04</pdfrwt>
<totfact> 0.25398166E+01</totfact>
</mgrwt>
</event>
<event>
12    1  0.4820219E-008  0.3031121E+04  0.7818608E-02  0.8234900E-01
          1   -1    0    0  501    0  0.00000000000E+00  0.00000000000E+00  0.19602791574E+04  0.19602791574E+04  0.00000000000E+00 0. -1.
         -1   -1    0    0    0  501 -0.00000000000E+00 -0.00000000000E+00 -0.11717329065E+04  0.11717329065E+04  0.00000000000E+00 0.  1.
         23    2    1    2    0    0 -0.73045106171E+03 -0.68960840694E+03  0.13344801451E+04  0.16728616751E+04  0.92251925102E+02 0.  0.
        254    2    1    2    0    0  0.73045106171E+03  0.68960840694E+03 -0.54593389414E+03  0.14591503889E+04  0.90661873576E+03 0.  0.
         23    2    4    4    0    0 -0.17654718088E+03  0.14226132822E+03  0.41220801198E+02  0.24451193807E+03  0.81729681418E+02 0.  0.
         23    2    4    4    0    0  0.90699824259E+03  0.54734707872E+03 -0.58715469534E+03  0.12146384508E+04  0.91440107190E+02 0.  0.
         11    1    3    3    0    0 -0.57319155946E+03 -0.53121475516E+03  0.97245410546E+03  0.12475594844E+04  0.00000000000E+00 0. -1.
        -11    1    3    3    0    0 -0.15725950225E+03 -0.15839365179E+03  0.36202603966E+03  0.42530219065E+03  0.00000000000E+00 0.  1.
          4    1    5    5  502    0 -0.10728277242E+02  0.28474498888E+02  0.30558119483E+02  0.43124142726E+02  0.00000000000E+00 0. -1.
          3    1    6    6  503    0  0.60367769965E+03  0.35912525832E+03 -0.43774055990E+03  0.82765603604E+03  0.00000000000E+00 0. -1.
         -4    1    5    5    0  502 -0.16581890364E+03  0.11378682934E+03  0.10662681715E+02  0.20138779535E+03  0.00000000000E+00 0.  1.
         -3    1    6    6    0  503  0.30332054294E+03  0.18822182041E+03 -0.14941413544E+03  0.38698241474E+03  0.00000000000E+00 0.  1.
<mgrwt>
<rscale>  0 0.30311210E+04</rscale>
<asrwt>0</asrwt>
<pdfrwt beam="1">  1        1 0.30158141E+00 0.30311210E+04</pdfrwt>
<pdfrwt beam="2">  1       -1 0.18026660E+00 0.30311210E+04</pdfrwt>
<totfact> 0.55765196E-01</totfact>
</mgrwt>
</event>
<event>
12    1  0.4820219E-008  0.2226930E+04  0.7818608E-02  0.8507302E-01
         -1   -1    0    0    0  501 -0.00000000000E+00  0.00000000000E+00  0.42863811786E+03  0.42863811786E+03  0.00000000000E+00 0.  1.
          1   -1    0    0  501    0  0.00000000000E+00 -0.00000000000E+00 -0.28924263158E+04  0.28924263158E+04  0.00000000000E+00 0. -1.
         23    2    1    2    0    0  0.91948106757E+03 -0.21765377974E+02 -0.11844476371E+04  0.15022978411E+04  0.89796619693E+02 0.  0.
        254    2    1    2    0    0 -0.91948106757E+03  0.21765377974E+02 -0.12793405609E+04  0.18187665926E+04  0.90844949367E+03 0.  0.
         23    2    4    4    0    0 -0.35645613700E+02  0.32823229677E+02  0.12156136414E+03  0.15931178652E+03  0.90857613274E+02 0.  0.
         23    2    4    4    0    0 -0.88383545387E+03 -0.11057851703E+02 -0.14009019250E+04  0.16594548061E+04  0.99883254246E+02 0.  0.
         11    1    3    3    0    0  0.78944919180E+03  0.76598559843E+01 -0.10402464991E+04  0.13059102108E+04  0.00000000000E+00 0.  1.
        -11    1    3    3    0    0  0.13003187577E+03 -0.29425233959E+02 -0.14420113800E+03  0.19638763023E+03  0.00000000000E+00 0. -1.
          2    1    5    5  502    0 -0.36569360946E+02  0.58214500106E+02  0.54920369107E+02  0.87991437797E+02  0.00000000000E+00 0. -1.
          3    1    6    6  503    0 -0.71848341120E+03  0.22200723590E+02 -0.11768108743E+04  0.13789833640E+04  0.00000000000E+00 0. -1.
         -2    1    5    5    0  502  0.92374724622E+00 -0.25391270429E+02  0.66640995033E+02  0.71320348723E+02  0.00000000000E+00 0.  1.
         -3    1    6    6    0  503 -0.16535204267E+03 -0.33258575293E+02 -0.22409105074E+03  0.28047144216E+03  0.00000000000E+00 0.  1.
<mgrwt>
<rscale>  0 0.22269299E+04</rscale>
<asrwt>0</asrwt>
<pdfrwt beam="1">  1        1 0.44498867E+00 0.22269299E+04</pdfrwt>
<pdfrwt beam="2">  1       -1 0.65944325E-01 0.22269299E+04</pdfrwt>
<totfact> 0.15175081E+00</totfact>
</mgrwt>
</event>
<event>
12    1  0.4820219E-008  0.2408981E+04  0.7818608E-02  0.8436149E-01
         -2   -1    0    0    0  501 -0.00000000000E+00  0.00000000000E+00  0.22368639740E+04  0.22368639740E+04  0.00000000000E+00 0.  1.
          2   -1    0    0  501    0  0.00000000000E+00 -0.00000000000E+00 -0.64858550800E+03  0.64858550800E+03  0.00000000000E+00 0. -1.
         23    2    1    2    0    0 -0.99465072092E+02  0.48847038325E+03  0.17696429362E+04  0.18408223668E+04  0.92164246959E+02 0.  0.
        254    2    1    2    0    0  0.99465072092E+02 -0.48847038325E+03 -0.18136447019E+03  0.10446271152E+04  0.89992006478E+03 0.  0.
         23    2    4    4    0    0 -0.36620102319E+00 -0.58755116423E+03  0.20056394790E+03  0.62754310468E+03  0.91476479755E+02 0.  0.
         23    2    4    4    0    0  0.99831273115E+02  0.99080780981E+02 -0.38192841810E+03  0.41708401057E+03  0.91139843478E+02 0.  0.
         11    1    3    3    0    0 -0.41595384473E+02  0.29786169498E+03  0.91038684848E+03  0.95877837858E+03  0.00000000000E+00 0. -1.
        -11    1    3    3    0    0 -0.57869687618E+02  0.19060868827E+03  0.85925608775E+03  0.88204398820E+03  0.00000000000E+00 0.  1.
          4    1    5    5  502    0  0.41918480512E+01 -0.51709456794E+02 -0.80630855346E+01  0.52501931968E+02  0.00000000000E+00 0. -1.
          3    1    6    6  503    0 -0.78308044567E+01  0.14499718496E+02 -0.69360859006E+01  0.17879390999E+02  0.00000000000E+00 0. -1.
         -4    1    5    5    0  502 -0.45580490744E+01 -0.53584170743E+03  0.20862703344E+03  0.57504117272E+03  0.00000000000E+00 0.  1.
         -3    1    6    6    0  503  0.10766207757E+03  0.84581062485E+02 -0.37499233219E+03  0.39920461957E+03  0.00000000000E+00 0.  1.
<mgrwt>
<rscale>  0 0.24089812E+04</rscale>
<asrwt>0</asrwt>
<pdfrwt beam="1">  1        2 0.99782387E-01 0.24089812E+04</pdfrwt>
<pdfrwt beam="2">  1       -2 0.34413292E+00 0.24089812E+04</pdfrwt>
<totfact> 0.68669538E-01</totfact>
</mgrwt>
</event>
<event>
12    1  0.4820219E-008  0.2343052E+04  0.7818608E-02  0.8461137E-01
         -1   -1    0    0    0  501 -0.00000000000E+00  0.00000000000E+00  0.83081112470E+03  0.83081112470E+03  0.00000000000E+00 0.  1.
          1   -1    0    0  501    0  0.00000000000E+00 -0.00000000000E+00 -0.16519677349E+04  0.16519677349E+04  0.00000000000E+00 0. -1.
         23    2    1    2    0    0 -0.81020100183E+03  0.58883796689E+03 -0.44352724107E+03  0.10998722213E+04  0.99230413876E+02 0.  0.
        254    2    1    2    0    0  0.81020100183E+03 -0.58883796689E+03 -0.37762936908E+03  0.13829066382E+04  0.87559751888E+03 0.  0.
         23    2    4    4    0    0  0.52222669554E+03 -0.15889128138E+03  0.21258013338E+03  0.59315852733E+03  0.93164180913E+02 0.  0.
         23    2    4    4    0    0  0.28797430629E+03 -0.42994668551E+03 -0.59020950246E+03  0.78974811091E+03  0.87014185227E+02 0.  0.
         13    1    3    3    0    0 -0.72436041035E+03  0.52241574261E+03 -0.42756844831E+03  0.99016715265E+03  0.00000000000E+00 0. -1.
        -13    1    3    3    0    0 -0.85840591482E+02  0.66422224277E+02 -0.15958792763E+02  0.10970506866E+03  0.00000000000E+00 0.  1.
          4    1    5    5  502    0  0.12374174562E+02  0.96220901583E+01  0.11743891241E+00  0.15675414094E+02  0.00000000000E+00 0. -1.
          3    1    6    6  503    0  0.10400730955E+02 -0.38371402740E+02 -0.79520095984E+02  0.88904361073E+02  0.00000000000E+00 0. -1.
         -4    1    5    5    0  502  0.50985252098E+03 -0.16851337154E+03  0.21246269446E+03  0.57748311324E+03  0.00000000000E+00 0.  1.
         -3    1    6    6    0  503  0.27757357533E+03 -0.39157528277E+03 -0.51068940647E+03  0.70084374983E+03  0.00000000000E+00 0.  1.
<mgrwt>
<rscale>  0 0.23430520E+04</rscale>
<asrwt>0</asrwt>
<pdfrwt beam="1">  1        1 0.25414888E+00 0.23430520E+04</pdfrwt>
<pdfrwt beam="2">  1       -1 0.12781710E+00 0.23430520E+04</pdfrwt>
<totfact> 0.24499361E+00</totfact>
</mgrwt>
</event>
<event>
12    1  0.4820219E-008  0.3066306E+04  0.7818608E-02  0.8225046E-01
          1   -1    0    0  501    0  0.00000000000E+00  0.00000000000E+00  0.35934008932E+04  0.35934008932E+04  0.00000000000E+00 0. -1.
         -1   -1    0    0    0  501 -0.00000000000E+00 -0.00000000000E+00 -0.65413197801E+03  0.65413197801E+03  0.00000000000E+00 0.  1.
         23    2    1    2    0    0 -0.78854586296E+03  0.68378796121E+03  0.26312095233E+04  0.28321160540E+04  0.90814284269E+02 0.  0.
        254    2    1    2    0    0  0.78854586296E+03 -0.68378796121E+03  0.30805939192E+03  0.14154168172E+04  0.90506001101E+03 0.  0.
         23    2    4    4    0    0  0.67886863935E+03 -0.63791558272E+02 -0.42719633868E+02  0.68914355987E+03  0.90343160184E+02 0.  0.
         23    2    4    4    0    0  0.10967722361E+03 -0.61999640294E+03  0.35077902579E+03  0.72627325732E+03  0.89455499121E+02 0.  0.
         11    1    3    3    0    0 -0.43284614782E+03  0.36189047313E+03  0.15405198254E+04  0.16405858206E+04  0.00000000000E+00 0. -1.
        -11    1    3    3    0    0 -0.35569971514E+03  0.32189748808E+03  0.10906896979E+04  0.11915302335E+04  0.00000000000E+00 0.  1.
          4    1    5    5  502    0  0.34583934684E+03  0.11074657961E+02 -0.88930765642E+01  0.34613088374E+03  0.00000000000E+00 0. -1.
          3    1    6    6  503    0  0.43874507724E+02 -0.44690647606E+03  0.22372234876E+03  0.50169917292E+03  0.00000000000E+00 0. -1.
         -4    1    5    5    0  502  0.33302929251E+03 -0.74866216233E+02 -0.33826557304E+02  0.34301267612E+03  0.00000000000E+00 0.  1.
         -3    1    6    6    0  503  0.65802715890E+02 -0.17308992688E+03  0.12705667703E+03  0.22457408440E+03  0.00000000000E+00 0.  1.
<mgrwt>
<rscale>  0 0.30663062E+04</rscale>
<asrwt>0</asrwt>
<pdfrwt beam="1">  1        1 0.55283089E+00 0.30663062E+04</pdfrwt>
<pdfrwt beam="2">  1       -1 0.10063569E+00 0.30663062E+04</pdfrwt>
<totfact> 0.16721985E-01</totfact>
</mgrwt>
</event>
<event>
12    1  0.4820219E-008  0.2631998E+04  0.7818608E-02  0.8357413E-01
         -1   -1    0    0    0  501 -0.00000000000E+00  0.00000000000E+00  0.94588407918E+03  0.94588407918E+03  0.00000000000E+00 0.  1.
          1   -1    0    0  501    0  0.00000000000E+00 -0.00000000000E+00 -0.18309366191E+04  0.18309366191E+04  0.00000000000E+00 0. -1.
         23    2    1    2    0    0 -0.16308713982E+03  0.87425663574E+03  0.39200780141E+03  0.97605399577E+03  0.89940013192E+02 0.  0.
        254    2    1    2    0    0  0.16308713982E+03 -0.87425663574E+03 -0.12770603414E+04  0.18007667026E+04  0.90606595853E+03 0.  0.
         23    2    4    4    0    0  0.27089634437E+03  0.25806556072E+02 -0.83875564828E+02  0.29969371731E+03  0.93436642113E+02 0.  0.
         23    2    4    4    0    0 -0.10780920455E+03 -0.90006319181E+03 -0.11931847766E+04  0.15010729853E+04  0.88281494202E+02 0.  0.
         13    1    3    3    0    0 -0.72416041076E+02  0.18481616244E+03  0.86925325279E+02  0.21669589078E+03  0.00000000000E+00 0. -1.
        -13    1    3    3    0    0 -0.90671098743E+02  0.68944047329E+03  0.30508247614E+03  0.75935810499E+03  0.00000000000E+00 0.  1.
          2    1    5    5  502    0  0.26417574257E+03  0.89141921326E+01 -0.62466549073E+02  0.27160698728E+03  0.00000000000E+00 0. -1.
          1    1    6    6  503    0 -0.99997151315E+02 -0.65844671697E+03 -0.92783419402E+03  0.11421154937E+04  0.00000000000E+00 0. -1.
         -2    1    5    5    0  502  0.67206017927E+01  0.16892363939E+02 -0.21409015755E+02  0.28086730026E+02  0.00000000000E+00 0.  1.
         -1    1    6    6    0  503 -0.78120532326E+01 -0.24161647484E+03 -0.26535058253E+03  0.35895749155E+03  0.00000000000E+00 0.  1.
<mgrwt>
<rscale>  0 0.26319983E+04</rscale>
<asrwt>0</asrwt>
<pdfrwt beam="1">  1        1 0.28168255E+00 0.26319983E+04</pdfrwt>
<pdfrwt beam="2">  1       -1 0.14552063E+00 0.26319983E+04</pdfrwt>
<totfact> 0.12901026E+00</totfact>
</mgrwt>
</event>
<event>
12    1  0.4820219E-008  0.2455111E+04  0.7818608E-02  0.8419154E-01
          1   -1    0    0  501    0  0.00000000000E+00  0.00000000000E+00  0.12708885593E+04  0.12708885593E+04  0.00000000000E+00 0. -1.
         -1   -1    0    0    0  501 -0.00000000000E+00 -0.00000000000E+00 -0.11856995688E+04  0.11856995688E+04  0.00000000000E+00 0.  1.
         23    2    1    2    0    0 -0.64927042644E+03 -0.83767132736E+03  0.13061099779E+02  0.10643513906E+04  0.97097636326E+02 0.  0.
        254    2    1    2    0    0  0.64927042644E+03  0.83767132736E+03  0.72127890722E+02  0.13922367375E+04  0.89993075363E+03 0.  0.
         23    2    4    4    0    0  0.67268820054E+03  0.42098762567E+03 -0.26970727646E+03  0.84310952427E+03  0.91387410707E+02 0.  0.
         23    2    4    4    0    0 -0.23417774098E+02  0.41668370169E+03  0.34183516719E+03  0.54912721323E+03  0.10254616225E+03 0.  0.
         11    1    3    3    0    0 -0.60276981977E+03 -0.78665716964E+03 -0.11435636127E+02  0.99110631717E+03  0.00000000000E+00 0. -1.
        -11    1    3    3    0    0 -0.46500606674E+02 -0.51014157719E+02  0.24496735906E+02  0.73245073411E+02  0.00000000000E+00 0.  1.
          1    1    5    5  502    0  0.48057414714E+03  0.28572970047E+03 -0.14727775914E+03  0.57817273454E+03  0.00000000000E+00 0. -1.
          3    1    6    6  503    0 -0.62960935671E+01  0.18979748566E+03  0.91356359090E+02  0.21073374362E+03  0.00000000000E+00 0. -1.
         -1    1    5    5    0  502  0.19211405340E+03  0.13525792520E+03 -0.12242951732E+03  0.26493678974E+03  0.00000000000E+00 0.  1.
         -3    1    6    6    0  503 -0.17121680531E+02  0.22688621603E+03  0.25047880810E+03  0.33839346961E+03  0.00000000000E+00 0.  1.
<mgrwt>
<rscale>  0 0.24551106E+04</rscale>
<asrwt>0</asrwt>
<pdfrwt beam="1">  1        1 0.19552132E+00 0.24551106E+04</pdfrwt>
<pdfrwt beam="2">  1       -1 0.18241532E+00 0.24551106E+04</pdfrwt>
<totfact> 0.16929179E+00</totfact>
</mgrwt>
</event>
<event>
12    1  0.4820219E-008  0.1597984E+04  0.7818608E-02  0.8821787E-01
          2   -1    0    0  501    0  0.00000000000E+00  0.00000000000E+00  0.13394742008E+04  0.13394742008E+04  0.00000000000E+00 0. -1.
         -2   -1    0    0    0  501 -0.00000000000E+00 -0.00000000000E+00 -0.47659617418E+03  0.47659617418E+03  0.00000000000E+00 0.  1.
         23    2    1    2    0    0  0.25734856558E+03  0.47933053399E+03  0.31590582559E+03  0.63551390223E+03  0.89974353399E+02 0.  0.
        254    2    1    2    0    0 -0.25734856558E+03 -0.47933053399E+03  0.54697220106E+03  0.11805564728E+04  0.89361566216E+03 0.  0.
         23    2    4    4    0    0  0.41728849144E+02  0.12022841529E+03  0.47381423524E+03  0.49917873205E+03  0.92104876737E+02 0.  0.
         23    2    4    4    0    0 -0.29907741472E+03 -0.59955894928E+03  0.73157965817E+02  0.68137774073E+03  0.10002651617E+03 0.  0.
         11    1    3    3    0    0 -0.13089087859E+01 -0.31975941221E+01  0.44689202978E+01  0.56488139470E+01  0.00000000000E+00 0.  1.
        -11    1    3    3    0    0  0.25865747437E+03  0.48252812812E+03  0.31143690529E+03  0.62986508829E+03  0.00000000000E+00 0. -1.
          4    1    5    5  502    0  0.16885269696E+02 -0.11960849603E+02  0.94037847300E+02  0.96287543227E+02  0.00000000000E+00 0.  1.
          1    1    6    6  503    0 -0.18582640961E+03 -0.46551470200E+03  0.40343865862E+02  0.50285486952E+03  0.00000000000E+00 0. -1.
         -4    1    5    5    0  502  0.24843579449E+02  0.13218926489E+03  0.37977638794E+03  0.40289118882E+03  0.00000000000E+00 0. -1.
         -1    1    6    6    0  503 -0.11325100512E+03 -0.13404424728E+03  0.32814099955E+02  0.17852287121E+03  0.00000000000E+00 0.  1.
<mgrwt>
<rscale>  0 0.15979841E+04</rscale>
<asrwt>0</asrwt>
<pdfrwt beam="1">  1        2 0.20607295E+00 0.15979841E+04</pdfrwt>
<pdfrwt beam="2">  1       -2 0.73322489E-01 0.15979841E+04</pdfrwt>
<totfact> 0.25247710E+01</totfact>
</mgrwt>
</event>
<event>
12    1  0.4820219E-008  0.1890127E+04  0.7818608E-02  0.8659786E-01
          1   -1    0    0  501    0  0.00000000000E+00  0.00000000000E+00  0.73737210612E+03  0.73737210612E+03  0.00000000000E+00 0.  1.
         -1   -1    0    0    0  501 -0.00000000000E+00 -0.00000000000E+00 -0.12112540729E+04  0.12112540729E+04  0.00000000000E+00 0. -1.
         23    2    1    2    0    0  0.35350185039E+03  0.64836126920E+03 -0.13613527573E+03  0.75658211196E+03  0.92454233024E+02 0.  0.
        254    2    1    2    0    0 -0.35350185039E+03 -0.64836126920E+03 -0.33774669105E+03  0.11920440671E+04  0.87267424442E+03 0.  0.
         23    2    4    4    0    0 -0.37163750031E+03 -0.82893696401E+03 -0.37388343426E+03  0.98662530201E+03  0.91595535984E+02 0.  0.
         23    2    4    4    0    0  0.18135649921E+02  0.18057569481E+03  0.36136743212E+02  0.20541876505E+03  0.89188124054E+02 0.  0.
         13    1    3    3    0    0  0.27495372443E+03  0.55014732670E+03 -0.13999673118E+03  0.63076201248E+03  0.00000000000E+00 0.  1.
        -13    1    3    3    0    0  0.78548125954E+02  0.98213942506E+02  0.38614554424E+01  0.12582009947E+03  0.00000000000E+00 0. -1.
          2    1    5    5  502    0 -0.70506531619E+02 -0.89345845456E+02 -0.59430386889E+02  0.12839712609E+03  0.00000000000E+00 0. -1.
          3    1    6    6  503    0  0.33008699193E+02  0.71878514999E+02  0.51869917988E+02  0.94586381329E+02  0.00000000000E+00 0. -1.
         -2    1    5    5    0  502 -0.30113096869E+03 -0.73959111856E+03 -0.31445304737E+03  0.85822817592E+03  0.00000000000E+00 0.  1.
         -3    1    6    6    0  503 -0.14873049272E+02  0.10869717981E+03 -0.15733174777E+02  0.11083238372E+03  0.00000000000E+00 0.  1.
<mgrwt>
<rscale>  0 0.18901269E+04</rscale>
<asrwt>0</asrwt>
<pdfrwt beam="1">  1        1 0.11344186E+00 0.18901269E+04</pdfrwt>
<pdfrwt beam="2">  1       -1 0.18634678E+00 0.18901269E+04</pdfrwt>
<totfact> 0.44151916E+00</totfact>
</mgrwt>
</event>
<event>
12    1  0.4820219E-008  0.1374181E+04  0.7818608E-02  0.8972722E-01
         -1   -1    0    0    0  501 -0.00000000000E+00  0.00000000000E+00  0.44909435537E+03  0.44909435537E+03  0.00000000000E+00 0.  1.
          1   -1    0    0  501    0  0.00000000000E+00 -0.00000000000E+00 -0.10512126578E+04  0.10512126578E+04  0.00000000000E+00 0. -1.
         23    2    1    2    0    0  0.10732653380E+03 -0.14689529093E+03  0.20061019296E+03  0.28630930977E+03  0.92905112801E+02 0.  0.
        254    2    1    2    0    0 -0.10732653380E+03  0.14689529093E+03 -0.80272849544E+03  0.12139977035E+04  0.89236773543E+03 0.  0.
         23    2    4    4    0    0  0.20071519700E+03  0.41197685820E+03 -0.56776819813E+03  0.73537446273E+03  0.91669796684E+02 0.  0.
         23    2    4    4    0    0 -0.30804173079E+03 -0.26508156727E+03 -0.23496029731E+03  0.47862324072E+03  0.93359091848E+02 0.  0.
         11    1    3    3    0    0 -0.58119802382E+01 -0.18934032281E+02 -0.35501990940E+01  0.20121645218E+02  0.00000000000E+00 0. -1.
        -11    1    3    3    0    0  0.11313851404E+03 -0.12796125865E+03  0.20416039206E+03  0.26618766455E+03  0.00000000000E+00 0.  1.
          1    1    5    5  502    0  0.16838512612E+03  0.27226017209E+03 -0.34693721761E+03  0.47206417463E+03  0.00000000000E+00 0. -1.
          3    1    6    6  503    0 -0.30852754708E+03 -0.26524923021E+03 -0.24078025266E+03  0.47278063782E+03  0.00000000000E+00 0. -1.
         -1    1    5    5    0  502  0.32330070876E+02  0.13971668611E+03 -0.22083098052E+03  0.26331028810E+03  0.00000000000E+00 0.  1.
         -3    1    6    6    0  503  0.48581628388E+00  0.16766293423E+00  0.58199553521E+01  0.58426028978E+01  0.00000000000E+00 0.  1.
<mgrwt>
<rscale>  0 0.13741815E+04</rscale>
<asrwt>0</asrwt>
<pdfrwt beam="1">  1        1 0.16172502E+00 0.13741815E+04</pdfrwt>
<pdfrwt beam="2">  1       -1 0.69091440E-01 0.13741815E+04</pdfrwt>
<totfact> 0.28598209E+01</totfact>
</mgrwt>
</event>
<event>
12    1  0.4820219E-008  0.1324051E+04  0.7818608E-02  0.9010707E-01
         -1   -1    0    0    0  501 -0.00000000000E+00  0.00000000000E+00  0.26871987011E+03  0.26871987011E+03  0.00000000000E+00 0.  1.
          1   -1    0    0  501    0  0.00000000000E+00 -0.00000000000E+00 -0.16309830165E+04  0.16309830165E+04  0.00000000000E+00 0. -1.
         23    2    1    2    0    0  0.11650122641E+03  0.26247630327E+03 -0.64724166442E+03  0.71398717768E+03  0.91594607950E+02 0.  0.
        254    2    1    2    0    0 -0.11650122641E+03 -0.26247630327E+03 -0.71502148195E+03  0.11857157089E+04  0.90122121433E+03 0.  0.
         23    2    4    4    0    0  0.85751733642E+02 -0.13623579742E+03  0.17841347100E+03  0.25620908438E+03  0.88871682585E+02 0.  0.
         23    2    4    4    0    0 -0.20225296005E+03 -0.12624050586E+03 -0.89343495295E+03  0.92950662452E+03  0.94411994554E+02 0.  0.
         13    1    3    3    0    0  0.63922037677E+02  0.14972067372E+03 -0.47034491605E+03  0.49772145533E+03  0.00000000000E+00 0. -1.
        -13    1    3    3    0    0  0.52579188728E+02  0.11275562955E+03 -0.17689674837E+03  0.21626572235E+03  0.00000000000E+00 0.  1.
          1    1    5    5  502    0  0.33278369690E+02 -0.49707451974E+02  0.13190969144E+03  0.14483938472E+03  0.00000000000E+00 0. -1.
          3    1    6    6  503    0 -0.16100137458E+03 -0.11564692148E+03 -0.82824711253E+03  0.85163896839E+03  0.00000000000E+00 0. -1.
         -1    1    5    5    0  502  0.52473363952E+02 -0.86528345441E+02  0.46503779563E+02  0.11136969966E+03  0.00000000000E+00 0.  1.
         -3    1    6    6    0  503 -0.41251585464E+02 -0.10593584379E+02 -0.65187840415E+02  0.77867656131E+02  0.00000000000E+00 0.  1.
<mgrwt>
<rscale>  0 0.13240507E+04</rscale>
<asrwt>0</asrwt>
<pdfrwt beam="1">  1        1 0.25092047E+00 0.13240507E+04</pdfrwt>
<pdfrwt beam="2">  1       -1 0.41341518E-01 0.13240507E+04</pdfrwt>
<totfact> 0.29874329E+01</totfact>
</mgrwt>
</event>
<event>
12    1  0.4820219E-008  0.2097931E+04  0.7818608E-02  0.8562155E-01
          2   -1    0    0  501    0  0.00000000000E+00  0.00000000000E+00  0.80004614298E+03  0.80004614298E+03  0.00000000000E+00 0. -1.
         -2   -1    0    0    0  501 -0.00000000000E+00 -0.00000000000E+00 -0.13753316922E+04  0.13753316922E+04  0.00000000000E+00 0.  1.
         23    2    1    2    0    0 -0.64701070573E+02  0.36563962538E+03  0.55875827838E+03  0.67712404252E+03  0.91692917478E+02 0.  0.
        254    2    1    2    0    0  0.64701070573E+02 -0.36563962538E+03 -0.11340438276E+04  0.14982537927E+04  0.90599694268E+03 0.  0.
         23    2    4    4    0    0  0.27174404084E+03 -0.21807180191E+02 -0.10341352060E+04  0.10740541838E+04  0.99178569042E+02 0.  0.
         23    2    4    4    0    0 -0.20704297027E+03 -0.34383244519E+03 -0.99908621600E+02  0.42419960888E+03  0.94212704031E+02 0.  0.
         13    1    3    3    0    0 -0.26194948753E+02  0.54583051989E+02  0.45512354764E+02  0.75742057939E+02  0.00000000000E+00 0.  1.
        -13    1    3    3    0    0 -0.38506121819E+02  0.31105657339E+03  0.51324592362E+03  0.60138198458E+03  0.00000000000E+00 0. -1.
          1    1    6    6  502    0 -0.10959038436E+03 -0.11212173860E+03 -0.67692662596E+02  0.17077363139E+03  0.00000000000E+00 0. -1.
          1    1    5    5  503    0  0.26143829451E+02 -0.25417650244E+01 -0.28820520707E+02  0.38994650936E+02  0.00000000000E+00 0. -1.
         -1    1    5    5    0  503  0.24560021139E+03 -0.19265415167E+02 -0.10053146853E+04  0.10350595329E+04  0.00000000000E+00 0.  1.
         -1    1    6    6    0  502 -0.97452585911E+02 -0.23171070659E+03 -0.32215959004E+02  0.25342597749E+03  0.00000000000E+00 0.  1.
<mgrwt>
<rscale>  0 0.20979312E+04</rscale>
<asrwt>0</asrwt>
<pdfrwt beam="1">  1        2 0.12308402E+00 0.20979312E+04</pdfrwt>
<pdfrwt beam="2">  1       -2 0.21158949E+00 0.20979312E+04</pdfrwt>
<totfact> 0.35490052E+00</totfact>
</mgrwt>
</event>
<event>
12    1  0.4820219E-008  0.1836180E+04  0.7818608E-02  0.8687292E-01
          2   -1    0    0  501    0  0.00000000000E+00  0.00000000000E+00  0.96000539395E+03  0.96000539395E+03  0.00000000000E+00 0. -1.
         -2   -1    0    0    0  501 -0.00000000000E+00 -0.00000000000E+00 -0.87800482378E+03  0.87800482378E+03  0.00000000000E+00 0.  1.
         23    2    1    2    0    0  0.66286463979E+03 -0.34708530472E+02  0.20753537126E+03  0.70707037341E+03  0.12760630807E+03 0.  0.
        254    2    1    2    0    0 -0.66286463979E+03  0.34708530472E+02 -0.12553480109E+03  0.11309398443E+04  0.90701253157E+03 0.  0.
         23    2    4    4    0    0 -0.79284665832E+03  0.77053135479E+01  0.15050391309E+03  0.81189676226E+03  0.88655114072E+02 0.  0.
         23    2    4    4    0    0  0.12998201853E+03  0.27003216924E+02 -0.27603871418E+03  0.31904308205E+03  0.89255910803E+02 0.  0.
         11    1    3    3    0    0  0.48060005545E+03 -0.46810835825E+02  0.93831006174E+02  0.49190641932E+03  0.00000000000E+00 0.  1.
        -11    1    3    3    0    0  0.18226458434E+03  0.12102305353E+02  0.11370436509E+03  0.21516395409E+03  0.00000000000E+00 0. -1.
          2    1    5    5  502    0 -0.94774713352E+02  0.28283335765E+02  0.28646951710E+02  0.10297009865E+03  0.00000000000E+00 0. -1.
          1    1    6    6  503    0  0.13856839211E+02  0.12170566005E+01  0.42599667284E+01  0.14547870504E+02  0.00000000000E+00 0. -1.
         -2    1    5    5    0  502 -0.69807194497E+03 -0.20578022217E+02  0.12185696138E+03  0.70892666362E+03  0.00000000000E+00 0.  1.
         -1    1    6    6    0  503  0.11612517932E+03  0.25786160323E+02 -0.28029868091E+03  0.30449521155E+03  0.00000000000E+00 0.  1.
<mgrwt>
<rscale>  0 0.18361801E+04</rscale>
<asrwt>0</asrwt>
<pdfrwt beam="1">  1        2 0.14769314E+00 0.18361801E+04</pdfrwt>
<pdfrwt beam="2">  1       -2 0.13507766E+00 0.18361801E+04</pdfrwt>
<totfact> 0.99158815E+00</totfact>
</mgrwt>
</event>
<event>
12    1  0.4820219E-008  0.2106336E+04  0.7818608E-02  0.8558457E-01
          2   -1    0    0  501    0  0.00000000000E+00  0.00000000000E+00  0.23613555160E+04  0.23613555160E+04  0.00000000000E+00 0. -1.
         -2   -1    0    0    0  501 -0.00000000000E+00 -0.00000000000E+00 -0.46971464162E+03  0.46971464162E+03  0.00000000000E+00 0.  1.
         23    2    1    2    0    0 -0.38867591344E+03  0.65920283078E+03  0.25176299138E+03  0.81172728727E+03  0.99494960981E+02 0.  0.
        254    2    1    2    0    0  0.38867591344E+03 -0.65920283078E+03  0.16398778830E+04  0.20193428704E+04  0.89606295489E+03 0.  0.
         23    2    4    4    0    0  0.14408895639E+03  0.35871074154E+02 -0.43373025474E+02  0.17961867817E+03  0.91286849529E+02 0.  0.
         23    2    4    4    0    0  0.24458695705E+03 -0.69507390494E+03  0.16832509085E+04  0.18397241922E+04  0.91109656634E+02 0.  0.
         11    1    3    3    0    0 -0.18385770338E+03  0.30734051589E+03  0.65788161802E+02  0.36412900191E+03  0.00000000000E+00 0.  1.
        -11    1    3    3    0    0 -0.20481821006E+03  0.35186231489E+03  0.18597482958E+03  0.44759828535E+03  0.00000000000E+00 0. -1.
          4    1    5    5  502    0  0.68765789066E+02  0.48760977558E+02 -0.57316429018E+02  0.10193890187E+03  0.00000000000E+00 0. -1.
          1    1    6    6  503    0  0.25164488807E+03 -0.65573668081E+03  0.15844841348E+04  0.17331779244E+04  0.00000000000E+00 0. -1.
         -4    1    5    5    0  502  0.75323167320E+02 -0.12889903404E+02  0.13943403544E+02  0.77679776308E+02  0.00000000000E+00 0.  1.
         -1    1    6    6    0  503 -0.70579310189E+01 -0.39337224125E+02  0.98766773752E+02  0.10654626784E+03  0.00000000000E+00 0.  1.
<mgrwt>
<rscale>  0 0.21063364E+04</rscale>
<asrwt>0</asrwt>
<pdfrwt beam="1">  1        2 0.36328546E+00 0.21063364E+04</pdfrwt>
<pdfrwt beam="2">  1       -2 0.72263792E-01 0.21063364E+04</pdfrwt>
<totfact> 0.66798796E+00</totfact>
</mgrwt>
</event>
<event>
12    1  0.4820219E-008  0.2325609E+04  0.7818608E-02  0.8467892E-01
         -1   -1    0    0    0  501 -0.00000000000E+00  0.00000000000E+00  0.81385839282E+03  0.81385839282E+03  0.00000000000E+00 0.  1.
          1   -1    0    0  501    0  0.00000000000E+00 -0.00000000000E+00 -0.16613624155E+04  0.16613624155E+04  0.00000000000E+00 0. -1.
         23    2    1    2    0    0  0.55435388588E+03  0.84193413884E+03 -0.46109214031E+03  0.11121759060E+04  0.90376762287E+02 0.  0.
        254    2    1    2    0    0 -0.55435388588E+03 -0.84193413884E+03 -0.38641188232E+03  0.13630449023E+04  0.83211533925E+03 0.  0.
         23    2    4    4    0    0  0.20694621371E+03 -0.26243977308E+03 -0.12523310104E+03  0.36712312368E+03  0.85992374552E+02 0.  0.
         23    2    4    4    0    0 -0.76130009958E+03 -0.57949436576E+03 -0.26117878128E+03  0.99592177857E+03  0.90853022362E+02 0.  0.
         11    1    3    3    0    0  0.51060895807E+03  0.78617399730E+03 -0.45201542731E+03  0.10407252320E+04  0.00000000000E+00 0. -1.
        -11    1    3    3    0    0  0.43744927811E+02  0.55760141541E+02 -0.90767130002E+01  0.71450673984E+02  0.00000000000E+00 0.  1.
          2    1    5    5  502    0  0.20973310030E+02 -0.24907146184E+02 -0.43935204121E+02  0.54685901527E+02  0.00000000000E+00 0. -1.
          3    1    6    6  503    0 -0.36744457419E+02 -0.37545784366E+02 -0.35447663742E+02  0.63374899917E+02  0.00000000000E+00 0. -1.
         -2    1    5    5    0  502  0.18597290367E+03 -0.23753262690E+03 -0.81297896919E+02  0.31243722215E+03  0.00000000000E+00 0.  1.
         -3    1    6    6    0  503 -0.72455564217E+03 -0.54194858139E+03 -0.22573111754E+03  0.93254687865E+03  0.00000000000E+00 0.  1.
<mgrwt>
<rscale>  0 0.23256085E+04</rscale>
<asrwt>0</asrwt>
<pdfrwt beam="1">  1        1 0.25559421E+00 0.23256085E+04</pdfrwt>
<pdfrwt beam="2">  1       -1 0.12520899E+00 0.23256085E+04</pdfrwt>
<totfact> 0.25455985E+00</totfact>
</mgrwt>
</event>
<event>
12    1  0.4820219E-008  0.1906426E+04  0.7818608E-02  0.8651665E-01
          1   -1    0    0  501    0  0.00000000000E+00  0.00000000000E+00  0.66390464833E+03  0.66390464833E+03  0.00000000000E+00 0. -1.
         -1   -1    0    0    0  501 -0.00000000000E+00 -0.00000000000E+00 -0.13685920952E+04  0.13685920952E+04  0.00000000000E+00 0.  1.
         23    2    1    2    0    0 -0.13037299833E+03  0.10083599299E+02 -0.10480033713E+04  0.10600358105E+04  0.90917850933E+02 0.  0.
        254    2    1    2    0    0  0.13037299833E+03 -0.10083599299E+02  0.34331592444E+03  0.97246093301E+03  0.90039749255E+03 0.  0.
         23    2    4    4    0    0 -0.35854055204E+03 -0.13025751818E+03  0.97607588869E+02  0.40511310775E+03  0.95242008395E+02 0.  0.
         23    2    4    4    0    0  0.48891355037E+03  0.12017391888E+03  0.24570833557E+03  0.56734782527E+03  0.89625544072E+02 0.  0.
         11    1    3    3    0    0 -0.65021587465E+02  0.24137252515E+02 -0.80573962148E+03  0.80871920431E+03  0.00000000000E+00 0.  1.
        -11    1    3    3    0    0 -0.65351410865E+02 -0.14053653216E+02 -0.24226374983E+03  0.25131660620E+03  0.00000000000E+00 0. -1.
          2    1    5    5  502    0 -0.16993533316E+03 -0.10290879200E+03  0.21219234513E+02  0.19979612819E+03  0.00000000000E+00 0. -1.
          1    1    6    6  503    0  0.20254670787E+03  0.51143374846E+02  0.15158487168E+03  0.25810615448E+03  0.00000000000E+00 0. -1.
         -2    1    5    5    0  502 -0.18860521888E+03 -0.27348726183E+02  0.76388354356E+02  0.20531697956E+03  0.00000000000E+00 0.  1.
         -1    1    6    6    0  503  0.28636684250E+03  0.69030544033E+02  0.94123463888E+02  0.30924167078E+03  0.00000000000E+00 0.  1.
<mgrwt>
<rscale>  0 0.19064256E+04</rscale>
<asrwt>0</asrwt>
<pdfrwt beam="1">  1        1 0.10213918E+00 0.19064256E+04</pdfrwt>
<pdfrwt beam="2">  1       -1 0.21055263E+00 0.19064256E+04</pdfrwt>
<totfact> 0.35165699E+00</totfact>
</mgrwt>
</event>
<event>
12    1  0.4820219E-008  0.1513786E+04  0.7818608E-02  0.8875337E-01
          2   -1    0    0  501    0  0.00000000000E+00  0.00000000000E+00  0.13685287085E+04  0.13685287085E+04  0.00000000000E+00 0. -1.
         -2   -1    0    0    0  501 -0.00000000000E+00 -0.00000000000E+00 -0.41861541137E+03  0.41861541137E+03  0.00000000000E+00 0.  1.
         23    2    1    2    0    0  0.55187706142E+02  0.86681138453E+02  0.86451428862E+03  0.87513818936E+03  0.89008946664E+02 0.  0.
        254    2    1    2    0    0 -0.55187706142E+02 -0.86681138453E+02  0.85399008518E+02  0.91200593052E+03  0.90216546374E+03 0.  0.
         23    2    4    4    0    0  0.13157877781E+03  0.36097209736E+03 -0.55399449869E+02  0.39895164933E+03  0.92084144199E+02 0.  0.
         23    2    4    4    0    0 -0.18676648395E+03 -0.44765323582E+03  0.14079845839E+03  0.51305428118E+03  0.90140726035E+02 0.  0.
         11    1    3    3    0    0  0.68338793875E+02  0.43237431622E+02  0.38040851859E+03  0.38890912468E+03  0.00000000000E+00 0.  1.
        -11    1    3    3    0    0 -0.13151087733E+02  0.43443706830E+02  0.48410577003E+03  0.48622906469E+03  0.00000000000E+00 0. -1.
          4    1    5    5  502    0  0.88741821293E+02  0.26830784199E+03  0.41604469445E+00  0.28260286979E+03  0.00000000000E+00 0.  1.
          3    1    6    6  503    0  0.37715770689E+01  0.20056478917E+01 -0.12532243733E+01  0.44517399275E+01  0.00000000000E+00 0. -1.
         -4    1    5    5    0  502  0.42836956519E+02  0.92664255377E+02 -0.55815494563E+02  0.11634877955E+03  0.00000000000E+00 0. -1.
         -3    1    6    6    0  503 -0.19053806102E+03 -0.44965888371E+03  0.14205168276E+03  0.50860254126E+03  0.00000000000E+00 0.  1.
<mgrwt>
<rscale>  0 0.15137863E+04</rscale>
<asrwt>0</asrwt>
<pdfrwt beam="1">  1        2 0.21054288E+00 0.15137863E+04</pdfrwt>
<pdfrwt beam="2">  1       -2 0.64402372E-01 0.15137863E+04</pdfrwt>
<totfact> 0.32424325E+01</totfact>
</mgrwt>
</event>
<event>
12    1  0.5024577E-008  0.2122681E+04  0.7818608E-02  0.8551318E-01
          2   -1    0    0  501    0  0.00000000000E+00  0.00000000000E+00  0.77340573325E+03  0.77340573325E+03  0.00000000000E+00 0. -1.
         -2   -1    0    0    0  501 -0.00000000000E+00 -0.00000000000E+00 -0.14564716793E+04  0.14564716793E+04  0.00000000000E+00 0.  1.
         23    2    1    2    0    0  0.48566812258E+03 -0.11857449987E+03 -0.10296552681E+04  0.11484080833E+04  0.93368718108E+02 0.  0.
        254    2    1    2    0    0 -0.48566812258E+03  0.11857449987E+03  0.34658932205E+03  0.10814693292E+04  0.89415788006E+03 0.  0.
         23    2    4    4    0    0  0.43194992071E+02  0.36134172253E+03 -0.39083404481E+02  0.37737300384E+03  0.91919659191E+02 0.  0.
         23    2    4    4    0    0 -0.52886311465E+03 -0.24276722265E+03  0.38567272653E+03  0.70409632533E+03  0.91520844194E+02 0.  0.
         11    1    3    3    0    0  0.19836691254E+03 -0.24677213103E+01 -0.38216738335E+03  0.43058963124E+03  0.00000000000E+00 0. -1.
        -11    1    3    3    0    0  0.28730121004E+03 -0.11610677856E+03 -0.64748788472E+03  0.71781845211E+03  0.00000000000E+00 0.  1.
          1    1    5    5  502    0  0.12427285607E+02  0.28499623243E+02 -0.29674360560E+02  0.42979455874E+02  0.00000000000E+00 0. -1.
          3    1    6    6  503    0 -0.17299479422E+02  0.82434133831E+01  0.10498779730E+02  0.21850634506E+02  0.00000000000E+00 0. -1.
         -1    1    5    5    0  502  0.30767706464E+02  0.33284209928E+03 -0.94090439207E+01  0.33439354797E+03  0.00000000000E+00 0.  1.
         -3    1    6    6    0  503 -0.51156363523E+03 -0.25101063604E+03  0.37517394680E+03  0.68224569082E+03  0.00000000000E+00 0.  1.
<mgrwt>
<rscale>  0 0.21226809E+04</rscale>
<asrwt>0</asrwt>
<pdfrwt beam="1">  1        2 0.11898550E+00 0.21226809E+04</pdfrwt>
<pdfrwt beam="2">  1       -2 0.22407256E+00 0.21226809E+04</pdfrwt>
<totfact> 0.30852593E+00</totfact>
</mgrwt>
</event>
<event>
12    1  0.4820219E-008  0.2150170E+04  0.7818608E-02  0.8539459E-01
         -2   -1    0    0    0  501 -0.00000000000E+00  0.00000000000E+00  0.55353089940E+03  0.55353089940E+03  0.00000000000E+00 0.  1.
          2   -1    0    0  501    0  0.00000000000E+00 -0.00000000000E+00 -0.20880642209E+04  0.20880642209E+04  0.00000000000E+00 0. -1.
         23    2    1    2    0    0 -0.24932735525E+03  0.32817757268E+03  0.32288488632E+03  0.53135549723E+03  0.90660715487E+02 0.  0.
        254    2    1    2    0    0  0.24932735525E+03 -0.32817757268E+03 -0.18574182078E+04  0.21102396231E+04  0.91282211778E+03 0.  0.
         23    2    4    4    0    0  0.94015703089E+02 -0.62394337337E+03 -0.13842839096E+04  0.15240444675E+04  0.91243141074E+02 0.  0.
         23    2    4    4    0    0  0.15531165216E+03  0.29576580069E+03 -0.47313429820E+03  0.58619515559E+03  0.90385718734E+02 0.  0.
         11    1    3    3    0    0 -0.12276516719E+03  0.22748326492E+03  0.17463017442E+03  0.31195451577E+03  0.00000000000E+00 0. -1.
        -11    1    3    3    0    0 -0.12656218806E+03  0.10069430776E+03  0.14825471190E+03  0.21940098146E+03  0.00000000000E+00 0.  1.
          4    1    5    5  502    0  0.93916360321E+02 -0.62507248873E+03 -0.13597591607E+04  0.14994935391E+04  0.00000000000E+00 0.  1.
          3    1    6    6  503    0 -0.92106419160E+01  0.39650433290E+02 -0.42651088685E+02  0.58958529074E+02  0.00000000000E+00 0. -1.
         -4    1    5    5    0  502  0.99342768227E-01  0.11291153645E+01 -0.24524748974E+02  0.24550928348E+02  0.00000000000E+00 0. -1.
         -3    1    6    6    0  503  0.16452229408E+03  0.25611536740E+03 -0.43048320951E+03  0.52723662651E+03  0.00000000000E+00 0.  1.
<mgrwt>
<rscale>  0 0.21501703E+04</rscale>
<asrwt>0</asrwt>
<pdfrwt beam="1">  1        2 0.32124064E+00 0.21501703E+04</pdfrwt>
<pdfrwt beam="2">  1       -2 0.85158601E-01 0.21501703E+04</pdfrwt>
<totfact> 0.65697136E+00</totfact>
</mgrwt>
</event>
<event>
12    1  0.4820219E-008  0.2982430E+04  0.7818608E-02  0.8248766E-01
          2   -1    0    0  501    0  0.00000000000E+00  0.00000000000E+00  0.65438384947E+03  0.65438384947E+03  0.00000000000E+00 0. -1.
         -2   -1    0    0    0  501 -0.00000000000E+00 -0.00000000000E+00 -0.33981925944E+04  0.33981925944E+04  0.00000000000E+00 0.  1.
         23    2    1    2    0    0  0.21981260775E+03 -0.25439894658E+03 -0.30216109506E+04  0.30416231177E+04  0.91115568677E+02 0.  0.
        254    2    1    2    0    0 -0.21981260775E+03  0.25439894658E+03  0.27780220574E+03  0.10109533261E+04  0.91203955805E+03 0.  0.
         23    2    4    4    0    0 -0.40414098820E+03  0.23938990757E+03 -0.17817872115E+03  0.51054083106E+03  0.90922039802E+02 0.  0.
         23    2    4    4    0    0  0.18432838045E+03  0.15009039019E+02  0.45598092690E+03  0.50041249502E+03  0.91059521117E+02 0.  0.
         13    1    3    3    0    0  0.23932113302E+00 -0.10910749830E+01 -0.22349940535E+03  0.22350219666E+03  0.00000000000E+00 0. -1.
        -13    1    3    3    0    0  0.21957328662E+03 -0.25330787160E+03 -0.27981115453E+04  0.28181209211E+04  0.00000000000E+00 0.  1.
          1    1    5    5  502    0 -0.26242959946E+03  0.20385619153E+03 -0.12087888717E+03  0.35360761709E+03  0.00000000000E+00 0. -1.
          3    1    6    6  503    0  0.18842527545E+03  0.14006029332E+02  0.45821301190E+03  0.49564041155E+03  0.00000000000E+00 0. -1.
         -1    1    5    5    0  502 -0.14171138874E+03  0.35533716032E+02 -0.57299833981E+02  0.15693321397E+03  0.00000000000E+00 0.  1.
         -3    1    6    6    0  503 -0.40968950059E+01  0.10030096877E+01 -0.22320850062E+01  0.47720834651E+01  0.00000000000E+00 0.  1.
<mgrwt>
<rscale>  0 0.29824301E+04</rscale>
<asrwt>0</asrwt>
<pdfrwt beam="1">  1        2 0.10067444E+00 0.29824301E+04</pdfrwt>
<pdfrwt beam="2">  1       -2 0.52279886E+00 0.29824301E+04</pdfrwt>
<totfact> 0.45767573E-02</totfact>
</mgrwt>
</event>
<event>
12    1  0.4820219E-008  0.1434116E+04  0.7818608E-02  0.8929487E-01
          2   -1    0    0  501    0  0.00000000000E+00  0.00000000000E+00  0.39519148201E+03  0.39519148201E+03  0.00000000000E+00 0. -1.
         -2   -1    0    0    0  501 -0.00000000000E+00 -0.00000000000E+00 -0.13010714123E+04  0.13010714123E+04  0.00000000000E+00 0.  1.
         23    2    1    2    0    0  0.19799885540E+03  0.25499717883E+03 -0.66088048519E+03  0.74541540790E+03  0.12105373468E+03 0.  0.
        254    2    1    2    0    0 -0.19799885540E+03 -0.25499717883E+03 -0.24499944509E+03  0.95084748639E+03  0.86015063003E+03 0.  0.
         23    2    4    4    0    0  0.59388839521E+02 -0.34712343828E+03 -0.46484952162E+03  0.58879907407E+03  0.81102134457E+02 0.  0.
         23    2    4    4    0    0 -0.25738769492E+03  0.92126259447E+02  0.21985007654E+03  0.36204841232E+03  0.89494824058E+02 0.  0.
         11    1    3    3    0    0  0.12915375461E+03  0.24254716105E+03 -0.53123783061E+03  0.59809986652E+03  0.00000000000E+00 0.  1.
        -11    1    3    3    0    0  0.68845100787E+02  0.12450017783E+02 -0.12964265458E+03  0.14731554138E+03  0.00000000000E+00 0. -1.
          2    1    5    5  502    0  0.68946404394E+00 -0.99116785692E+01  0.17793643483E+01  0.10093704484E+02  0.00000000000E+00 0. -1.
          1    1    6    6  503    0 -0.26449278981E+02  0.38144885977E+02  0.15343163898E+02  0.48887722009E+02  0.00000000000E+00 0. -1.
         -2    1    5    5    0  502  0.58699375477E+02 -0.33721175971E+03 -0.46662888597E+03  0.57870536959E+03  0.00000000000E+00 0.  1.
         -1    1    6    6    0  503 -0.23093841594E+03  0.53981373470E+02  0.20450691264E+03  0.31316069031E+03  0.00000000000E+00 0.  1.
<mgrwt>
<rscale>  0 0.14341162E+04</rscale>
<asrwt>0</asrwt>
<pdfrwt beam="1">  1        2 0.60798688E-01 0.14341162E+04</pdfrwt>
<pdfrwt beam="2">  1       -2 0.20016484E+00 0.14341162E+04</pdfrwt>
<totfact> 0.10373413E+01</totfact>
</mgrwt>
</event>
<event>
12    1  0.4820219E-008  0.1559422E+04  0.7818608E-02  0.8845872E-01
         -1   -1    0    0    0  501 -0.00000000000E+00  0.00000000000E+00  0.27745258726E+03  0.27745258726E+03  0.00000000000E+00 0.  1.
          1   -1    0    0  501    0  0.00000000000E+00 -0.00000000000E+00 -0.21911817666E+04  0.21911817666E+04  0.00000000000E+00 0. -1.
         23    2    1    2    0    0 -0.14123894628E+03 -0.31823927492E+03 -0.58689256133E+02  0.36461065400E+03  0.90949569402E+02 0.  0.
        254    2    1    2    0    0  0.14123894628E+03  0.31823927492E+03 -0.18550399233E+04  0.21040236999E+04  0.92979456702E+03 0.  0.
         23    2    4    4    0    0  0.44140901114E+03 -0.42751502062E+01 -0.48562079861E+03  0.66246240511E+03  0.90380784028E+02 0.  0.
         23    2    4    4    0    0 -0.30017006487E+03  0.32251442513E+03 -0.13694191246E+04  0.14415612948E+04  0.93126824500E+02 0.  0.
         13    1    3    3    0    0 -0.47775551824E+02 -0.31989400210E+02  0.15735346993E+01  0.57517832793E+02  0.00000000000E+00 0. -1.
        -13    1    3    3    0    0 -0.93463394452E+02 -0.28624987471E+03 -0.60262790832E+02  0.30709282121E+03  0.00000000000E+00 0.  1.
          2    1    5    5  502    0  0.17939707277E+03  0.34641416218E+02 -0.16136643480E+03  0.24376723266E+03  0.00000000000E+00 0.  1.
          1    1    6    6  503    0  0.63559326290E+01  0.75966166346E+01 -0.46989925284E+02  0.48022489961E+02  0.00000000000E+00 0. -1.
         -2    1    5    5    0  502  0.26201193837E+03 -0.38916566424E+02 -0.32425436381E+03  0.41869517246E+03  0.00000000000E+00 0. -1.
         -1    1    6    6    0  503 -0.30652599750E+03  0.31491780850E+03 -0.13224291994E+04  0.13935388048E+04  0.00000000000E+00 0.  1.
<mgrwt>
<rscale>  0 0.15594218E+04</rscale>
<asrwt>0</asrwt>
<pdfrwt beam="1">  1        1 0.33710488E+00 0.15594218E+04</pdfrwt>
<pdfrwt beam="2">  1       -1 0.42685014E-01 0.15594218E+04</pdfrwt>
<totfact> 0.11502451E+01</totfact>
</mgrwt>
</event>
<event>
12    1  0.4820219E-008  0.1337812E+04  0.7818608E-02  0.9000106E-01
         -2   -1    0    0    0  501 -0.00000000000E+00  0.00000000000E+00  0.25035242859E+03  0.25035242859E+03  0.00000000000E+00 0.  1.
          2   -1    0    0  501    0  0.00000000000E+00 -0.00000000000E+00 -0.17872221917E+04  0.17872221917E+04  0.00000000000E+00 0. -1.
         23    2    1    2    0    0 -0.29707589990E+03 -0.18385472798E+02 -0.11411666409E+03  0.33162899613E+03  0.91449779336E+02 0.  0.
        254    2    1    2    0    0  0.29707589990E+03  0.18385472798E+02 -0.14227530990E+04  0.17059456241E+04  0.89299046799E+03 0.  0.
         23    2    4    4    0    0 -0.10614811310E+03 -0.22805560465E+03 -0.10863584055E+04  0.11187323294E+04  0.90059197334E+02 0.  0.
         23    2    4    4    0    0  0.40322401300E+03  0.24644107745E+03 -0.33639469350E+03  0.58721329470E+03  0.91297614103E+02 0.  0.
         13    1    3    3    0    0 -0.16826491383E+02  0.22543793674E+02 -0.11469198146E+02  0.30379202616E+02  0.00000000000E+00 0. -1.
        -13    1    3    3    0    0 -0.28024940852E+03 -0.40929266472E+02 -0.10264746595E+03  0.30124979352E+03  0.00000000000E+00 0.  1.
          4    1    5    5  502    0 -0.25208298716E+01  0.40689700612E+01 -0.10094781987E+03  0.10106123607E+03  0.00000000000E+00 0. -1.
          3    1    6    6  503    0  0.29037497279E+02  0.58982870048E+01 -0.20816159217E+00  0.29631222875E+02  0.00000000000E+00 0. -1.
         -4    1    5    5    0  502 -0.10362728323E+03 -0.23212457471E+03 -0.98541058563E+03  0.10176710934E+04  0.00000000000E+00 0.  1.
         -3    1    6    6    0  503  0.37418651572E+03  0.24054279044E+03 -0.33618653191E+03  0.55758207183E+03  0.00000000000E+00 0.  1.
<mgrwt>
<rscale>  0 0.13378123E+04</rscale>
<asrwt>0</asrwt>
<pdfrwt beam="1">  1        2 0.27495726E+00 0.13378123E+04</pdfrwt>
<pdfrwt beam="2">  1       -2 0.38515759E-01 0.13378123E+04</pdfrwt>
<totfact> 0.54602740E+01</totfact>
</mgrwt>
</event>
<event>
12    1  0.4820219E-008  0.1836599E+04  0.7818608E-02  0.8687075E-01
          1   -1    0    0  501    0  0.00000000000E+00  0.00000000000E+00  0.19540257684E+04  0.19540257684E+04  0.00000000000E+00 0. -1.
         -1   -1    0    0    0  501 -0.00000000000E+00 -0.00000000000E+00 -0.43155731202E+03  0.43155731202E+03  0.00000000000E+00 0.  1.
         23    2    1    2    0    0 -0.61361329668E+03  0.15593155638E+03  0.20822345540E+03  0.67263130017E+03  0.90774062652E+02 0.  0.
        254    2    1    2    0    0  0.61361329668E+03 -0.15593155638E+03  0.13142450009E+04  0.17129517802E+04  0.89784628456E+03 0.  0.
         23    2    4    4    0    0  0.74546830517E+03  0.73928296911E+02  0.66548948139E+03  0.10063545537E+04  0.93192546524E+02 0.  0.
         23    2    4    4    0    0 -0.13185500849E+03 -0.22985985329E+03  0.64875551954E+03  0.70659722655E+03  0.90413610758E+02 0.  0.
         11    1    3    3    0    0 -0.11627859949E+03 -0.47565844453E+01  0.48953584800E+02  0.12625288615E+03  0.00000000000E+00 0. -1.
        -11    1    3    3    0    0 -0.49733469718E+03  0.16068814083E+03  0.15926987060E+03  0.54637841402E+03  0.00000000000E+00 0.  1.
          1    1    5    5  502    0  0.54986106607E+03  0.85554728581E+02  0.52686920984E+03  0.76632758520E+03  0.00000000000E+00 0. -1.
          3    1    6    6  503    0 -0.11939831456E+03 -0.18940981304E+03  0.60768571852E+03  0.64762177796E+03  0.00000000000E+00 0. -1.
         -1    1    5    5    0  502  0.19560723909E+03 -0.11626431671E+02  0.13862027155E+03  0.24002696845E+03  0.00000000000E+00 0.  1.
         -3    1    6    6    0  503 -0.12456693927E+02 -0.40450040256E+02  0.41069801024E+02  0.58975448591E+02  0.00000000000E+00 0.  1.
<mgrwt>
<rscale>  0 0.18365991E+04</rscale>
<asrwt>0</asrwt>
<pdfrwt beam="1">  1        1 0.30061934E+00 0.18365991E+04</pdfrwt>
<pdfrwt beam="2">  1       -1 0.66393434E-01 0.18365991E+04</pdfrwt>
<totfact> 0.69241364E+00</totfact>
</mgrwt>
</event>
<event>
12    1  0.4820219E-008  0.2845111E+04  0.7818608E-02  0.8289399E-01
          1   -1    0    0  501    0  0.00000000000E+00  0.00000000000E+00  0.22774001183E+04  0.22774001183E+04  0.00000000000E+00 0.  1.
         -1   -1    0    0    0  501 -0.00000000000E+00 -0.00000000000E+00 -0.88858498412E+03  0.88858498412E+03  0.00000000000E+00 0. -1.
         23    2    1    2    0    0  0.27195268411E+03 -0.66900925879E+03  0.18009198976E+04  0.19425160512E+04  0.92328115406E+02 0.  0.
        254    2    1    2    0    0 -0.27195268411E+03  0.66900925879E+03 -0.41210476336E+03  0.12234690513E+04  0.89750461429E+03 0.  0.
         23    2    4    4    0    0 -0.23424509675E+03  0.25695106290E+03 -0.64605212292E+03  0.73943680900E+03  0.92134873414E+02 0.  0.
         23    2    4    4    0    0 -0.37707587363E+02  0.41205819589E+03  0.23394735955E+03  0.48403224226E+03  0.91334689821E+02 0.  0.
         13    1    3    3    0    0  0.83067758548E+02 -0.26900569477E+03  0.60166292549E+03  0.66427599102E+03  0.00000000000E+00 0. -1.
        -13    1    3    3    0    0  0.18888492556E+03 -0.40000356401E+03  0.11992569721E+04  0.12782400602E+04  0.00000000000E+00 0.  1.
          1    1    5    5  502    0 -0.17840475054E+03  0.21861366992E+03 -0.57915414989E+03  0.64423576510E+03  0.00000000000E+00 0. -1.
          3    1    6    6  503    0 -0.60376833263E+02  0.22666291011E+03  0.10454608718E+03  0.25680989303E+03  0.00000000000E+00 0. -1.
         -1    1    5    5    0  502 -0.55840346208E+02  0.38337392978E+02 -0.66897973024E+02  0.95201043900E+02  0.00000000000E+00 0.  1.
         -3    1    6    6    0  503  0.22669245900E+02  0.18539528578E+03  0.12940127237E+03  0.22722234923E+03  0.00000000000E+00 0.  1.
<mgrwt>
<rscale>  0 0.28451106E+04</rscale>
<asrwt>0</asrwt>
<pdfrwt beam="1">  1        1 0.35036925E+00 0.28451106E+04</pdfrwt>
<pdfrwt beam="2">  1       -1 0.13670538E+00 0.28451106E+04</pdfrwt>
<totfact> 0.74162683E-01</totfact>
</mgrwt>
</event>
<event>
12    1  0.4820219E-008  0.1630259E+04  0.7818608E-02  0.8802172E-01
          2   -1    0    0  501    0  0.00000000000E+00  0.00000000000E+00  0.10261188822E+04  0.10261188822E+04  0.00000000000E+00 0. -1.
         -2   -1    0    0    0  501 -0.00000000000E+00 -0.00000000000E+00 -0.64752338482E+03  0.64752338482E+03  0.00000000000E+00 0.  1.
         23    2    1    2    0    0 -0.74819244891E+02  0.22629915342E+03  0.64486508596E+03  0.69367113728E+03  0.92300819922E+02 0.  0.
        254    2    1    2    0    0  0.74819244891E+02 -0.22629915342E+03 -0.26626958857E+03  0.97997112975E+03  0.91248818902E+03 0.  0.
         23    2    4    4    0    0  0.46735201588E+03 -0.22936352876E+03 -0.22491470327E+03  0.57504518048E+03  0.95209247343E+02 0.  0.
         23    2    4    4    0    0 -0.39253277099E+03  0.30643753467E+01 -0.41354885301E+02  0.40492594926E+03  0.90351708087E+02 0.  0.
         13    1    3    3    0    0 -0.15048383140E+02  0.14964749609E+03  0.47161374883E+03  0.49501550986E+03  0.00000000000E+00 0. -1.
        -13    1    3    3    0    0 -0.59770861751E+02  0.76651657330E+02  0.17325133713E+03  0.19865562742E+03  0.00000000000E+00 0.  1.
          4    1    5    5  502    0  0.27184046183E+02 -0.21317081181E+02  0.78189208625E+01  0.35419286278E+02  0.00000000000E+00 0. -1.
          1    1    6    6  503    0 -0.36422386957E+03 -0.59947539721E+01 -0.60933081158E+02  0.36933427220E+03  0.00000000000E+00 0. -1.
         -4    1    5    5    0  502  0.44016796969E+03 -0.20804644758E+03 -0.23273362413E+03  0.53962589421E+03  0.00000000000E+00 0.  1.
         -1    1    6    6    0  503 -0.28308901414E+02  0.90591293188E+01  0.19578195856E+02  0.35591677064E+02  0.00000000000E+00 0.  1.
<mgrwt>
<rscale>  0 0.16302588E+04</rscale>
<asrwt>0</asrwt>
<pdfrwt beam="1">  1        2 0.15786444E+00 0.16302588E+04</pdfrwt>
<pdfrwt beam="2">  1       -2 0.99618982E-01 0.16302588E+04</pdfrwt>
<totfact> 0.19331510E+01</totfact>
</mgrwt>
</event>
<event>
12    1  0.4820219E-008  0.1836409E+04  0.7818608E-02  0.8687174E-01
          1   -1    0    0  501    0  0.00000000000E+00  0.00000000000E+00  0.81358304064E+03  0.81358304064E+03  0.00000000000E+00 0. -1.
         -1   -1    0    0    0  501 -0.00000000000E+00 -0.00000000000E+00 -0.10362797466E+04  0.10362797466E+04  0.00000000000E+00 0.  1.
         23    2    1    2    0    0 -0.44981219529E+03 -0.49868852297E+03  0.68301518800E+02  0.68054751925E+03  0.86363039040E+02 0.  0.
        254    2    1    2    0    0  0.44981219529E+03  0.49868852297E+03 -0.29099822480E+03  0.11693152680E+04  0.91191939075E+03 0.  0.
         23    2    4    4    0    0 -0.12335547163E+03  0.48028148571E+03 -0.30343495765E+03  0.58836354093E+03  0.90620112917E+02 0.  0.
         23    2    4    4    0    0  0.57316766692E+03  0.18407037254E+02  0.12436732857E+02  0.58095172710E+03  0.92142517156E+02 0.  0.
         11    1    3    3    0    0 -0.33662077959E+03 -0.42105584889E+03  0.67543647784E+02  0.54328972150E+03  0.00000000000E+00 0. -1.
        -11    1    3    3    0    0 -0.11319141570E+03 -0.77632674078E+02  0.75787101620E+00  0.13725779775E+03  0.00000000000E+00 0.  1.
          2    1    5    5  502    0 -0.65268038766E+02  0.31717446729E+03 -0.14940974832E+03  0.35662702152E+03  0.00000000000E+00 0. -1.
          3    1    6    6  503    0  0.21072763298E+02 -0.52106908374E+01 -0.16994700806E+02  0.27568687083E+02  0.00000000000E+00 0. -1.
         -2    1    5    5    0  502 -0.58087432867E+02  0.16310701842E+03 -0.15402520934E+03  0.23173651941E+03  0.00000000000E+00 0.  1.
         -3    1    6    6    0  503  0.55209490363E+03  0.23617728092E+02  0.29431433662E+02  0.55338304002E+03  0.00000000000E+00 0.  1.
<mgrwt>
<rscale>  0 0.18364091E+04</rscale>
<asrwt>0</asrwt>
<pdfrwt beam="1">  1        1 0.12516662E+00 0.18364091E+04</pdfrwt>
<pdfrwt beam="2">  1       -1 0.15942765E+00 0.18364091E+04</pdfrwt>
<totfact> 0.59746308E+00</totfact>
</mgrwt>
</event>
<event>
12    1  0.4820219E-008  0.1903640E+04  0.7818608E-02  0.8653047E-01
          2   -1    0    0  501    0  0.00000000000E+00  0.00000000000E+00  0.13328634888E+04  0.13328634888E+04  0.00000000000E+00 0. -1.
         -2   -1    0    0    0  501 -0.00000000000E+00 -0.00000000000E+00 -0.67971065247E+03  0.67971065247E+03  0.00000000000E+00 0.  1.
         23    2    1    2    0    0 -0.67511360072E+03 -0.16284427677E+03  0.44482545101E+03  0.82904026142E+03  0.84507046090E+02 0.  0.
        254    2    1    2    0    0  0.67511360072E+03  0.16284427677E+03  0.20832738532E+03  0.11835338798E+04  0.93544401912E+03 0.  0.
         23    2    4    4    0    0  0.77247083679E+02  0.26530806301E+03 -0.27600240836E+03  0.40178992288E+03  0.94352172588E+02 0.  0.
         23    2    4    4    0    0  0.59786651704E+03 -0.10246378624E+03  0.48432979368E+03  0.78174395696E+03  0.92763492347E+02 0.  0.
         13    1    3    3    0    0 -0.63865451487E+02 -0.42176169206E+02  0.46798382176E+02  0.89709050362E+02  0.00000000000E+00 0.  1.
        -13    1    3    3    0    0 -0.61124814923E+03 -0.12066810757E+03  0.39802706883E+03  0.73933121106E+03  0.00000000000E+00 0. -1.
          1    1    5    5  502    0  0.88505788326E+02  0.14773558920E+03 -0.18445536004E+03  0.25235462891E+03  0.00000000000E+00 0. -1.
          3    1    6    6  503    0  0.49814687410E+03 -0.88680321902E+02  0.44446131270E+03  0.67346890511E+03  0.00000000000E+00 0. -1.
         -1    1    5    5    0  502 -0.11258704646E+02  0.11757247382E+03 -0.91547048316E+02  0.14943529397E+03  0.00000000000E+00 0.  1.
         -3    1    6    6    0  503  0.99719642940E+02 -0.13783464337E+02  0.39868480983E+02  0.10827505185E+03  0.00000000000E+00 0.  1.
<mgrwt>
<rscale>  0 0.19036402E+04</rscale>
<asrwt>0</asrwt>
<pdfrwt beam="1">  1        2 0.20505592E+00 0.19036402E+04</pdfrwt>
<pdfrwt beam="2">  1       -2 0.10457087E+00 0.19036402E+04</pdfrwt>
<totfact> 0.10997053E+01</totfact>
</mgrwt>
</event>
<event>
12    1  0.4820219E-008  0.2014976E+04  0.7818608E-02  0.8599651E-01
          2   -1    0    0  501    0  0.00000000000E+00  0.00000000000E+00  0.22934405751E+04  0.22934405751E+04  0.00000000000E+00 0. -1.
         -2   -1    0    0    0  501 -0.00000000000E+00 -0.00000000000E+00 -0.44258030589E+03  0.44258030589E+03  0.00000000000E+00 0.  1.
         23    2    1    2    0    0 -0.12937092099E+03 -0.63299718425E+03  0.13697381106E+04  0.15169924158E+04  0.87528437846E+02 0.  0.
        254    2    1    2    0    0  0.12937092099E+03  0.63299718425E+03  0.48112215861E+03  0.12190284652E+04  0.91494786573E+03 0.  0.
         23    2    4    4    0    0  0.47160755768E+03  0.59271442872E+03  0.30418591425E+03  0.82131612619E+03  0.91142889100E+02 0.  0.
         23    2    4    4    0    0 -0.34223663669E+03  0.40282755534E+02  0.17693624436E+03  0.39771233902E+03  0.90111343084E+02 0.  0.
         13    1    3    3    0    0 -0.94695986333E+02 -0.30620784506E+03  0.74715686667E+03  0.81300304896E+03  0.00000000000E+00 0.  1.
        -13    1    3    3    0    0 -0.34674934658E+02 -0.32678933919E+03  0.62258124395E+03  0.70398936684E+03  0.00000000000E+00 0. -1.
          2    1    5    5  502    0  0.40032777717E+03  0.49743823471E+03  0.29065374481E+03  0.70156020832E+03  0.00000000000E+00 0. -1.
          3    1    6    6  503    0 -0.27572667426E+03  0.57645609867E+02  0.16905342586E+03  0.32852286987E+03  0.00000000000E+00 0. -1.
         -2    1    5    5    0  502  0.71279780511E+02  0.95276194004E+02  0.13532169438E+02  0.11975591786E+03  0.00000000000E+00 0.  1.
         -3    1    6    6    0  503 -0.66509962435E+02 -0.17362854332E+02  0.78828185043E+01  0.69189469150E+02  0.00000000000E+00 0.  1.
<mgrwt>
<rscale>  0 0.20149756E+04</rscale>
<asrwt>0</asrwt>
<pdfrwt beam="1">  1        2 0.35283701E+00 0.20149756E+04</pdfrwt>
<pdfrwt beam="2">  1       -2 0.68089279E-01 0.20149756E+04</pdfrwt>
<totfact> 0.83791958E+00</totfact>
</mgrwt>
</event>
<event>
12    1  0.4820219E-008  0.1355412E+04  0.7818608E-02  0.8986742E-01
          2   -1    0    0  501    0  0.00000000000E+00  0.00000000000E+00  0.47362461524E+04  0.47362461524E+04  0.00000000000E+00 0. -1.
         -2   -1    0    0    0  501 -0.00000000000E+00 -0.00000000000E+00 -0.96972385254E+02  0.96972385254E+02  0.00000000000E+00 0.  1.
         23    2    1    2    0    0 -0.31147325576E+03 -0.16637211079E+02  0.60243680350E+03  0.68482533688E+03  0.93612253355E+02 0.  0.
        254    2    1    2    0    0  0.31147325576E+03  0.16637211079E+02  0.40368369636E+04  0.41483932008E+04  0.90322815021E+03 0.  0.
         23    2    4    4    0    0 -0.13966280131E+03  0.29356476046E+03  0.24477162359E+04  0.24708544079E+04  0.90115297127E+02 0.  0.
         23    2    4    4    0    0  0.45113605707E+03 -0.27692754938E+03  0.15891207277E+04  0.16775387929E+04  0.92839133665E+02 0.  0.
         13    1    3    3    0    0 -0.30940972701E+03 -0.51706213785E+00  0.57235591915E+03  0.65063503188E+03  0.00000000000E+00 0.  1.
        -13    1    3    3    0    0 -0.20635287441E+01 -0.16120148941E+02  0.30080884350E+02  0.34190305001E+02  0.00000000000E+00 0. -1.
          2    1    5    5  502    0 -0.14353500042E+03  0.27049732642E+03  0.23698109545E+04  0.23895135613E+04  0.00000000000E+00 0. -1.
          1    1    6    6  503    0  0.40663318378E+03 -0.22296424434E+03  0.13055589178E+04  0.13854774225E+04  0.00000000000E+00 0. -1.
         -2    1    5    5    0  502  0.38721991070E+01  0.23067434035E+02  0.77905281432E+02  0.81340846528E+02  0.00000000000E+00 0.  1.
         -1    1    6    6    0  503  0.44502873288E+02 -0.53963305035E+02  0.28356180991E+03  0.29206137037E+03  0.00000000000E+00 0.  1.
<mgrwt>
<rscale>  0 0.13554115E+04</rscale>
<asrwt>0</asrwt>
<pdfrwt beam="1">  1        2 0.72865308E+00 0.13554115E+04</pdfrwt>
<pdfrwt beam="2">  1       -2 0.14918832E-01 0.13554115E+04</pdfrwt>
<totfact> 0.25581216E+00</totfact>
</mgrwt>
</event>
<event>
12    1  0.4820219E-008  0.1371733E+04  0.7818608E-02  0.8974537E-01
         -2   -1    0    0    0  501 -0.00000000000E+00  0.00000000000E+00  0.41841098333E+03  0.41841098333E+03  0.00000000000E+00 0.  1.
          2   -1    0    0  501    0  0.00000000000E+00 -0.00000000000E+00 -0.11242847606E+04  0.11242847606E+04  0.00000000000E+00 0. -1.
         23    2    1    2    0    0 -0.14347576628E+03 -0.31868308503E+03 -0.27119731535E+02  0.36299383162E+03  0.94259417349E+02 0.  0.
        254    2    1    2    0    0  0.14347576628E+03  0.31868308503E+03 -0.67875404573E+03  0.11797019123E+04  0.89935829519E+03 0.  0.
         23    2    4    4    0    0 -0.11895075033E+02  0.57323944110E+03 -0.64289284548E+03  0.86605861943E+03  0.89450387829E+02 0.  0.
         23    2    4    4    0    0  0.15537084131E+03 -0.25455635607E+03 -0.35861200257E+02  0.31364329288E+03  0.90261025605E+02 0.  0.
         13    1    3    3    0    0 -0.10563618181E+03 -0.16143097569E+03 -0.50876083015E+02  0.19951776523E+03  0.00000000000E+00 0. -1.
        -13    1    3    3    0    0 -0.37839584465E+02 -0.15725210935E+03  0.23756351480E+02  0.16347606639E+03  0.00000000000E+00 0.  1.
          2    1    5    5  502    0  0.13144640103E+02  0.82424273407E+02 -0.13937495528E+03  0.16245590346E+03  0.00000000000E+00 0. -1.
          1    1    6    6  503    0  0.83137905977E+02 -0.70639041492E+02  0.13637163404E+02  0.10994433964E+03  0.00000000000E+00 0. -1.
         -2    1    5    5    0  502 -0.25039715136E+02  0.49081516769E+03 -0.50351789020E+03  0.70360271597E+03  0.00000000000E+00 0.  1.
         -1    1    6    6    0  503  0.72232935334E+02 -0.18391731457E+03 -0.49498363661E+02  0.20369895324E+03  0.00000000000E+00 0.  1.
<mgrwt>
<rscale>  0 0.13717333E+04</rscale>
<asrwt>0</asrwt>
<pdfrwt beam="1">  1        2 0.17296688E+00 0.13717333E+04</pdfrwt>
<pdfrwt beam="2">  1       -2 0.64370921E-01 0.13717333E+04</pdfrwt>
<totfact> 0.45768888E+01</totfact>
</mgrwt>
</event>
<event>
12    1  0.4820219E-008  0.1592276E+04  0.7818608E-02  0.8825307E-01
          2   -1    0    0  501    0  0.00000000000E+00  0.00000000000E+00  0.20066399354E+04  0.20066399354E+04  0.00000000000E+00 0. -1.
         -2   -1    0    0    0  501 -0.00000000000E+00 -0.00000000000E+00 -0.31586912569E+03  0.31586912569E+03  0.00000000000E+00 0.  1.
         23    2    1    2    0    0 -0.33072722162E+03 -0.32630716883E+03  0.96400513148E+03  0.10740652531E+04  0.91942431731E+02 0.  0.
        254    2    1    2    0    0  0.33072722162E+03  0.32630716883E+03  0.72676567824E+03  0.12484438080E+04  0.90253350476E+03 0.  0.
         23    2    4    4    0    0 -0.25965650685E+03  0.20306494936E+03  0.66561790229E+02  0.34967855193E+03  0.95852712780E+02 0.  0.
         23    2    4    4    0    0  0.59038372847E+03  0.12324221947E+03  0.66020388801E+03  0.89876525611E+03  0.90378207247E+02 0.  0.
         13    1    3    3    0    0 -0.27084369653E+03 -0.27783861841E+03  0.86944041048E+03  0.95209097948E+03  0.00000000000E+00 0.  1.
        -13    1    3    3    0    0 -0.59883525089E+02 -0.48468550416E+02  0.94564721002E+02  0.12197427358E+03  0.00000000000E+00 0. -1.
          4    1    5    5  502    0 -0.20517554508E+03  0.11706199226E+03  0.74158668507E+02  0.24758841339E+03  0.00000000000E+00 0. -1.
          1    1    6    6  503    0  0.45088090466E+03  0.13270343656E+03  0.51162164032E+03  0.69473771677E+03  0.00000000000E+00 0. -1.
         -4    1    5    5    0  502 -0.54480961776E+02  0.86002957109E+02 -0.75968782781E+01  0.10209013854E+03  0.00000000000E+00 0.  1.
         -1    1    6    6    0  503  0.13950282381E+03 -0.94612170912E+01  0.14858224770E+03  0.20402753934E+03  0.00000000000E+00 0.  1.
<mgrwt>
<rscale>  0 0.15922759E+04</rscale>
<asrwt>0</asrwt>
<pdfrwt beam="1">  1        2 0.30871383E+00 0.15922759E+04</pdfrwt>
<pdfrwt beam="2">  1       -2 0.48595251E-01 0.15922759E+04</pdfrwt>
<totfact> 0.25498190E+01</totfact>
</mgrwt>
</event>
<event>
12    1  0.4820219E-008  0.2182859E+04  0.7818608E-02  0.8525597E-01
          2   -1    0    0  501    0  0.00000000000E+00  0.00000000000E+00  0.14822513676E+04  0.14822513676E+04  0.00000000000E+00 0. -1.
         -2   -1    0    0    0  501 -0.00000000000E+00 -0.00000000000E+00 -0.80365488591E+03  0.80365488591E+03  0.00000000000E+00 0.  1.
         23    2    1    2    0    0  0.51953987655E+03  0.64078881766E+03 -0.10203387156E+03  0.83620711596E+03  0.91101249572E+02 0.  0.
        254    2    1    2    0    0 -0.51953987655E+03 -0.64078881766E+03  0.78063035321E+03  0.14496991375E+04  0.90095052517E+03 0.  0.
         23    2    4    4    0    0  0.83310955763E+01 -0.31716876786E+02 -0.17425552934E+03  0.19683348864E+03  0.85457973976E+02 0.  0.
         23    2    4    4    0    0 -0.52787097213E+03 -0.60907194087E+03  0.95488588255E+03  0.12528656489E+04  0.90823417046E+02 0.  0.
         13    1    3    3    0    0  0.39527232120E+02  0.24314161613E+02 -0.20219516530E+02  0.50620246767E+02  0.00000000000E+00 0. -1.
        -13    1    3    3    0    0  0.48001264443E+03  0.61647465604E+03 -0.81814355033E+02  0.78558686919E+03  0.00000000000E+00 0.  1.
          2    1    5    5  502    0 -0.55307674189E+01 -0.57944786132E+02 -0.13938769227E+03  0.15105335609E+03  0.00000000000E+00 0. -1.
          1    1    6    6  503    0 -0.49109240924E+03 -0.54432644275E+03  0.82951793474E+03  0.11070515050E+04  0.00000000000E+00 0. -1.
         -2    1    5    5    0  502  0.13861862995E+02  0.26227909346E+02 -0.34867837067E+02  0.45780132547E+02  0.00000000000E+00 0.  1.
         -1    1    6    6    0  503 -0.36778562890E+02 -0.64745498117E+02  0.12536794781E+03  0.14581414387E+03  0.00000000000E+00 0.  1.
<mgrwt>
<rscale>  0 0.21828592E+04</rscale>
<asrwt>0</asrwt>
<pdfrwt beam="1">  1        2 0.22803867E+00 0.21828592E+04</pdfrwt>
<pdfrwt beam="2">  1       -2 0.12363921E+00 0.21828592E+04</pdfrwt>
<totfact> 0.58611900E+00</totfact>
</mgrwt>
</event>
<event>
12    1  0.4820219E-008  0.1965793E+04  0.7818608E-02  0.8622783E-01
         -2   -1    0    0    0  501 -0.00000000000E+00  0.00000000000E+00  0.51000777127E+03  0.51000777127E+03  0.00000000000E+00 0.  1.
          2   -1    0    0  501    0  0.00000000000E+00 -0.00000000000E+00 -0.18942563591E+04  0.18942563591E+04  0.00000000000E+00 0. -1.
         23    2    1    2    0    0  0.75535860517E+03 -0.23587059385E+01 -0.42367844593E+03  0.87090253526E+03  0.91627585868E+02 0.  0.
        254    2    1    2    0    0 -0.75535860517E+03  0.23587059385E+01 -0.96057014194E+03  0.15333615951E+04  0.92624543074E+03 0.  0.
         23    2    4    4    0    0  0.19335940088E+03 -0.77590908614E+02 -0.27301176559E+03  0.35551187814E+03  0.91897031170E+02 0.  0.
         23    2    4    4    0    0 -0.94871800604E+03  0.79949614553E+02 -0.68755837635E+03  0.11778497170E+04  0.90197777666E+02 0.  0.
         11    1    3    3    0    0  0.47991000986E+03  0.88023664684E+01 -0.21921642815E+03  0.52768071937E+03  0.00000000000E+00 0. -1.
        -11    1    3    3    0    0  0.27544859530E+03 -0.11161072407E+02 -0.20446201779E+03  0.34322181590E+03  0.00000000000E+00 0.  1.
          2    1    5    5  502    0  0.95804970444E+02  0.81313409033E+01 -0.95017965698E+02  0.13517812276E+03  0.00000000000E+00 0.  1.
          1    1    6    6  503    0 -0.67236371400E+03  0.95791931965E+02 -0.47324248705E+03  0.82777261955E+03  0.00000000000E+00 0. -1.
         -2    1    5    5    0  502  0.97554430435E+02 -0.85722249517E+02 -0.17799379989E+03  0.22033375538E+03  0.00000000000E+00 0. -1.
         -1    1    6    6    0  503 -0.27635429205E+03 -0.15842317412E+02 -0.21431588930E+03  0.35007709745E+03  0.00000000000E+00 0.  1.
<mgrwt>
<rscale>  0 0.19657929E+04</rscale>
<asrwt>0</asrwt>
<pdfrwt beam="1">  1        2 0.29142404E+00 0.19657929E+04</pdfrwt>
<pdfrwt beam="2">  1       -2 0.78462737E-01 0.19657929E+04</pdfrwt>
<totfact> 0.10288771E+01</totfact>
</mgrwt>
</event>
<event>
12    1  0.4820219E-008  0.2066501E+04  0.7818608E-02  0.8576145E-01
         -1   -1    0    0    0  501 -0.00000000000E+00  0.00000000000E+00  0.63341103880E+03  0.63341103880E+03  0.00000000000E+00 0.  1.
          1   -1    0    0  501    0  0.00000000000E+00 -0.00000000000E+00 -0.16854871995E+04  0.16854871995E+04  0.00000000000E+00 0. -1.
         23    2    1    2    0    0  0.35513702632E+03 -0.53242256892E+03 -0.10398201414E+04  0.12244571287E+04  0.92050172587E+02 0.  0.
        254    2    1    2    0    0 -0.35513702632E+03  0.53242256892E+03 -0.12256019285E+02  0.10944411096E+04  0.88772463801E+03 0.  0.
         23    2    4    4    0    0 -0.57192061688E+03  0.44293114747E+03 -0.22976202885E+03  0.76463241253E+03  0.92687339889E+02 0.  0.
         23    2    4    4    0    0  0.21678359056E+03  0.89491421445E+02  0.21750600957E+03  0.32980869703E+03  0.80380798644E+02 0.  0.
         11    1    3    3    0    0  0.18884362693E+03 -0.33518808422E+03 -0.68684674630E+03  0.78725562566E+03  0.00000000000E+00 0. -1.
        -11    1    3    3    0    0  0.16629339938E+03 -0.19723448470E+03 -0.35297339513E+03  0.43720150308E+03  0.00000000000E+00 0.  1.
          1    1    5    5  502    0 -0.67843508737E+02  0.77706554035E+02 -0.60340027355E+02  0.11950719275E+03  0.00000000000E+00 0. -1.
          3    1    6    6  503    0  0.72305798583E+02  0.65323697330E+02  0.11647830791E+03  0.15186345892E+03  0.00000000000E+00 0. -1.
         -1    1    5    5    0  502 -0.50407710814E+03  0.36522459344E+03 -0.16942200150E+03  0.64512521978E+03  0.00000000000E+00 0.  1.
         -3    1    6    6    0  503  0.14447779198E+03  0.24167724115E+02  0.10102770165E+03  0.17794523811E+03  0.00000000000E+00 0.  1.
<mgrwt>
<rscale>  0 0.20665006E+04</rscale>
<asrwt>0</asrwt>
<pdfrwt beam="1">  1        1 0.25930572E+00 0.20665006E+04</pdfrwt>
<pdfrwt beam="2">  1       -1 0.97447852E-01 0.20665006E+04</pdfrwt>
<totfact> 0.45462586E+00</totfact>
</mgrwt>
</event>
<event>
12    1  0.4820219E-008  0.2271478E+04  0.7818608E-02  0.8489252E-01
          2   -1    0    0  501    0  0.00000000000E+00  0.00000000000E+00  0.19846203249E+04  0.19846203249E+04  0.00000000000E+00 0. -1.
         -2   -1    0    0    0  501 -0.00000000000E+00 -0.00000000000E+00 -0.64994971918E+03  0.64994971918E+03  0.00000000000E+00 0.  1.
         23    2    1    2    0    0 -0.63032423464E+03 -0.86254073829E+01 -0.26340367049E+03  0.68922856827E+03  0.90947717158E+02 0.  0.
        254    2    1    2    0    0  0.63032423464E+03  0.86254073829E+01  0.15980742762E+04  0.19453414758E+04  0.91275901902E+03 0.  0.
         23    2    4    4    0    0  0.19326210223E+02 -0.10626545544E+03 -0.74051829797E+02  0.15922149571E+03  0.90564682840E+02 0.  0.
         23    2    4    4    0    0  0.61099802442E+03  0.11489086282E+03  0.16721261060E+04  0.17861199801E+04  0.87751767612E+02 0.  0.
         13    1    3    3    0    0 -0.13891827340E+03 -0.19858730884E+02 -0.23540365310E+02  0.14229126703E+03  0.00000000000E+00 0. -1.
        -13    1    3    3    0    0 -0.49140596125E+03  0.11233323501E+02 -0.23986330518E+03  0.54693730123E+03  0.00000000000E+00 0.  1.
          4    1    5    5  502    0  0.43459291564E+01 -0.11115708352E+03 -0.85028640761E+02  0.14001662068E+03  0.00000000000E+00 0. -1.
          3    1    6    6  503    0  0.50510872114E+03  0.12644032080E+03  0.14177067344E+04  0.15103027378E+04  0.00000000000E+00 0. -1.
         -4    1    5    5    0  502  0.14980281067E+02  0.48916280747E+01  0.10976810964E+02  0.19204875032E+02  0.00000000000E+00 0.  1.
         -3    1    6    6    0  503  0.10588930328E+03 -0.11549457971E+02  0.25441937159E+03  0.27581724234E+03  0.00000000000E+00 0.  1.
<mgrwt>
<rscale>  0 0.22714783E+04</rscale>
<asrwt>0</asrwt>
<pdfrwt beam="1">  1        2 0.30532620E+00 0.22714783E+04</pdfrwt>
<pdfrwt beam="2">  1       -2 0.99992266E-01 0.22714783E+04</pdfrwt>
<totfact> 0.51155143E+00</totfact>
</mgrwt>
</event>
<event>
12    1  0.4820219E-008  0.2171401E+04  0.7818608E-02  0.8530427E-01
          2   -1    0    0  501    0  0.00000000000E+00  0.00000000000E+00  0.65723404110E+03  0.65723404110E+03  0.00000000000E+00 0. -1.
         -2   -1    0    0    0  501 -0.00000000000E+00 -0.00000000000E+00 -0.17934948657E+04  0.17934948657E+04  0.00000000000E+00 0.  1.
         23    2    1    2    0    0 -0.12368180637E+03  0.52838685198E+03 -0.12712207780E+04  0.13852403643E+04  0.91644672673E+02 0.  0.
        254    2    1    2    0    0  0.12368180637E+03 -0.52838685198E+03  0.13495995337E+03  0.10654885425E+04  0.90695192298E+03 0.  0.
         23    2    4    4    0    0 -0.27993394548E+03 -0.16885627285E+03 -0.22766326011E+03  0.40845615184E+03  0.90168804222E+02 0.  0.
         23    2    4    4    0    0  0.40361575185E+03 -0.35953057912E+03  0.36262321348E+03  0.65703239065E+03  0.89599413762E+02 0.  0.
         13    1    3    3    0    0  0.14097143221E+02  0.32922497523E+02 -0.94136010678E+02  0.10071846304E+03  0.00000000000E+00 0. -1.
        -13    1    3    3    0    0 -0.13777894959E+03  0.49546435445E+03 -0.11770847673E+04  0.12845219013E+04  0.00000000000E+00 0.  1.
          1    1    5    5  502    0 -0.22074568992E+03 -0.13621627863E+03 -0.22057299603E+03  0.34049373087E+03  0.00000000000E+00 0.  1.
          3    1    6    6  503    0  0.15085084666E+03 -0.11397241191E+03  0.79987593442E+02  0.20528931711E+03  0.00000000000E+00 0. -1.
         -1    1    5    5    0  502 -0.59188255558E+02 -0.32639994224E+02 -0.70902640781E+01  0.67962420966E+02  0.00000000000E+00 0. -1.
         -3    1    6    6    0  503  0.25276490519E+03 -0.24555816721E+03  0.28263562004E+03  0.45174307354E+03  0.00000000000E+00 0.  1.
<mgrwt>
<rscale>  0 0.21714013E+04</rscale>
<asrwt>0</asrwt>
<pdfrwt beam="1">  1        2 0.10111293E+00 0.21714013E+04</pdfrwt>
<pdfrwt beam="2">  1       -2 0.27592229E+00 0.21714013E+04</pdfrwt>
<totfact> 0.18122841E+00</totfact>
</mgrwt>
</event>
<event>
12    1  0.4820219E-008  0.1234133E+04  0.7818608E-02  0.9083494E-01
         -2   -1    0    0    0  501 -0.00000000000E+00  0.00000000000E+00  0.16370506464E+03  0.16370506464E+03  0.00000000000E+00 0.  1.
          2   -1    0    0  501    0  0.00000000000E+00 -0.00000000000E+00 -0.23259582055E+04  0.23259582055E+04  0.00000000000E+00 0. -1.
         23    2    1    2    0    0 -0.10255759045E+03 -0.32526703756E+02 -0.10473541616E+04  0.10571935155E+04  0.95558063113E+02 0.  0.
        254    2    1    2    0    0  0.10255759045E+03  0.32526703756E+02 -0.11148989792E+04  0.14324697547E+04  0.89296910271E+03 0.  0.
         23    2    4    4    0    0 -0.41588849797E+02 -0.38918017776E+03 -0.74047921512E+03  0.84257274257E+03  0.91806945841E+02 0.  0.
         23    2    4    4    0    0  0.14414644025E+03  0.42170688152E+03 -0.37441976413E+03  0.58989701213E+03  0.95778050710E+02 0.  0.
         11    1    3    3    0    0 -0.79353375144E+02 -0.54371451082E+02 -0.94765721466E+03  0.95252685491E+03  0.00000000000E+00 0. -1.
        -11    1    3    3    0    0 -0.23204215310E+02  0.21844747326E+02 -0.99696946975E+02  0.10466666055E+03  0.00000000000E+00 0.  1.
          2    1    5    5  502    0  0.62790938890E+01 -0.12027701116E+03 -0.31204813131E+03  0.33448471219E+03  0.00000000000E+00 0. -1.
          3    1    6    6  503    0  0.13000120942E+03  0.40001791266E+03 -0.31630090739E+03  0.52627075628E+03  0.00000000000E+00 0. -1.
         -2    1    5    5    0  502 -0.47867943686E+02 -0.26890316660E+03 -0.42843108381E+03  0.50808803038E+03  0.00000000000E+00 0.  1.
         -3    1    6    6    0  503  0.14145230832E+02  0.21688968853E+02 -0.58118856733E+02  0.63626255848E+02  0.00000000000E+00 0.  1.
<mgrwt>
<rscale>  0 0.12341331E+04</rscale>
<asrwt>0</asrwt>
<pdfrwt beam="1">  1        2 0.35783970E+00 0.12341331E+04</pdfrwt>
<pdfrwt beam="2">  1       -2 0.25185396E-01 0.12341331E+04</pdfrwt>
<totfact> 0.61303425E+01</totfact>
</mgrwt>
</event>
<event>
12    1  0.4820219E-008  0.1044523E+04  0.7818608E-02  0.9261017E-01
          1   -1    0    0  501    0  0.00000000000E+00  0.00000000000E+00  0.38733259029E+03  0.38733259029E+03  0.00000000000E+00 0. -1.
         -1   -1    0    0    0  501 -0.00000000000E+00 -0.00000000000E+00 -0.70419306894E+03  0.70419306894E+03  0.00000000000E+00 0.  1.
         23    2    1    2    0    0 -0.29808451044E+02  0.22258310128E+02  0.64414617227E+02  0.11515024557E+03  0.87899715696E+02 0.  0.
        254    2    1    2    0    0  0.29808451044E+02 -0.22258310128E+02 -0.38127509587E+03  0.97637541366E+03  0.89808366734E+03 0.  0.
         23    2    4    4    0    0 -0.23061962575E+03 -0.17994170469E+03  0.16391185825E+03  0.34677655490E+03  0.88444631758E+02 0.  0.
         23    2    4    4    0    0  0.26042807679E+03  0.15768339456E+03 -0.54518695413E+03  0.62959885875E+03  0.80492682205E+02 0.  0.
         11    1    3    3    0    0 -0.74505160161E+01 -0.38986584869E+01  0.77781681562E+02  0.78234900866E+02  0.00000000000E+00 0. -1.
        -11    1    3    3    0    0 -0.22357935028E+02  0.26156968615E+02 -0.13367064335E+02  0.36915344706E+02  0.00000000000E+00 0.  1.
          1    1    5    5  502    0 -0.20867252722E+03 -0.17962850329E+03  0.17050817103E+03  0.32385746742E+03  0.00000000000E+00 0. -1.
          3    1    6    6  503    0  0.20676323043E+03  0.10194704551E+03 -0.45991152071E+03  0.51445392449E+03  0.00000000000E+00 0. -1.
         -1    1    5    5    0  502 -0.21947098530E+02 -0.31320139733E+00 -0.65963127797E+01  0.22919087488E+02  0.00000000000E+00 0.  1.
         -3    1    6    6    0  503  0.53664846367E+02  0.55736349050E+02 -0.85275433420E+02  0.11514493426E+03  0.00000000000E+00 0.  1.
<mgrwt>
<rscale>  0 0.10445227E+04</rscale>
<asrwt>0</asrwt>
<pdfrwt beam="1">  1        1 0.59589629E-01 0.10445227E+04</pdfrwt>
<pdfrwt beam="2">  1       -1 0.10833740E+00 0.10445227E+04</pdfrwt>
<totfact> 0.49569487E+01</totfact>
</mgrwt>
</event>
<event>
12    1  0.4820219E-008  0.1221609E+04  0.7818608E-02  0.9094149E-01
          2   -1    0    0  501    0  0.00000000000E+00  0.00000000000E+00  0.15722567171E+04  0.15722567171E+04  0.00000000000E+00 0. -1.
         -2   -1    0    0    0  501 -0.00000000000E+00 -0.00000000000E+00 -0.23729096677E+03  0.23729096677E+03  0.00000000000E+00 0.  1.
         23    2    1    2    0    0 -0.11467440460E+03 -0.20962762081E+03  0.14876865715E+03  0.29609319319E+03  0.91897264496E+02 0.  0.
        254    2    1    2    0    0  0.11467440460E+03  0.20962762081E+03  0.11861970932E+04  0.15134544907E+04  0.90905830011E+03 0.  0.
         23    2    4    4    0    0  0.48819788520E+02  0.79446369263E+02 -0.13126130844E+03  0.18480926475E+03  0.90718443016E+02 0.  0.
         23    2    4    4    0    0  0.65854616083E+02  0.13018125155E+03  0.13174584016E+04  0.13286452259E+04  0.91200371027E+02 0.  0.
         11    1    3    3    0    0 -0.12512611818E+03 -0.15362076291E+03  0.10489959021E+03  0.22418699399E+03  0.00000000000E+00 0.  1.
        -11    1    3    3    0    0  0.10451713574E+02 -0.56006857896E+02  0.43869066946E+02  0.71906199195E+02  0.00000000000E+00 0. -1.
          1    1    5    5  502    0  0.65640908602E+02  0.22722388524E+02 -0.56968353054E+02  0.89835566854E+02  0.00000000000E+00 0. -1.
          3    1    6    6  503    0  0.25530505244E+02  0.41682852291E+02  0.83792666640E+03  0.83935115723E+03  0.00000000000E+00 0.  1.
         -1    1    5    5    0  502 -0.16821120082E+02  0.56723980739E+02 -0.74292955388E+02  0.94973697895E+02  0.00000000000E+00 0.  1.
         -3    1    6    6    0  503  0.40324110839E+02  0.88498399256E+02  0.47953173520E+03  0.48929406868E+03  0.00000000000E+00 0. -1.
<mgrwt>
<rscale>  0 0.12216093E+04</rscale>
<asrwt>0</asrwt>
<pdfrwt beam="1">  1        2 0.24188564E+00 0.12216093E+04</pdfrwt>
<pdfrwt beam="2">  1       -2 0.36506304E-01 0.12216093E+04</pdfrwt>
<totfact> 0.80425619E+01</totfact>
</mgrwt>
</event>
<event>
12    1  0.4820219E-008  0.1556628E+04  0.7818608E-02  0.8847645E-01
          2   -1    0    0  501    0  0.00000000000E+00  0.00000000000E+00  0.15210961345E+04  0.15210961345E+04  0.00000000000E+00 0. -1.
         -2   -1    0    0    0  501 -0.00000000000E+00 -0.00000000000E+00 -0.39824725136E+03  0.39824725136E+03  0.00000000000E+00 0.  1.
         23    2    1    2    0    0 -0.33434066773E+03 -0.37832481458E+03  0.48823112134E+03  0.70825651342E+03  0.91347214154E+02 0.  0.
        254    2    1    2    0    0  0.33434066773E+03  0.37832481458E+03  0.63461776183E+03  0.12110868725E+04  0.89948783295E+03 0.  0.
         23    2    4    4    0    0  0.57781206499E+03  0.34066629708E+03  0.66037468674E+03  0.94584119013E+03  0.92738997486E+02 0.  0.
         23    2    4    4    0    0 -0.24347139726E+03  0.37658517501E+02 -0.25756924907E+02  0.26524568234E+03  0.94843911754E+02 0.  0.
         13    1    3    3    0    0 -0.20981800787E+03 -0.25834099601E+03  0.37585975222E+03  0.50203009868E+03  0.00000000000E+00 0.  1.
        -13    1    3    3    0    0 -0.12452265986E+03 -0.11998381858E+03  0.11237136912E+03  0.20622641474E+03  0.00000000000E+00 0. -1.
          2    1    6    6  502    0 -0.41487004537E+02  0.36720037374E+02  0.18607083154E+02  0.58444471370E+02  0.00000000000E+00 0. -1.
          2    1    5    5  503    0  0.12023126320E+03  0.68359336497E+02  0.87211067913E+02  0.16350634821E+03  0.00000000000E+00 0. -1.
         -2    1    5    5    0  503  0.45758080178E+03  0.27230696058E+03  0.57316361883E+03  0.78233484193E+03  0.00000000000E+00 0.  1.
         -2    1    6    6    0  502 -0.20198439272E+03  0.93848012718E+00 -0.44364008061E+02  0.20680121097E+03  0.00000000000E+00 0.  1.
<mgrwt>
<rscale>  0 0.15566276E+04</rscale>
<asrwt>0</asrwt>
<pdfrwt beam="1">  1        2 0.23401479E+00 0.15566276E+04</pdfrwt>
<pdfrwt beam="2">  1       -2 0.61268809E-01 0.15566276E+04</pdfrwt>
<totfact> 0.29434199E+01</totfact>
</mgrwt>
</event>
<event>
12    1  0.4820219E-008  0.1246276E+04  0.7818608E-02  0.9073288E-01
          1   -1    0    0  501    0  0.00000000000E+00  0.00000000000E+00  0.37403547329E+03  0.37403547329E+03  0.00000000000E+00 0. -1.
         -1   -1    0    0    0  501 -0.00000000000E+00 -0.00000000000E+00 -0.10381400714E+04  0.10381400714E+04  0.00000000000E+00 0.  1.
         23    2    1    2    0    0 -0.27405156676E+03  0.36607855572E+02 -0.72938811399E+02  0.30016648023E+03  0.91298681886E+02 0.  0.
        254    2    1    2    0    0  0.27405156676E+03 -0.36607855572E+02 -0.59116578675E+03  0.11120090645E+04  0.90035702684E+03 0.  0.
         23    2    4    4    0    0  0.12322788949E+03  0.41778589277E+03 -0.20126790101E+03  0.48812884236E+03  0.89614919646E+02 0.  0.
         23    2    4    4    0    0  0.15082367727E+03 -0.45439374835E+03 -0.38989788574E+03  0.62388022213E+03  0.89357205117E+02 0.  0.
         13    1    3    3    0    0 -0.20381082986E+03  0.60713276547E+02 -0.76020065668E+02  0.22584066662E+03  0.00000000000E+00 0. -1.
        -13    1    3    3    0    0 -0.70240736902E+02 -0.24105420976E+02  0.30812542691E+01  0.74325813611E+02  0.00000000000E+00 0.  1.
          4    1    5    5  502    0  0.34793959485E+02  0.11883013452E+03 -0.14402217003E+02  0.12465409878E+03  0.00000000000E+00 0.  1.
          1    1    6    6  503    0  0.94560559661E+02 -0.26803916839E+03 -0.28604374617E+03  0.40324647545E+03  0.00000000000E+00 0. -1.
         -4    1    5    5    0  502  0.88433930006E+02  0.29895575825E+03 -0.18686568400E+03  0.36347474359E+03  0.00000000000E+00 0. -1.
         -1    1    6    6    0  503  0.56263117608E+02 -0.18635457995E+03 -0.10385413957E+03  0.22063374669E+03  0.00000000000E+00 0.  1.
<mgrwt>
<rscale>  0 0.12462764E+04</rscale>
<asrwt>0</asrwt>
<pdfrwt beam="1">  1        1 0.57543920E-01 0.12462764E+04</pdfrwt>
<pdfrwt beam="2">  1       -1 0.15971385E+00 0.12462764E+04</pdfrwt>
<totfact> 0.19005005E+01</totfact>
</mgrwt>
</event>
<event>
12    1  0.4820219E-008  0.3474801E+04  0.7818608E-02  0.8119788E-01
          2   -1    0    0  501    0  0.00000000000E+00  0.00000000000E+00  0.29468968435E+04  0.29468968435E+04  0.00000000000E+00 0. -1.
         -2   -1    0    0    0  501 -0.00000000000E+00 -0.00000000000E+00 -0.10243185318E+04  0.10243185318E+04  0.00000000000E+00 0.  1.
         23    2    1    2    0    0  0.87759775778E+03  0.95204442103E+03  0.20126097373E+04  0.23948400240E+04  0.89968784167E+02 0.  0.
        254    2    1    2    0    0 -0.87759775778E+03 -0.95204442103E+03 -0.90031425530E+02  0.15763753513E+04  0.89458771872E+03 0.  0.
         23    2    4    4    0    0 -0.97819768456E+02 -0.12439755818E+03  0.31641047103E+03  0.36546511865E+03  0.91682643921E+02 0.  0.
         23    2    4    4    0    0 -0.77977798932E+03 -0.82764686285E+03 -0.40644189656E+03  0.12109102326E+04  0.89752626670E+02 0.  0.
         11    1    3    3    0    0  0.81853716637E+03  0.85411607231E+03  0.18546677714E+04  0.21998431535E+04  0.00000000000E+00 0. -1.
        -11    1    3    3    0    0  0.59060591408E+02  0.97928348716E+02  0.15794196588E+03  0.19499687056E+03  0.00000000000E+00 0.  1.
          2    1    5    5  502    0 -0.85687954650E+02 -0.35169995799E+02  0.15151684481E+03  0.17758577769E+03  0.00000000000E+00 0. -1.
          1    1    6    6  503    0 -0.17718693110E+03 -0.23759715314E+03 -0.12694294473E+03  0.32243158491E+03  0.00000000000E+00 0. -1.
         -2    1    5    5    0  502 -0.12131813806E+02 -0.89227562381E+02  0.16489362621E+03  0.18787934096E+03  0.00000000000E+00 0.  1.
         -1    1    6    6    0  503 -0.60259105822E+03 -0.59004970971E+03 -0.27949895183E+03  0.88847864772E+03  0.00000000000E+00 0.  1.
<mgrwt>
<rscale>  0 0.34748013E+04</rscale>
<asrwt>0</asrwt>
<pdfrwt beam="1">  1        2 0.45336874E+00 0.34748013E+04</pdfrwt>
<pdfrwt beam="2">  1       -2 0.15758747E+00 0.34748013E+04</pdfrwt>
<totfact> 0.40594990E-01</totfact>
</mgrwt>
</event>
<event>
12    1  0.4820219E-008  0.2193421E+04  0.7818608E-02  0.8521171E-01
          2   -1    0    0  501    0  0.00000000000E+00  0.00000000000E+00  0.21657394373E+04  0.21657394373E+04  0.00000000000E+00 0. -1.
         -2   -1    0    0    0  501 -0.00000000000E+00 -0.00000000000E+00 -0.55536416036E+03  0.55536416036E+03  0.00000000000E+00 0.  1.
         23    2    1    2    0    0  0.86802595755E+03 -0.11393088218E+03  0.36532256560E+03  0.95315882642E+03  0.92746226600E+02 0.  0.
        254    2    1    2    0    0 -0.86802595755E+03  0.11393088218E+03  0.12450527113E+04  0.17679447712E+04  0.89945714252E+03 0.  0.
         23    2    4    4    0    0 -0.95326922571E+03 -0.11046417957E+03  0.79380236198E+03  0.12486589422E+04  0.90013401741E+02 0.  0.
         23    2    4    4    0    0  0.85243268152E+02  0.22439506175E+03  0.45125034934E+03  0.51928582899E+03  0.91713335480E+02 0.  0.
         11    1    3    3    0    0  0.10948575222E+03  0.59147189620E+01  0.21399913985E+02  0.11171423436E+03  0.00000000000E+00 0. -1.
        -11    1    3    3    0    0  0.75854020534E+03 -0.11984560114E+03  0.34392265161E+03  0.84144459206E+03  0.00000000000E+00 0.  1.
          2    1    5    5  502    0 -0.77890774795E+03 -0.12500871195E+03  0.64675514780E+03  0.10201062097E+04  0.00000000000E+00 0. -1.
          1    1    6    6  503    0  0.69631812970E+02  0.21236914729E+03  0.34390191470E+03  0.41014359806E+03  0.00000000000E+00 0. -1.
         -2    1    5    5    0  502 -0.17436147776E+03  0.14544532380E+02  0.14704721418E+03  0.22855273253E+03  0.00000000000E+00 0.  1.
         -1    1    6    6    0  503  0.15611455182E+02  0.12025914462E+02  0.10734843464E+03  0.10914223093E+03  0.00000000000E+00 0.  1.
<mgrwt>
<rscale>  0 0.21934211E+04</rscale>
<asrwt>0</asrwt>
<pdfrwt beam="1">  1        2 0.33319068E+00 0.21934211E+04</pdfrwt>
<pdfrwt beam="2">  1       -2 0.85440641E-01 0.21934211E+04</pdfrwt>
<totfact> 0.58778207E+00</totfact>
</mgrwt>
</event>
<event>
12    1  0.4820219E-008  0.2113247E+04  0.7818608E-02  0.8555430E-01
          2   -1    0    0  501    0  0.00000000000E+00  0.00000000000E+00  0.64052920085E+03  0.64052920085E+03  0.00000000000E+00 0. -1.
         -2   -1    0    0    0  501 -0.00000000000E+00 -0.00000000000E+00 -0.17430166158E+04  0.17430166158E+04  0.00000000000E+00 0.  1.
         23    2    1    2    0    0 -0.65616331558E+03 -0.24742279275E+02 -0.10737978464E+04  0.12619028336E+04  0.90523309195E+02 0.  0.
        254    2    1    2    0    0  0.65616331558E+03  0.24742279275E+02 -0.28689568516E+02  0.11216429830E+04  0.90889901135E+03 0.  0.
         23    2    4    4    0    0 -0.71698497856E+02 -0.12218260100E+03  0.26849515876E+03  0.31708372767E+03  0.91559693619E+02 0.  0.
         23    2    4    4    0    0  0.72786181343E+03  0.14692488027E+03 -0.29718472728E+03  0.80455925531E+03  0.87333231208E+02 0.  0.
         11    1    3    3    0    0 -0.10360116860E+03 -0.14110797408E+02 -0.23741307655E+03  0.25941720385E+03  0.00000000000E+00 0. -1.
        -11    1    3    3    0    0 -0.55256214698E+03 -0.10631481867E+02 -0.83638476985E+03  0.10024856298E+04  0.00000000000E+00 0.  1.
          2    1    5    5  502    0 -0.11928025001E+02  0.31095615475E+01  0.90601683756E+02  0.91436383639E+02  0.00000000000E+00 0. -1.
          3    1    6    6  503    0  0.27040372024E+02 -0.10517139004E+01  0.43415015844E+01  0.27406868798E+02  0.00000000000E+00 0. -1.
         -2    1    5    5    0  502 -0.59770472855E+02 -0.12529216254E+03  0.17789347501E+03  0.22564734403E+03  0.00000000000E+00 0.  1.
         -3    1    6    6    0  503  0.70082144141E+03  0.14797659417E+03 -0.30152622886E+03  0.77715238651E+03  0.00000000000E+00 0.  1.
<mgrwt>
<rscale>  0 0.21132468E+04</rscale>
<asrwt>0</asrwt>
<pdfrwt beam="1">  1        2 0.98542956E-01 0.21132468E+04</pdfrwt>
<pdfrwt beam="2">  1       -2 0.26815640E+00 0.21132468E+04</pdfrwt>
<totfact> 0.20966562E+00</totfact>
</mgrwt>
</event>
<event>
12    1  0.4820219E-008  0.3096714E+04  0.7818608E-02  0.8216640E-01
         -2   -1    0    0    0  501 -0.00000000000E+00  0.00000000000E+00  0.70731436704E+03  0.70731436704E+03  0.00000000000E+00 0.  1.
          2   -1    0    0  501    0  0.00000000000E+00 -0.00000000000E+00 -0.33894537577E+04  0.33894537577E+04  0.00000000000E+00 0. -1.
         23    2    1    2    0    0  0.74605763307E+03  0.57776086905E+03 -0.26238771153E+04  0.27898856410E+04  0.91220392626E+02 0.  0.
        254    2    1    2    0    0 -0.74605763307E+03 -0.57776086905E+03 -0.58262275338E+02  0.13068824837E+04  0.90229580508E+03 0.  0.
         23    2    4    4    0    0 -0.92267327780E+03 -0.38221804989E+03  0.58898124386E+02  0.10044254476E+04  0.89358130785E+02 0.  0.
         23    2    4    4    0    0  0.17661564472E+03 -0.19554281916E+03 -0.11716039972E+03  0.30245703611E+03  0.91233871683E+02 0.  0.
         13    1    3    3    0    0  0.77953688826E+02  0.81401142769E+02 -0.24706661291E+03  0.27156000232E+03  0.00000000000E+00 0.  1.
        -13    1    3    3    0    0  0.66810394425E+03  0.49635972628E+03 -0.23768105024E+04  0.25183256387E+04  0.00000000000E+00 0. -1.
          2    1    6    6  502    0  0.34458617250E+02 -0.35028219373E+02 -0.65544460956E+02  0.81917329163E+02  0.00000000000E+00 0. -1.
          2    1    5    5  503    0 -0.32354782273E+03 -0.16989686659E+03  0.49006598864E+02  0.36871369055E+03  0.00000000000E+00 0. -1.
         -2    1    5    5    0  503 -0.59912545506E+03 -0.21232118330E+03  0.98915255218E+01  0.63571175706E+03  0.00000000000E+00 0.  1.
         -2    1    6    6    0  502  0.14215702747E+03 -0.16051459979E+03 -0.51615938768E+02  0.22053970695E+03  0.00000000000E+00 0.  1.
<mgrwt>
<rscale>  0 0.30967140E+04</rscale>
<asrwt>0</asrwt>
<pdfrwt beam="1">  1        2 0.52145442E+00 0.30967140E+04</pdfrwt>
<pdfrwt beam="2">  1       -2 0.10881760E+00 0.30967140E+04</pdfrwt>
<totfact> 0.55465472E-01</totfact>
</mgrwt>
</event>
<event>
12    1  0.4820219E-008  0.1672825E+04  0.7818608E-02  0.8777017E-01
          2   -1    0    0  501    0  0.00000000000E+00  0.00000000000E+00  0.13188598498E+04  0.13188598498E+04  0.00000000000E+00 0. -1.
         -2   -1    0    0    0  501 -0.00000000000E+00 -0.00000000000E+00 -0.53044773833E+03  0.53044773833E+03  0.00000000000E+00 0.  1.
         23    2    1    2    0    0  0.33856339925E+03 -0.14331654181E+03 -0.24734243062E+03  0.45229699830E+03  0.90716537724E+02 0.  0.
        254    2    1    2    0    0 -0.33856339925E+03  0.14331654181E+03  0.10357545421E+04  0.13970105898E+04  0.86237248922E+03 0.  0.
         23    2    4    4    0    0  0.24483913147E+02 -0.26427896224E+03  0.68847971049E+03  0.74361117638E+03  0.92252035148E+02 0.  0.
         23    2    4    4    0    0 -0.36304731240E+03  0.40759550405E+03  0.34727483161E+03  0.65339941346E+03  0.91616258820E+02 0.  0.
         11    1    3    3    0    0  0.23224677360E+03 -0.13555778947E+03 -0.20258586178E+03  0.33668309956E+03  0.00000000000E+00 0.  1.
        -11    1    3    3    0    0  0.10631662565E+03 -0.77587523316E+01 -0.44756568841E+02  0.11561389874E+03  0.00000000000E+00 0. -1.
          4    1    5    5  502    0  0.46458063245E+02 -0.25086509436E+03  0.63118207860E+03  0.68079546382E+03  0.00000000000E+00 0. -1.
          3    1    6    6  503    0 -0.19890314052E+03  0.15837849812E+03  0.14231055331E+03  0.29137347436E+03  0.00000000000E+00 0. -1.
         -4    1    5    5    0  502 -0.21974150099E+02 -0.13413867885E+02  0.57297631889E+02  0.62815712559E+02  0.00000000000E+00 0.  1.
         -3    1    6    6    0  503 -0.16414417188E+03  0.24921700592E+03  0.20496427829E+03  0.36202593910E+03  0.00000000000E+00 0.  1.
<mgrwt>
<rscale>  0 0.16728254E+04</rscale>
<asrwt>0</asrwt>
<pdfrwt beam="1">  1        2 0.20290151E+00 0.16728254E+04</pdfrwt>
<pdfrwt beam="2">  1       -2 0.81607345E-01 0.16728254E+04</pdfrwt>
<totfact> 0.20314900E+01</totfact>
</mgrwt>
</event>
<event>
12    1  0.4820219E-008  0.2935611E+04  0.7818608E-02  0.8262360E-01
          2   -1    0    0  501    0  0.00000000000E+00  0.00000000000E+00  0.17981433405E+04  0.17981433405E+04  0.00000000000E+00 0. -1.
         -2   -1    0    0    0  501 -0.00000000000E+00 -0.00000000000E+00 -0.11981541271E+04  0.11981541271E+04  0.00000000000E+00 0.  1.
         23    2    1    2    0    0 -0.72512902037E+03 -0.95867142443E+03  0.83797314151E+03  0.14671995495E+04  0.74916860355E+02 0.  0.
        254    2    1    2    0    0  0.72512902037E+03  0.95867142443E+03 -0.23798392817E+03  0.15290979181E+04  0.91468087163E+03 0.  0.
         23    2    4    4    0    0  0.32610820255E+03 -0.41162120894E+02 -0.28814759086E+03  0.44750381843E+03  0.95863201613E+02 0.  0.
         23    2    4    4    0    0  0.39902081783E+03  0.99983354533E+03  0.50163662695E+02  0.10815940997E+04  0.91894896592E+02 0.  0.
         13    1    3    3    0    0 -0.35707630793E+02 -0.24538947104E+02  0.32314017784E+02  0.54049889613E+02  0.00000000000E+00 0. -1.
        -13    1    3    3    0    0 -0.68942138958E+03 -0.93413247733E+03  0.80565912372E+03  0.14131496599E+04  0.00000000000E+00 0.  1.
          4    1    5    5  502    0  0.15734950356E+03 -0.58432445978E+01 -0.78121395929E+02  0.17577247304E+03  0.00000000000E+00 0. -1.
          1    1    6    6  503    0  0.79632269280E+02  0.26981862134E+03  0.44002485502E+02  0.28474480761E+03  0.00000000000E+00 0. -1.
         -4    1    5    5    0  502  0.16875869899E+03 -0.35318876297E+02 -0.21002619493E+03  0.27173134539E+03  0.00000000000E+00 0.  1.
         -1    1    6    6    0  503  0.31938854855E+03  0.73001492399E+03  0.61611771932E+01  0.79684929208E+03  0.00000000000E+00 0.  1.
<mgrwt>
<rscale>  0 0.29356109E+04</rscale>
<asrwt>0</asrwt>
<pdfrwt beam="1">  1        2 0.27663744E+00 0.29356109E+04</pdfrwt>
<pdfrwt beam="2">  1       -2 0.18433140E+00 0.29356109E+04</pdfrwt>
<totfact> 0.12604359E+00</totfact>
</mgrwt>
</event>
<event>
12    1  0.4820219E-008  0.1520789E+04  0.7818608E-02  0.8870745E-01
         -1   -1    0    0    0  501 -0.00000000000E+00  0.00000000000E+00  0.59834180438E+03  0.59834180438E+03  0.00000000000E+00 0.  1.
          1   -1    0    0  501    0  0.00000000000E+00 -0.00000000000E+00 -0.96633714087E+03  0.96633714087E+03  0.00000000000E+00 0. -1.
         23    2    1    2    0    0 -0.34173482987E+02 -0.42465284226E+03 -0.36503626637E+03  0.56733972738E+03  0.84409875756E+02 0.  0.
        254    2    1    2    0    0  0.34173482987E+02  0.42465284226E+03 -0.29590701256E+01  0.99733921787E+03  0.90176432399E+03 0.  0.
         23    2    4    4    0    0 -0.64620583775E+02  0.16152820810E+03  0.42929998141E+03  0.47371024261E+03  0.99175289526E+02 0.  0.
         23    2    4    4    0    0  0.98794066762E+02  0.26312463416E+03 -0.43225905154E+03  0.52362897526E+03  0.91348647324E+02 0.  0.
         11    1    3    3    0    0  0.28318516955E+01 -0.30926814675E+03 -0.22688832979E+03  0.38357935316E+03  0.00000000000E+00 0. -1.
        -11    1    3    3    0    0 -0.37005334683E+02 -0.11538469551E+03 -0.13814793658E+03  0.18376037422E+03  0.00000000000E+00 0.  1.
          3    1    6    6  502    0  0.96581107553E+02  0.22128945522E+03 -0.30115351181E+03  0.38599270848E+03  0.00000000000E+00 0. -1.
          3    1    5    5  503    0 -0.38769394842E+02  0.92865593208E+02  0.35619654157E+03  0.37013924488E+03  0.00000000000E+00 0. -1.
         -3    1    5    5    0  503 -0.25851188934E+02  0.68662614887E+02  0.73103439846E+02  0.10357099773E+03  0.00000000000E+00 0.  1.
         -3    1    6    6    0  502  0.22129592092E+01  0.41835178946E+02 -0.13110553973E+03  0.13763626678E+03  0.00000000000E+00 0.  1.
<mgrwt>
<rscale>  0 0.15207891E+04</rscale>
<asrwt>0</asrwt>
<pdfrwt beam="1">  1        1 0.14866725E+00 0.15207891E+04</pdfrwt>
<pdfrwt beam="2">  1       -1 0.92052586E-01 0.15207891E+04</pdfrwt>
<totfact> 0.17852872E+01</totfact>
</mgrwt>
</event>
<event>
12    1  0.4820219E-008  0.1838207E+04  0.7818608E-02  0.8686241E-01
         -2   -1    0    0    0  501 -0.00000000000E+00  0.00000000000E+00  0.13800350689E+04  0.13800350689E+04  0.00000000000E+00 0.  1.
          2   -1    0    0  501    0  0.00000000000E+00 -0.00000000000E+00 -0.61212332764E+03  0.61212332764E+03  0.00000000000E+00 0. -1.
         23    2    1    2    0    0 -0.23883836191E+03 -0.17074442386E+03  0.97879860089E+03  0.10258646008E+04  0.90299815984E+02 0.  0.
        254    2    1    2    0    0  0.23883836191E+03  0.17074442386E+03 -0.21088685960E+03  0.96629379573E+03  0.89613225068E+03 0.  0.
         23    2    4    4    0    0  0.67338640627E+02  0.14413457269E+03 -0.54738756364E+03  0.57669442887E+03  0.87373061609E+02 0.  0.
         23    2    4    4    0    0  0.17149972128E+03  0.26609851163E+02  0.33650070404E+03  0.38959936686E+03  0.91840646006E+02 0.  0.
         11    1    3    3    0    0 -0.32290368964E+02 -0.65398495962E+01  0.46801666688E+02  0.57234898143E+02  0.00000000000E+00 0. -1.
        -11    1    3    3    0    0 -0.20654799294E+03 -0.16420457426E+03  0.93199693420E+03  0.96862970270E+03  0.00000000000E+00 0.  1.
          4    1    5    5  502    0  0.25480946722E+00 -0.11328742938E+02 -0.50313499816E+02  0.51573768606E+02  0.00000000000E+00 0.  1.
          1    1    6    6  503    0 -0.73285237149E+01  0.95166100410E+00  0.52429204486E+02  0.52947468320E+02  0.00000000000E+00 0. -1.
         -4    1    5    5    0  502  0.67083831160E+02  0.15546331563E+03 -0.49707406382E+03  0.52512066026E+03  0.00000000000E+00 0. -1.
         -1    1    6    6    0  503  0.17882824500E+03  0.25658190159E+02  0.28407149955E+03  0.33665189854E+03  0.00000000000E+00 0.  1.
<mgrwt>
<rscale>  0 0.18382075E+04</rscale>
<asrwt>0</asrwt>
<pdfrwt beam="1">  1        2 0.94172820E-01 0.18382075E+04</pdfrwt>
<pdfrwt beam="2">  1       -2 0.21231309E+00 0.18382075E+04</pdfrwt>
<totfact> 0.50374290E+00</totfact>
</mgrwt>
</event>
<event>
12    1  0.4820219E-008  0.1552208E+04  0.7818608E-02  0.8850459E-01
          1   -1    0    0  501    0  0.00000000000E+00  0.00000000000E+00  0.17070557683E+04  0.17070557683E+04  0.00000000000E+00 0. -1.
         -1   -1    0    0    0  501 -0.00000000000E+00 -0.00000000000E+00 -0.35285143887E+03  0.35285143887E+03  0.00000000000E+00 0.  1.
         23    2    1    2    0    0  0.35130465191E+03 -0.30420298755E+03  0.17528889915E+03  0.50492466258E+03  0.90930196462E+02 0.  0.
        254    2    1    2    0    0 -0.35130465191E+03  0.30420298755E+03  0.11789154303E+04  0.15549825446E+04  0.90120736025E+03 0.  0.
         23    2    4    4    0    0  0.16670212724E+03  0.32621196729E+03  0.16450426582E+03  0.41215885422E+03  0.92786964690E+02 0.  0.
         23    2    4    4    0    0 -0.51800677915E+03 -0.22008979737E+02  0.10144111645E+04  0.11428236904E+04  0.90556933791E+02 0.  0.
         13    1    3    3    0    0  0.13332808743E+02  0.54229477776E+01  0.60264713286E+00  0.14406086739E+02  0.00000000000E+00 0.  1.
        -13    1    3    3    0    0  0.33797184317E+03 -0.30962593533E+03  0.17468625202E+03  0.49051857584E+03  0.00000000000E+00 0. -1.
          1    1    5    5  502    0  0.17003868700E+03  0.26034278674E+03  0.12402745423E+03  0.33477504549E+03  0.00000000000E+00 0. -1.
          3    1    6    6  503    0 -0.34143099638E+03  0.26541125845E+02  0.63179775233E+03  0.71864313571E+03  0.00000000000E+00 0. -1.
         -1    1    5    5    0  502 -0.33365597598E+01  0.65869180547E+02  0.40476811593E+02  0.77383808731E+02  0.00000000000E+00 0.  1.
         -3    1    6    6    0  503 -0.17657578277E+03 -0.48550105582E+02  0.38261341214E+03  0.42418055467E+03  0.00000000000E+00 0.  1.
<mgrwt>
<rscale>  0 0.15522076E+04</rscale>
<asrwt>0</asrwt>
<pdfrwt beam="1">  1        1 0.26262396E+00 0.15522076E+04</pdfrwt>
<pdfrwt beam="2">  1       -1 0.54284838E-01 0.15522076E+04</pdfrwt>
<totfact> 0.15560559E+01</totfact>
</mgrwt>
</event>
<event>
12    1  0.4820219E-008  0.1753812E+04  0.7818608E-02  0.8731255E-01
          2   -1    0    0  501    0  0.00000000000E+00  0.00000000000E+00  0.23362403692E+04  0.23362403692E+04  0.00000000000E+00 0. -1.
         -2   -1    0    0    0  501 -0.00000000000E+00 -0.00000000000E+00 -0.32914603091E+03  0.32914603091E+03  0.00000000000E+00 0.  1.
         23    2    1    2    0    0 -0.44409966002E+03 -0.84661868862E+01  0.14386555829E+04  0.15084096357E+04  0.90959103746E+02 0.  0.
        254    2    1    2    0    0  0.44409966002E+03  0.84661868862E+01  0.56843875534E+03  0.11569767643E+04  0.90453105547E+03 0.  0.
         23    2    4    4    0    0  0.46031969851E+03 -0.35850886582E+03  0.49599696089E+03  0.77168982468E+03  0.95233232628E+02 0.  0.
         23    2    4    4    0    0 -0.16220038489E+02  0.36697505270E+03  0.72441794452E+02  0.38528693966E+03  0.90908928813E+02 0.  0.
         13    1    3    3    0    0 -0.16617703212E+03 -0.25985766784E+02  0.42141324983E+03  0.45373912462E+03  0.00000000000E+00 0.  1.
        -13    1    3    3    0    0 -0.27792262790E+03  0.17519579898E+02  0.10172423331E+04  0.10546705111E+04  0.00000000000E+00 0. -1.
          1    1    6    6  502    0  0.18383392609E+02  0.31540836851E+03  0.66817963171E+02  0.32293192511E+03  0.00000000000E+00 0. -1.
          1    1    5    5  503    0  0.43970104485E+03 -0.36149582412E+03  0.48648055948E+03  0.74878539947E+03  0.00000000000E+00 0. -1.
         -1    1    5    5    0  503  0.20618653658E+02  0.29869583071E+01  0.95164014156E+01  0.22904425217E+02  0.00000000000E+00 0.  1.
         -1    1    6    6    0  502 -0.34603431098E+02  0.51566684191E+02  0.56238312812E+01  0.62355014557E+02  0.00000000000E+00 0.  1.
<mgrwt>
<rscale>  0 0.17538121E+04</rscale>
<asrwt>0</asrwt>
<pdfrwt beam="1">  1        2 0.35942158E+00 0.17538121E+04</pdfrwt>
<pdfrwt beam="2">  1       -2 0.50637852E-01 0.17538121E+04</pdfrwt>
<totfact> 0.15117552E+01</totfact>
</mgrwt>
</event>
<event>
12    1  0.4820219E-008  0.1457481E+04  0.7818608E-02  0.8913230E-01
          2   -1    0    0  501    0  0.00000000000E+00  0.00000000000E+00  0.25842899290E+04  0.25842899290E+04  0.00000000000E+00 0. -1.
         -2   -1    0    0    0  501 -0.00000000000E+00 -0.00000000000E+00 -0.20549669638E+03  0.20549669638E+03  0.00000000000E+00 0.  1.
         23    2    1    2    0    0  0.23165953231E+03  0.37942140757E+03  0.76701023724E+03  0.89127142105E+03  0.91832992465E+02 0.  0.
        254    2    1    2    0    0 -0.23165953231E+03 -0.37942140757E+03  0.16117829954E+04  0.18985152043E+04  0.89938246229E+03 0.  0.
         23    2    4    4    0    0 -0.99389419598E+02  0.28235256303E+03  0.38951237762E+03  0.49938217973E+03  0.89785536383E+02 0.  0.
         23    2    4    4    0    0 -0.13227011271E+03 -0.66177397060E+03  0.12222706178E+04  0.13991330246E+04  0.90485283971E+02 0.  0.
         11    1    3    3    0    0  0.21105671522E+03  0.37488488820E+03  0.70639333277E+03  0.82708836108E+03  0.00000000000E+00 0. -1.
        -11    1    3    3    0    0  0.20602817087E+02  0.45365193771E+01  0.60616904468E+02  0.64183059972E+02  0.00000000000E+00 0.  1.
          1    1    5    5  502    0 -0.85592820547E+02  0.11775779430E+03  0.20902476225E+03  0.25472412583E+03  0.00000000000E+00 0. -1.
          1    1    6    6  503    0 -0.11884174647E+03 -0.65521055310E+03  0.11979418069E+04  0.13705797322E+04  0.00000000000E+00 0. -1.
         -1    1    5    5    0  502 -0.13796599051E+02  0.16459476873E+03  0.18048761537E+03  0.24465805390E+03  0.00000000000E+00 0.  1.
         -1    1    6    6    0  503 -0.13428366245E+02 -0.65634175028E+01  0.24328810864E+02  0.28553292408E+02  0.00000000000E+00 0.  1.
<mgrwt>
<rscale>  0 0.14574814E+04</rscale>
<asrwt>0</asrwt>
<pdfrwt beam="1">  1        2 0.39758304E+00 0.14574814E+04</pdfrwt>
<pdfrwt beam="2">  1       -2 0.31614878E-01 0.14574814E+04</pdfrwt>
<totfact> 0.28109021E+01</totfact>
</mgrwt>
</event>
<event>
12    1  0.4820219E-008  0.1130891E+04  0.7818608E-02  0.9175596E-01
         -2   -1    0    0    0  501 -0.00000000000E+00  0.00000000000E+00  0.39383486575E+03  0.39383486575E+03  0.00000000000E+00 0. -1.
          2   -1    0    0  501    0  0.00000000000E+00 -0.00000000000E+00 -0.81183381652E+03  0.81183381652E+03  0.00000000000E+00 0.  1.
         23    2    1    2    0    0 -0.11167216485E+03 -0.13718345830E+03 -0.80824352548E+02  0.21390183539E+03  0.89058663717E+02 0.  0.
        254    2    1    2    0    0  0.11167216485E+03  0.13718345830E+03 -0.33717459823E+03  0.99176684688E+03  0.91576459598E+03 0.  0.
         23    2    4    4    0    0 -0.26126393318E+03 -0.25309849103E+03 -0.21062795205E+03  0.42996140694E+03  0.90470925313E+02 0.  0.
         23    2    4    4    0    0  0.37293609803E+03  0.39028194934E+03 -0.12654664618E+03  0.56180543994E+03  0.90608859949E+02 0.  0.
         11    1    3    3    0    0 -0.10410095096E+03 -0.14792856271E+03 -0.62559757163E+02  0.19139903571E+03  0.00000000000E+00 0. -1.
        -11    1    3    3    0    0 -0.75712138946E+01  0.10745104408E+02 -0.18264595385E+02  0.22502799674E+02  0.00000000000E+00 0.  1.
          1    1    5    5  502    0 -0.24254560485E+03 -0.22215488167E+03 -0.15497687162E+03  0.36359179394E+03  0.00000000000E+00 0. -1.
          3    1    6    6  503    0  0.23802712046E+03  0.18405759322E+03 -0.73205754652E+02  0.30966625617E+03  0.00000000000E+00 0. -1.
         -1    1    5    5    0  502 -0.18718328321E+02 -0.30943609365E+02 -0.55651080438E+02  0.66369612999E+02  0.00000000000E+00 0.  1.
         -3    1    6    6    0  503  0.13490897756E+03  0.20622435612E+03 -0.53340891524E+02  0.25213918377E+03  0.00000000000E+00 0.  1.
<mgrwt>
<rscale>  0 0.11308907E+04</rscale>
<asrwt>0</asrwt>
<pdfrwt beam="1">  1        2 0.12489751E+00 0.11308907E+04</pdfrwt>
<pdfrwt beam="2">  1       -2 0.60589979E-01 0.11308907E+04</pdfrwt>
<totfact> 0.84943342E+01</totfact>
</mgrwt>
</event>
<event>
12    1  0.4820219E-008  0.1861511E+04  0.7818608E-02  0.8674255E-01
          2   -1    0    0  501    0  0.00000000000E+00  0.00000000000E+00  0.65904081118E+03  0.65904081118E+03  0.00000000000E+00 0.  1.
         -2   -1    0    0    0  501 -0.00000000000E+00 -0.00000000000E+00 -0.13144956200E+04  0.13144956200E+04  0.00000000000E+00 0. -1.
         23    2    1    2    0    0 -0.47566040964E+03 -0.11403546244E+03  0.29516551486E+03  0.57798533734E+03  0.87678144479E+02 0.  0.
        254    2    1    2    0    0  0.47566040964E+03  0.11403546244E+03 -0.95062032372E+03  0.13955510939E+04  0.89701000205E+03 0.  0.
         23    2    4    4    0    0 -0.20361723899E+03 -0.12105811907E+03 -0.85442420957E+02  0.26708517145E+03  0.88988950441E+02 0.  0.
         23    2    4    4    0    0  0.67927764863E+03  0.23509358150E+03 -0.86517790276E+03  0.11284659224E+04  0.90638946840E+02 0.  0.
         11    1    3    3    0    0 -0.13920465784E+02  0.86323236174E+01  0.22709732539E+02  0.28000505900E+02  0.00000000000E+00 0. -1.
        -11    1    3    3    0    0 -0.46173994386E+03 -0.12266778606E+03  0.27245578232E+03  0.54998483144E+03  0.00000000000E+00 0.  1.
          1    1    5    5  502    0 -0.77297371221E+02 -0.73453727450E+02 -0.77574159172E+02  0.13186388378E+03  0.00000000000E+00 0. -1.
          3    1    6    6  503    0  0.61149544793E+03  0.23381708842E+03 -0.75724746822E+03  0.10010099109E+04  0.00000000000E+00 0. -1.
         -1    1    5    5    0  502 -0.12631986777E+03 -0.47604391617E+02 -0.78682617852E+01  0.13522128767E+03  0.00000000000E+00 0.  1.
         -3    1    6    6    0  503  0.67782200700E+02  0.12764930819E+01 -0.10793043454E+03  0.12745601149E+03  0.00000000000E+00 0.  1.
<mgrwt>
<rscale>  0 0.18615115E+04</rscale>
<asrwt>0</asrwt>
<pdfrwt beam="1">  1        2 0.10139089E+00 0.18615115E+04</pdfrwt>
<pdfrwt beam="2">  1       -2 0.20223009E+00 0.18615115E+04</pdfrwt>
<totfact> 0.53355777E+00</totfact>
</mgrwt>
</event>
<event>
12    1  0.4820219E-008  0.1508285E+04  0.7818608E-02  0.8878962E-01
         -2   -1    0    0    0  501 -0.00000000000E+00  0.00000000000E+00  0.41348483386E+03  0.41348483386E+03  0.00000000000E+00 0. -1.
          2   -1    0    0  501    0  0.00000000000E+00 -0.00000000000E+00 -0.13754568704E+04  0.13754568704E+04  0.00000000000E+00 0.  1.
         23    2    1    2    0    0  0.33466655465E+03 -0.26485929750E+03 -0.48654601541E+02  0.43936957911E+03  0.92337459988E+02 0.  0.
        254    2    1    2    0    0 -0.33466655465E+03  0.26485929750E+03 -0.91331743501E+03  0.13495721252E+04  0.89724246091E+03 0.  0.
         23    2    4    4    0    0 -0.87332083576E+02  0.48077310738E+03 -0.15925363251E+03  0.52222749904E+03  0.92683157525E+02 0.  0.
         23    2    4    4    0    0 -0.24733447108E+03 -0.21591380988E+03 -0.75406380250E+03  0.82734462612E+03  0.89965539262E+02 0.  0.
         11    1    3    3    0    0  0.13336415569E+03 -0.16320655802E+03 -0.14246281468E+02  0.21124709498E+03  0.00000000000E+00 0. -1.
        -11    1    3    3    0    0  0.20130239896E+03 -0.10165273948E+03 -0.34408320073E+02  0.22812248412E+03  0.00000000000E+00 0.  1.
          4    1    5    5  502    0 -0.78836380926E+02  0.25835149056E+03 -0.51680303136E+02  0.27501185677E+03  0.00000000000E+00 0. -1.
          1    1    6    6  503    0 -0.17147849878E+03 -0.18951890740E+03 -0.62618062586E+03  0.67633162577E+03  0.00000000000E+00 0. -1.
         -4    1    5    5    0  502 -0.84957026497E+01  0.22242161682E+03 -0.10757332937E+03  0.24721564227E+03  0.00000000000E+00 0.  1.
         -1    1    6    6    0  503 -0.75855972297E+02 -0.26394902483E+02 -0.12788317664E+03  0.15101300036E+03  0.00000000000E+00 0.  1.
<mgrwt>
<rscale>  0 0.15082845E+04</rscale>
<asrwt>0</asrwt>
<pdfrwt beam="1">  1        2 0.21160875E+00 0.15082845E+04</pdfrwt>
<pdfrwt beam="2">  1       -2 0.63613052E-01 0.15082845E+04</pdfrwt>
<totfact> 0.33002590E+01</totfact>
</mgrwt>
</event>
<event>
12    1  0.4820219E-008  0.1541936E+04  0.7818608E-02  0.8857035E-01
         -1   -1    0    0    0  501 -0.00000000000E+00  0.00000000000E+00  0.36629070951E+03  0.36629070951E+03  0.00000000000E+00 0.  1.
          1   -1    0    0  501    0  0.00000000000E+00 -0.00000000000E+00 -0.16227330300E+04  0.16227330300E+04  0.00000000000E+00 0. -1.
         23    2    1    2    0    0  0.40490042980E+03 -0.17682439393E+02 -0.37467156942E+02  0.41720001547E+03  0.91624441842E+02 0.  0.
        254    2    1    2    0    0 -0.40490042980E+03  0.17682439393E+02 -0.12189751636E+04  0.15718237241E+04  0.90579928430E+03 0.  0.
         23    2    4    4    0    0 -0.56356585085E+03  0.23743093219E+03 -0.11022665339E+04  0.12634792772E+04  0.86072390168E+02 0.  0.
         23    2    4    4    0    0  0.15866542106E+03 -0.21974849280E+03 -0.11670862972E+03  0.30834444691E+03  0.89393947015E+02 0.  0.
         11    1    3    3    0    0  0.52578811549E+01  0.62381789583E+01 -0.13939539970E+02  0.16151500411E+02  0.00000000000E+00 0.  1.
        -11    1    3    3    0    0  0.39964254864E+03 -0.23920618351E+02 -0.23527616972E+02  0.40104851506E+03  0.00000000000E+00 0. -1.
          1    1    5    5  502    0 -0.34759345615E+03  0.14326691347E+03 -0.76070626079E+03  0.84854029631E+03  0.00000000000E+00 0. -1.
          3    1    6    6  503    0  0.15714774965E+03 -0.15548213456E+03 -0.87903160174E+02  0.23790139755E+03  0.00000000000E+00 0. -1.
         -1    1    5    5    0  502 -0.21597239470E+03  0.94164018719E+02 -0.34156027307E+03  0.41493898085E+03  0.00000000000E+00 0.  1.
         -3    1    6    6    0  503  0.15176714101E+01 -0.64266358240E+02 -0.28805469541E+02  0.70443049362E+02  0.00000000000E+00 0.  1.
<mgrwt>
<rscale>  0 0.15419365E+04</rscale>
<asrwt>0</asrwt>
<pdfrwt beam="1">  1        1 0.24965123E+00 0.15419365E+04</pdfrwt>
<pdfrwt beam="2">  1       -1 0.56352417E-01 0.15419365E+04</pdfrwt>
<totfact> 0.16537355E+01</totfact>
</mgrwt>
</event>
<event>
12    1  0.4820219E-008  0.1885807E+04  0.7818608E-02  0.8661954E-01
         -2   -1    0    0    0  501 -0.00000000000E+00  0.00000000000E+00  0.18106397873E+04  0.18106397873E+04  0.00000000000E+00 0.  1.
          2   -1    0    0  501    0  0.00000000000E+00 -0.00000000000E+00 -0.49102372835E+03  0.49102372835E+03  0.00000000000E+00 0. -1.
         23    2    1    2    0    0  0.35340241424E+03  0.49643011450E+03  0.24109245401E+02  0.61692797395E+03  0.93181244651E+02 0.  0.
        254    2    1    2    0    0 -0.35340241424E+03 -0.49643011450E+03  0.12955068135E+04  0.16847355417E+04  0.88806520959E+03 0.  0.
         23    2    4    4    0    0 -0.19285589281E+03  0.19017368474E+03  0.11869092440E+03  0.30964615129E+03  0.91835601576E+02 0.  0.
         23    2    4    4    0    0 -0.16054652143E+03 -0.68660379924E+03  0.11768158891E+04  0.13750893904E+04  0.93676208004E+02 0.  0.
         11    1    3    3    0    0  0.28026703424E+03  0.42069853711E+03  0.51554407593E+02  0.50812865157E+03  0.00000000000E+00 0. -1.
        -11    1    3    3    0    0  0.73135380001E+02  0.75731577394E+02 -0.27445162192E+02  0.10879932238E+03  0.00000000000E+00 0.  1.
          4    1    5    5  502    0 -0.12474351844E+03  0.12987315948E+03  0.29930157153E+02  0.18254806834E+03  0.00000000000E+00 0. -1.
          1    1    6    6  503    0 -0.96656045893E+02 -0.29108944495E+03  0.58296503510E+03  0.65872884279E+03  0.00000000000E+00 0. -1.
         -4    1    5    5    0  502 -0.68112374370E+02  0.60300525257E+02  0.88760767246E+02  0.12709808295E+03  0.00000000000E+00 0.  1.
         -1    1    6    6    0  503 -0.63890475534E+02 -0.39551435428E+03  0.59385085401E+03  0.71636054757E+03  0.00000000000E+00 0.  1.
<mgrwt>
<rscale>  0 0.18858071E+04</rscale>
<asrwt>0</asrwt>
<pdfrwt beam="1">  1        2 0.75542113E-01 0.18858071E+04</pdfrwt>
<pdfrwt beam="2">  1       -2 0.27855996E+00 0.18858071E+04</pdfrwt>
<totfact> 0.25357002E+00</totfact>
</mgrwt>
</event>
<event>
12    1  0.4820219E-008  0.1554019E+04  0.7818608E-02  0.8849305E-01
          1   -1    0    0  501    0  0.00000000000E+00  0.00000000000E+00  0.10660140115E+04  0.10660140115E+04  0.00000000000E+00 0. -1.
         -1   -1    0    0    0  501 -0.00000000000E+00 -0.00000000000E+00 -0.56635653146E+03  0.56635653146E+03  0.00000000000E+00 0.  1.
         23    2    1    2    0    0 -0.56151559551E+02 -0.13475560850E+03 -0.34260696758E+03  0.38347042584E+03  0.91421887943E+02 0.  0.
        254    2    1    2    0    0  0.56151559551E+02  0.13475560850E+03  0.84226444761E+03  0.12489001171E+04  0.91051086273E+03 0.  0.
         23    2    4    4    0    0  0.30085658795E+03 -0.27319685536E+03  0.25812891874E+03  0.49007663172E+03  0.91615271510E+02 0.  0.
         23    2    4    4    0    0 -0.24470502840E+03  0.40795246387E+03  0.58413552887E+03  0.75882348539E+03  0.91065922221E+02 0.  0.
         11    1    3    3    0    0 -0.57596630188E+02 -0.14535170350E+03 -0.33675588868E+03  0.37128024197E+03  0.00000000000E+00 0.  1.
        -11    1    3    3    0    0  0.14450706374E+01  0.10596094997E+02 -0.58510788979E+01  0.12190183863E+02  0.00000000000E+00 0. -1.
          3    1    5    5  502    0  0.29675715367E+03 -0.25480337431E+03  0.22307910695E+03  0.45028197362E+03  0.00000000000E+00 0. -1.
          3    1    6    6  503    0 -0.23133227719E+03  0.40950939361E+03  0.56119589276E+03  0.73222496268E+03  0.00000000000E+00 0. -1.
         -3    1    5    5    0  502  0.40994342874E+01 -0.18393481054E+02  0.35049811788E+02  0.39794658098E+02  0.00000000000E+00 0.  1.
         -3    1    6    6    0  503 -0.13372751217E+02 -0.15569297449E+01  0.22939636114E+02  0.26598522710E+02  0.00000000000E+00 0.  1.
<mgrwt>
<rscale>  0 0.15540193E+04</rscale>
<asrwt>0</asrwt>
<pdfrwt beam="1">  1        1 0.16400216E+00 0.15540193E+04</pdfrwt>
<pdfrwt beam="2">  1       -1 0.87131774E-01 0.15540193E+04</pdfrwt>
<totfact> 0.16811522E+01</totfact>
</mgrwt>
</event>
<event>
12    1  0.4820219E-008  0.1908022E+04  0.7818608E-02  0.8650874E-01
          2   -1    0    0  501    0  0.00000000000E+00  0.00000000000E+00  0.29204653826E+04  0.29204653826E+04  0.00000000000E+00 0. -1.
         -2   -1    0    0    0  501 -0.00000000000E+00 -0.00000000000E+00 -0.31164099288E+03  0.31164099288E+03  0.00000000000E+00 0.  1.
         23    2    1    2    0    0  0.25040547560E+02 -0.69748121055E+02  0.22368454298E+04  0.22399134767E+04  0.90791391471E+02 0.  0.
        254    2    1    2    0    0 -0.25040547560E+02  0.69748121055E+02  0.37197895991E+03  0.99219289879E+03  0.91683508461E+03 0.  0.
         23    2    4    4    0    0 -0.32128830478E+03  0.16474850599E+03  0.51699148001E+03  0.63712785653E+03  0.91013571280E+02 0.  0.
         23    2    4    4    0    0  0.29624775722E+03 -0.95000384934E+02 -0.14501252010E+03  0.35506504225E+03  0.90855635189E+02 0.  0.
         13    1    3    3    0    0  0.30250607865E+02 -0.83468902040E+02  0.21503290748E+04  0.21521610737E+04  0.00000000000E+00 0. -1.
        -13    1    3    3    0    0 -0.52100603055E+01  0.13720780985E+02  0.86516354984E+02  0.87752403038E+02  0.00000000000E+00 0.  1.
          4    1    5    5  502    0 -0.52300783222E+02  0.64614602312E+02  0.14678863441E+03  0.16869298133E+03  0.00000000000E+00 0. -1.
          3    1    6    6  503    0  0.11082428643E+03 -0.62690749482E+02 -0.99050808401E+02  0.16131712611E+03  0.00000000000E+00 0. -1.
         -4    1    5    5    0  502 -0.26898752156E+03  0.10013390368E+03  0.37020284559E+03  0.46843487520E+03  0.00000000000E+00 0.  1.
         -3    1    6    6    0  503  0.18542347080E+03 -0.32309635452E+02 -0.45961711697E+02  0.19374791614E+03  0.00000000000E+00 0.  1.
<mgrwt>
<rscale>  0 0.19080217E+04</rscale>
<asrwt>0</asrwt>
<pdfrwt beam="1">  1        2 0.44930235E+00 0.19080217E+04</pdfrwt>
<pdfrwt beam="2">  1       -2 0.47944770E-01 0.19080217E+04</pdfrwt>
<totfact> 0.75476457E+00</totfact>
</mgrwt>
</event>
<event>
12    1  0.4820219E-008  0.1375938E+04  0.7818608E-02  0.8971422E-01
          2   -1    0    0  501    0  0.00000000000E+00  0.00000000000E+00  0.13239417487E+04  0.13239417487E+04  0.00000000000E+00 0. -1.
         -2   -1    0    0    0  501 -0.00000000000E+00 -0.00000000000E+00 -0.35749407595E+03  0.35749407595E+03  0.00000000000E+00 0.  1.
         23    2    1    2    0    0  0.28193605215E+03  0.19822206919E+03  0.41969698115E+03  0.55058740061E+03  0.90669749665E+02 0.  0.
        254    2    1    2    0    0 -0.28193605215E+03 -0.19822206919E+03  0.54675069165E+03  0.11308484241E+04  0.92795577117E+03 0.  0.
         23    2    4    4    0    0 -0.80653921464E+02  0.29486788497E+02 -0.24654648480E+03  0.27641519610E+03  0.90805648080E+02 0.  0.
         23    2    4    4    0    0 -0.20128213069E+03 -0.22770885769E+03  0.79329717644E+03  0.85443322800E+03  0.91487217408E+02 0.  0.
         11    1    3    3    0    0 -0.10590821044E+01  0.20276091029E+02  0.12894449460E+02  0.24052200506E+02  0.00000000000E+00 0.  1.
        -11    1    3    3    0    0  0.28299513426E+03  0.17794597816E+03  0.40680253169E+03  0.52653520010E+03  0.00000000000E+00 0. -1.
          2    1    5    5  502    0 -0.17792393219E+02  0.37015407817E+02 -0.17975134962E+03  0.18438345198E+03  0.00000000000E+00 0. -1.
          3    1    6    6  503    0 -0.73718178356E+02 -0.13245229769E+03  0.30068701850E+03  0.33673530269E+03  0.00000000000E+00 0. -1.
         -2    1    5    5    0  502 -0.62861528245E+02 -0.75286193208E+01 -0.66795135174E+02  0.92031744116E+02  0.00000000000E+00 0.  1.
         -3    1    6    6    0  503 -0.12756395233E+03 -0.95256559995E+02  0.49261015795E+03  0.51769792531E+03  0.00000000000E+00 0.  1.
<mgrwt>
<rscale>  0 0.13759380E+04</rscale>
<asrwt>0</asrwt>
<pdfrwt beam="1">  1        2 0.20368334E+00 0.13759380E+04</pdfrwt>
<pdfrwt beam="2">  1       -2 0.54999089E-01 0.13759380E+04</pdfrwt>
<totfact> 0.48521003E+01</totfact>
</mgrwt>
</event>
<event>
12    1  0.4820219E-008  0.3145211E+04  0.7818608E-02  0.8203439E-01
         -2   -1    0    0    0  501 -0.00000000000E+00  0.00000000000E+00  0.86112042762E+03  0.86112042762E+03  0.00000000000E+00 0.  1.
          2   -1    0    0  501    0  0.00000000000E+00 -0.00000000000E+00 -0.28719413776E+04  0.28719413776E+04  0.00000000000E+00 0. -1.
         23    2    1    2    0    0  0.31520068813E+03  0.76346778427E+03 -0.23266371419E+04  0.24705491501E+04  0.90211870007E+02 0.  0.
        254    2    1    2    0    0 -0.31520068813E+03 -0.76346778427E+03  0.31581619189E+03  0.12625126552E+04  0.90109034285E+03 0.  0.
         23    2    4    4    0    0  0.17828055489E+03 -0.15430661160E+03 -0.19722928287E+03  0.32119709822E+03  0.93132696999E+02 0.  0.
         23    2    4    4    0    0 -0.49348124302E+03 -0.60916117267E+03  0.51304547476E+03  0.94131555694E+03  0.90874897886E+02 0.  0.
         13    1    3    3    0    0  0.22655433916E+03  0.61272564430E+03 -0.17489021524E+04  0.18669275086E+04  0.00000000000E+00 0.  1.
        -13    1    3    3    0    0  0.88646348974E+02  0.15074213998E+03 -0.57773498953E+03  0.60362164149E+03  0.00000000000E+00 0. -1.
          2    1    5    5  502    0  0.11135828753E+03 -0.14340208401E+03 -0.11629592811E+03  0.21561439839E+03  0.00000000000E+00 0. -1.
          3    1    6    6  503    0 -0.15702709123E+03 -0.22861903659E+03  0.22670193905E+03  0.35821493610E+03  0.00000000000E+00 0. -1.
         -2    1    5    5    0  502  0.66922267363E+02 -0.10904527591E+02 -0.80933354761E+02  0.10558269983E+03  0.00000000000E+00 0.  1.
         -3    1    6    6    0  503 -0.33645415179E+03 -0.38054213608E+03  0.28634353571E+03  0.58310062085E+03  0.00000000000E+00 0.  1.
<mgrwt>
<rscale>  0 0.31452106E+04</rscale>
<asrwt>0</asrwt>
<pdfrwt beam="1">  1        2 0.44183713E+00 0.31452106E+04</pdfrwt>
<pdfrwt beam="2">  1       -2 0.13248007E+00 0.31452106E+04</pdfrwt>
<totfact> 0.73154416E-01</totfact>
</mgrwt>
</event>
<event>
12    1  0.4820219E-008  0.2108803E+04  0.7818608E-02  0.8557376E-01
          1   -1    0    0  501    0  0.00000000000E+00  0.00000000000E+00  0.21152413780E+04  0.21152413780E+04  0.00000000000E+00 0. -1.
         -1   -1    0    0    0  501 -0.00000000000E+00 -0.00000000000E+00 -0.52559599179E+03  0.52559599179E+03  0.00000000000E+00 0.  1.
         23    2    1    2    0    0  0.85624814025E+03  0.41214075282E+02  0.62997776715E+03  0.10686759260E+04  0.10166990709E+03 0.  0.
        254    2    1    2    0    0 -0.85624814025E+03 -0.41214075282E+02  0.95966761902E+03  0.15721614438E+04  0.90325532855E+03 0.  0.
         23    2    4    4    0    0 -0.64863142561E+03  0.13655437391E+03  0.10711558503E+04  0.12631441930E+04  0.93747392234E+02 0.  0.
         23    2    4    4    0    0 -0.20761671464E+03 -0.17776844919E+03 -0.11148823123E+03  0.30901725071E+03  0.91409593652E+02 0.  0.
         13    1    3    3    0    0  0.41718818859E+03  0.66337635243E+02  0.33488004774E+03  0.53906522140E+03  0.00000000000E+00 0. -1.
        -13    1    3    3    0    0  0.43905995166E+03 -0.25123559961E+02  0.29509771941E+03  0.52961070459E+03  0.00000000000E+00 0.  1.
          1    1    5    5  502    0 -0.37889632372E+03  0.10673167999E+03  0.56146416288E+03  0.68570845250E+03  0.00000000000E+00 0. -1.
          3    1    6    6  503    0 -0.13576250241E+03 -0.15394867189E+03 -0.49421083506E+02  0.21112577799E+03  0.00000000000E+00 0. -1.
         -1    1    5    5    0  502 -0.26973510190E+03  0.29822693916E+02  0.50969168738E+03  0.57743574054E+03  0.00000000000E+00 0.  1.
         -3    1    6    6    0  503 -0.71854212227E+02 -0.23819777303E+02 -0.62067147725E+02  0.97891472725E+02  0.00000000000E+00 0.  1.
<mgrwt>
<rscale>  0 0.21088029E+04</rscale>
<asrwt>0</asrwt>
<pdfrwt beam="1">  1        1 0.32542175E+00 0.21088029E+04</pdfrwt>
<pdfrwt beam="2">  1       -1 0.80860923E-01 0.21088029E+04</pdfrwt>
<totfact> 0.34860559E+00</totfact>
</mgrwt>
</event>
<event>
12    1  0.4820219E-008  0.1358825E+04  0.7818608E-02  0.8984174E-01
          3   -1    0    0  501    0  0.00000000000E+00  0.00000000000E+00  0.49691074311E+03  0.49691074311E+03  0.00000000000E+00 0. -1.
         -3   -1    0    0    0  501 -0.00000000000E+00 -0.00000000000E+00 -0.92894259135E+03  0.92894259135E+03  0.00000000000E+00 0.  1.
         23    2    1    2    0    0 -0.18485108229E+03 -0.11259633949E+03  0.19510214590E+03  0.30540537642E+03  0.91431604622E+02 0.  0.
        254    2    1    2    0    0  0.18485108229E+03  0.11259633949E+03 -0.62713399414E+03  0.11204479580E+04  0.90291678565E+03 0.  0.
         23    2    4    4    0    0  0.15044791138E+03 -0.66688784972E+01  0.20720173254E+03  0.27131927498E+03  0.89456933946E+02 0.  0.
         23    2    4    4    0    0  0.34403170907E+02  0.11926521799E+03 -0.83433572668E+03  0.84912868306E+03  0.97445601269E+02 0.  0.
         11    1    3    3    0    0 -0.97383315061E+02 -0.10665975892E+03  0.97760911307E+02  0.17440473045E+03  0.00000000000E+00 0.  1.
        -11    1    3    3    0    0 -0.87467767225E+02 -0.59365805719E+01  0.97341234591E+02  0.13100064597E+03  0.00000000000E+00 0. -1.
          4    1    5    5  502    0  0.27938091298E+02  0.29344943994E+02  0.21268501946E+02  0.45760374325E+02  0.00000000000E+00 0.  1.
          3    1    6    6  503    0  0.55509934115E+02  0.11434041870E+03 -0.78526134536E+03  0.79548127863E+03  0.00000000000E+00 0. -1.
         -4    1    5    5    0  502  0.12250982008E+03 -0.36013822491E+02  0.18593323059E+03  0.22555890066E+03  0.00000000000E+00 0. -1.
         -3    1    6    6    0  503 -0.21106763208E+02  0.49247992885E+01 -0.49074381314E+02  0.53647404434E+02  0.00000000000E+00 0.  1.
<mgrwt>
<rscale>  0 0.13588253E+04</rscale>
<asrwt>0</asrwt>
<pdfrwt beam="1">  1        3 0.76447806E-01 0.13588253E+04</pdfrwt>
<pdfrwt beam="2">  1       -3 0.14291425E+00 0.13588253E+04</pdfrwt>
<totfact> 0.15040079E+00</totfact>
</mgrwt>
</event>
<event>
12    1  0.4820219E-008  0.1818214E+04  0.7818608E-02  0.8696673E-01
         -2   -1    0    0    0  501 -0.00000000000E+00  0.00000000000E+00  0.99044782979E+03  0.99044782979E+03  0.00000000000E+00 0.  1.
          2   -1    0    0  501    0  0.00000000000E+00 -0.00000000000E+00 -0.83444594911E+03  0.83444594911E+03  0.00000000000E+00 0. -1.
         23    2    1    2    0    0  0.47706296332E+03 -0.27019580778E+03  0.47704814817E+03  0.73232516781E+03  0.90168565656E+02 0.  0.
        254    2    1    2    0    0 -0.47706296332E+03  0.27019580778E+03 -0.32104626749E+03  0.10925686111E+04  0.88884229116E+03 0.  0.
         23    2    4    4    0    0 -0.12964025255E+03  0.55634676475E+03 -0.12209963041E+03  0.59208419415E+03  0.96576681892E+02 0.  0.
         23    2    4    4    0    0 -0.34742271077E+03 -0.28615095697E+03 -0.19894663708E+03  0.50048441694E+03  0.91213908260E+02 0.  0.
         11    1    3    3    0    0  0.28808401935E+02  0.49333947413E+01  0.32046659853E+02  0.43373388309E+02  0.00000000000E+00 0. -1.
        -11    1    3    3    0    0  0.44825456138E+03 -0.27512920252E+03  0.44500148831E+03  0.68895177950E+03  0.00000000000E+00 0.  1.
          1    1    5    5  502    0 -0.12416037588E+03  0.40029129179E+03 -0.11989447930E+03  0.43591696846E+03  0.00000000000E+00 0. -1.
          1    1    6    6  503    0 -0.32228274410E+03 -0.28939106177E+03 -0.18107329116E+03  0.46946873223E+03  0.00000000000E+00 0. -1.
         -1    1    5    5    0  502 -0.54798766694E+01  0.15605547296E+03 -0.22051511101E+01  0.15616722569E+03  0.00000000000E+00 0.  1.
         -1    1    6    6    0  503 -0.25139966668E+02  0.32401047961E+01 -0.17873345925E+02  0.31015684705E+02  0.00000000000E+00 0.  1.
<mgrwt>
<rscale>  0 0.18182136E+04</rscale>
<asrwt>0</asrwt>
<pdfrwt beam="1">  1        2 0.12837630E+00 0.18182136E+04</pdfrwt>
<pdfrwt beam="2">  1       -2 0.15237659E+00 0.18182136E+04</pdfrwt>
<totfact> 0.88134128E+00</totfact>
</mgrwt>
</event>
<event>
12    1  0.4820219E-008  0.1750506E+04  0.7818608E-02  0.8733072E-01
         -2   -1    0    0    0  501 -0.00000000000E+00  0.00000000000E+00  0.42331827889E+03  0.42331827889E+03  0.00000000000E+00 0.  1.
          2   -1    0    0  501    0  0.00000000000E+00 -0.00000000000E+00 -0.18096740485E+04  0.18096740485E+04  0.00000000000E+00 0. -1.
         23    2    1    2    0    0  0.63630002648E+03  0.10427400486E+03 -0.48357037375E+03  0.81203877602E+03  0.99075100801E+02 0.  0.
        254    2    1    2    0    0 -0.63630002648E+03 -0.10427400486E+03 -0.90278539585E+03  0.14209535514E+04  0.88788328759E+03 0.  0.
         23    2    4    4    0    0 -0.47473675602E+02 -0.41027024429E+03 -0.29690774807E+03  0.51712095018E+03  0.93190359038E+02 0.  0.
         23    2    4    4    0    0 -0.58882635088E+03  0.30599623943E+03 -0.60587764778E+03  0.90383260119E+03  0.97342061117E+02 0.  0.
         11    1    3    3    0    0  0.62595571311E+03  0.11253445181E+03 -0.48331616483E+03  0.79879851828E+03  0.00000000000E+00 0.  1.
        -11    1    3    3    0    0  0.10344313372E+02 -0.82604469447E+01 -0.25420892113E+00  0.13240257741E+02  0.00000000000E+00 0. -1.
          4    1    5    5  502    0 -0.51982842939E+02 -0.39722710089E+03 -0.25967411640E+03  0.47741201532E+03  0.00000000000E+00 0. -1.
          1    1    6    6  503    0 -0.48435426151E+03  0.27127098344E+03 -0.54534918359E+03  0.77819838675E+03  0.00000000000E+00 0. -1.
         -4    1    5    5    0  502  0.45091673369E+01 -0.13043143403E+02 -0.37233631677E+02  0.39708934861E+02  0.00000000000E+00 0.  1.
         -1    1    6    6    0  503 -0.10447208937E+03  0.34725255986E+02 -0.60528464186E+02  0.12563421444E+03  0.00000000000E+00 0.  1.
<mgrwt>
<rscale>  0 0.17505063E+04</rscale>
<asrwt>0</asrwt>
<pdfrwt beam="1">  1        2 0.27841139E+00 0.17505063E+04</pdfrwt>
<pdfrwt beam="2">  1       -2 0.65125890E-01 0.17505063E+04</pdfrwt>
<totfact> 0.17559839E+01</totfact>
</mgrwt>
</event>
<event>
12    1  0.4820219E-008  0.2345588E+04  0.7818608E-02  0.8460160E-01
          2   -1    0    0  501    0  0.00000000000E+00  0.00000000000E+00  0.28288724576E+04  0.28288724576E+04  0.00000000000E+00 0. -1.
         -2   -1    0    0    0  501 -0.00000000000E+00 -0.00000000000E+00 -0.48621714836E+03  0.48621714836E+03  0.00000000000E+00 0.  1.
         23    2    1    2    0    0  0.15435020448E+03 -0.88909577506E+03  0.40816541586E+03  0.99488873943E+03  0.94283160129E+02 0.  0.
        254    2    1    2    0    0 -0.15435020448E+03  0.88909577506E+03  0.19344898933E+04  0.23202008665E+04  0.90926653437E+03 0.  0.
         23    2    4    4    0    0  0.33366626065E+03  0.49575438637E+03  0.64677336158E+03  0.88509364368E+03  0.89271449682E+02 0.  0.
         23    2    4    4    0    0 -0.48801646513E+03  0.39334138869E+03  0.12877165318E+04  0.14351072228E+04  0.91876854959E+02 0.  0.
         11    1    3    3    0    0  0.77408538717E+02 -0.53882771643E+03  0.19816380497E+03  0.57930672658E+03  0.00000000000E+00 0. -1.
        -11    1    3    3    0    0  0.76941665762E+02 -0.35026805863E+03  0.21000161089E+03  0.41558201285E+03  0.00000000000E+00 0.  1.
          4    1    5    5  502    0  0.23422869999E+03  0.34006673114E+03  0.50438695640E+03  0.65185479005E+03  0.00000000000E+00 0. -1.
          3    1    6    6  503    0 -0.44305935139E+03  0.34153707337E+03  0.11979703450E+04  0.13221505621E+04  0.00000000000E+00 0. -1.
         -4    1    5    5    0  502  0.99437560655E+02  0.15568765523E+03  0.14238640518E+03  0.23323885363E+03  0.00000000000E+00 0.  1.
         -3    1    6    6    0  503 -0.44957113738E+02  0.51804315321E+02  0.89746186788E+02  0.11295666074E+03  0.00000000000E+00 0.  1.
<mgrwt>
<rscale>  0 0.23455885E+04</rscale>
<asrwt>0</asrwt>
<pdfrwt beam="1">  1        2 0.43521114E+00 0.23455885E+04</pdfrwt>
<pdfrwt beam="2">  1       -2 0.74802640E-01 0.23455885E+04</pdfrwt>
<totfact> 0.32230522E+00</totfact>
</mgrwt>
</event>
<event>
12    1  0.4820219E-008  0.1592291E+04  0.7818608E-02  0.8825298E-01
          1   -1    0    0  501    0  0.00000000000E+00  0.00000000000E+00  0.10679926796E+04  0.10679926796E+04  0.00000000000E+00 0. -1.
         -1   -1    0    0    0  501 -0.00000000000E+00 -0.00000000000E+00 -0.59349450013E+03  0.59349450013E+03  0.00000000000E+00 0.  1.
         23    2    1    2    0    0 -0.42716663133E+03  0.32711311138E+03  0.19100329260E+03  0.57839356510E+03  0.92641998047E+02 0.  0.
        254    2    1    2    0    0  0.42716663133E+03 -0.32711311138E+03  0.28349488688E+03  0.10830936146E+04  0.89624109961E+03 0.  0.
         23    2    4    4    0    0  0.97941597753E+01 -0.50017690474E+03 -0.54346066424E+02  0.51156668778E+03  0.92054980897E+02 0.  0.
         23    2    4    4    0    0  0.41737247156E+03  0.17306379335E+03  0.33784095330E+03  0.57152692686E+03  0.91409309256E+02 0.  0.
         13    1    3    3    0    0 -0.29226111089E+03  0.16826305431E+03  0.12738788379E+03  0.36049505589E+03  0.00000000000E+00 0. -1.
        -13    1    3    3    0    0 -0.13490552044E+03  0.15885005707E+03  0.63615408812E+02  0.21789850921E+03  0.00000000000E+00 0.  1.
          3    1    6    6  502    0  0.13004930032E+03  0.41640228856E+02  0.15464195351E+03  0.20630284283E+03  0.00000000000E+00 0. -1.
          3    1    5    5  503    0  0.40885828272E+02 -0.11712841747E+03 -0.20878361827E+02  0.12580390743E+03  0.00000000000E+00 0. -1.
         -3    1    5    5    0  503 -0.31091668497E+02 -0.38304848727E+03 -0.33467704597E+02  0.38576278035E+03  0.00000000000E+00 0.  1.
         -3    1    6    6    0  502  0.28732317124E+03  0.13142356450E+03  0.18319899979E+03  0.36522408404E+03  0.00000000000E+00 0.  1.
<mgrwt>
<rscale>  0 0.15922912E+04</rscale>
<asrwt>0</asrwt>
<pdfrwt beam="1">  1        1 0.16430657E+00 0.15922912E+04</pdfrwt>
<pdfrwt beam="2">  1       -1 0.91306846E-01 0.15922912E+04</pdfrwt>
<totfact> 0.15063971E+01</totfact>
</mgrwt>
</event>
<event>
12    1  0.4820219E-008  0.3451610E+04  0.7818608E-02  0.8125354E-01
         -2   -1    0    0    0  501 -0.00000000000E+00  0.00000000000E+00  0.96911595762E+03  0.96911595762E+03  0.00000000000E+00 0.  1.
          2   -1    0    0  501    0  0.00000000000E+00 -0.00000000000E+00 -0.30733191292E+04  0.30733191292E+04  0.00000000000E+00 0. -1.
         23    2    1    2    0    0 -0.76331843581E+03  0.13956402115E+04 -0.12548308510E+04  0.20282217922E+04  0.92825315487E+02 0.  0.
        254    2    1    2    0    0  0.76331843581E+03 -0.13956402115E+04 -0.84937232055E+03  0.20142132946E+04  0.89730442032E+03 0.  0.
         23    2    4    4    0    0  0.81702645853E+03 -0.12541821356E+04 -0.98405945270E+03  0.17936416791E+04  0.90952753081E+02 0.  0.
         23    2    4    4    0    0 -0.53708022714E+02 -0.14145807590E+03  0.13468713215E+03  0.22057161550E+03  0.87271272785E+02 0.  0.
         13    1    3    3    0    0 -0.26544266965E+03  0.44449847008E+03 -0.35942250012E+03  0.63025648300E+03  0.00000000000E+00 0. -1.
        -13    1    3    3    0    0 -0.49787576616E+03  0.95114174146E+03 -0.89540835091E+03  0.13979653092E+04  0.00000000000E+00 0.  1.
          2    1    6    6  502    0 -0.24035719475E+02 -0.10472695023E+03  0.13601207003E+03  0.17333416602E+03  0.00000000000E+00 0. -1.
          2    1    5    5  503    0  0.15303130890E+03 -0.20767546280E+03 -0.20757360553E+03  0.33111097998E+03  0.00000000000E+00 0. -1.
         -2    1    5    5    0  503  0.66399514962E+03 -0.10465066728E+04 -0.77648584718E+03  0.14625306991E+04  0.00000000000E+00 0.  1.
         -2    1    6    6    0  502 -0.29672303239E+02 -0.36731125672E+02 -0.13249378801E+01  0.47237449477E+02  0.00000000000E+00 0.  1.
<mgrwt>
<rscale>  0 0.34516098E+04</rscale>
<asrwt>0</asrwt>
<pdfrwt beam="1">  1        2 0.47281833E+00 0.34516098E+04</pdfrwt>
<pdfrwt beam="2">  1       -2 0.14909476E+00 0.34516098E+04</pdfrwt>
<totfact> 0.39275858E-01</totfact>
</mgrwt>
</event>
<event>
12    1  0.4820219E-008  0.2190298E+04  0.7818608E-02  0.8522477E-01
          1   -1    0    0  501    0  0.00000000000E+00  0.00000000000E+00  0.10602428307E+04  0.10602428307E+04  0.00000000000E+00 0. -1.
         -1   -1    0    0    0  501 -0.00000000000E+00 -0.00000000000E+00 -0.11312041479E+04  0.11312041479E+04  0.00000000000E+00 0.  1.
         23    2    1    2    0    0  0.89940699886E+03  0.71477692862E+01 -0.13009516770E+03  0.91291974061E+03  0.86681370152E+02 0.  0.
        254    2    1    2    0    0 -0.89940699886E+03 -0.71477692862E+01  0.59133850476E+02  0.12785272380E+04  0.90672545226E+03 0.  0.
         23    2    4    4    0    0 -0.25846358791E+03 -0.25872594455E+03  0.36023393217E+03  0.52162779415E+03  0.92652733822E+02 0.  0.
         23    2    4    4    0    0 -0.64094341095E+03  0.25157817526E+03 -0.30110008169E+03  0.75689944384E+03  0.90196865624E+02 0.  0.
         13    1    3    3    0    0  0.34670428918E+03  0.13818653708E+02 -0.91444259704E+02  0.35882707807E+03  0.00000000000E+00 0. -1.
        -13    1    3    3    0    0  0.55270270968E+03 -0.66708844223E+01 -0.38650907993E+02  0.55409266254E+03  0.00000000000E+00 0.  1.
          4    1    5    5  502    0 -0.73339483507E+02 -0.94851682763E+02  0.17746015627E+03  0.21416729122E+03  0.00000000000E+00 0. -1.
          3    1    6    6  503    0 -0.36199770463E+03  0.99648748395E+02 -0.18641109343E+03  0.41919125345E+03  0.00000000000E+00 0. -1.
         -4    1    5    5    0  502 -0.18512410440E+03 -0.16387426179E+03  0.18277377590E+03  0.30746050293E+03  0.00000000000E+00 0.  1.
         -3    1    6    6    0  503 -0.27894570633E+03  0.15192942687E+03 -0.11468898826E+03  0.33770819039E+03  0.00000000000E+00 0.  1.
<mgrwt>
<rscale>  0 0.21902978E+04</rscale>
<asrwt>0</asrwt>
<pdfrwt beam="1">  1        1 0.16311428E+00 0.21902978E+04</pdfrwt>
<pdfrwt beam="2">  1       -1 0.17403141E+00 0.21902978E+04</pdfrwt>
<totfact> 0.28512870E+00</totfact>
</mgrwt>
</event>
<event>
12    1  0.4820219E-008  0.1414209E+04  0.7818608E-02  0.8943597E-01
          1   -1    0    0  501    0  0.00000000000E+00  0.00000000000E+00  0.36526612406E+03  0.36526612406E+03  0.00000000000E+00 0.  1.
         -1   -1    0    0    0  501 -0.00000000000E+00 -0.00000000000E+00 -0.13688563084E+04  0.13688563084E+04  0.00000000000E+00 0. -1.
         23    2    1    2    0    0 -0.27583027176E+03  0.17604629544E+03  0.16030949018E+02  0.33996870433E+03  0.90813499226E+02 0.  0.
        254    2    1    2    0    0  0.27583027176E+03 -0.17604629544E+03 -0.10196211333E+04  0.13941537281E+04  0.89272768811E+03 0.  0.
         23    2    4    4    0    0 -0.24381137793E+03  0.20179183891E+02 -0.69898905321E+03  0.74608764326E+03  0.90608429203E+02 0.  0.
         23    2    4    4    0    0  0.51964164968E+03 -0.19622547933E+03 -0.32063208013E+03  0.64806608487E+03  0.93020625239E+02 0.  0.
         11    1    3    3    0    0 -0.24620627301E+03  0.12593884332E+03  0.34985448601E+02  0.27875096904E+03  0.00000000000E+00 0.  1.
        -11    1    3    3    0    0 -0.29623998750E+02  0.50107452123E+02 -0.18954499583E+02  0.61217735295E+02  0.00000000000E+00 0. -1.
          2    1    5    5  502    0 -0.33695618352E+00 -0.12753236542E+02 -0.63262154925E+02  0.64535717455E+02  0.00000000000E+00 0. -1.
          3    1    6    6  503    0  0.19019210889E+03 -0.37363423209E+02 -0.14658464181E+03  0.24301465160E+03  0.00000000000E+00 0. -1.
         -2    1    5    5    0  502 -0.24347442174E+03  0.32932420433E+02 -0.63572689829E+03  0.68155192580E+03  0.00000000000E+00 0.  1.
         -3    1    6    6    0  503  0.32944954080E+03 -0.15886205612E+03 -0.17404743832E+03  0.40505143327E+03  0.00000000000E+00 0.  1.
<mgrwt>
<rscale>  0 0.14142091E+04</rscale>
<asrwt>0</asrwt>
<pdfrwt beam="1">  1        1 0.56194787E-01 0.14142091E+04</pdfrwt>
<pdfrwt beam="2">  1       -1 0.21059328E+00 0.14142091E+04</pdfrwt>
<totfact> 0.83978874E+00</totfact>
</mgrwt>
</event>
<event>
12    1  0.4820219E-008  0.1465764E+04  0.7818608E-02  0.8907544E-01
          1   -1    0    0  501    0  0.00000000000E+00  0.00000000000E+00  0.11392596973E+04  0.11392596973E+04  0.00000000000E+00 0. -1.
         -1   -1    0    0    0  501 -0.00000000000E+00 -0.00000000000E+00 -0.47146055081E+03  0.47146055081E+03  0.00000000000E+00 0.  1.
         23    2    1    2    0    0  0.16253275485E+03 -0.36130426240E+03  0.44442408024E+03  0.60328231415E+03  0.97360777753E+02 0.  0.
        254    2    1    2    0    0 -0.16253275485E+03  0.36130426240E+03  0.22337506628E+03  0.10074379340E+04  0.89893108979E+03 0.  0.
         23    2    4    4    0    0  0.84765834897E+02  0.24261688872E+03 -0.30307067412E+03  0.40690541483E+03  0.87589848969E+02 0.  0.
         23    2    4    4    0    0 -0.24729858975E+03  0.11868737368E+03  0.52644574041E+03  0.60053251917E+03  0.90834485894E+02 0.  0.
         13    1    3    3    0    0  0.11751808286E+03 -0.17738191147E+03  0.18403174659E+03  0.28132281469E+03  0.00000000000E+00 0.  1.
        -13    1    3    3    0    0  0.45014671990E+02 -0.18392235093E+03  0.26039233365E+03  0.32195949946E+03  0.00000000000E+00 0. -1.
          4    1    5    5  502    0  0.45476846341E+02  0.51093655713E+02 -0.12482357778E+03  0.14233632979E+03  0.00000000000E+00 0. -1.
          1    1    6    6  503    0 -0.41664269531E+02  0.32613803097E+02  0.43051414212E+02  0.68212871026E+02  0.00000000000E+00 0. -1.
         -4    1    5    5    0  502  0.39288988556E+02  0.19152323301E+03 -0.17824709634E+03  0.26456908504E+03  0.00000000000E+00 0.  1.
         -1    1    6    6    0  503 -0.20563432022E+03  0.86073570581E+02  0.48339432619E+03  0.53231964815E+03  0.00000000000E+00 0.  1.
<mgrwt>
<rscale>  0 0.14657640E+04</rscale>
<asrwt>0</asrwt>
<pdfrwt beam="1">  1        1 0.17527072E+00 0.14657640E+04</pdfrwt>
<pdfrwt beam="2">  1       -1 0.72532393E-01 0.14657640E+04</pdfrwt>
<totfact> 0.22035511E+01</totfact>
</mgrwt>
</event>
<event>
12    1  0.4820219E-008  0.1892889E+04  0.7818608E-02  0.8658404E-01
         -2   -1    0    0    0  501 -0.00000000000E+00  0.00000000000E+00  0.88198761388E+03  0.88198761388E+03  0.00000000000E+00 0.  1.
          2   -1    0    0  501    0  0.00000000000E+00 -0.00000000000E+00 -0.10156115243E+04  0.10156115243E+04  0.00000000000E+00 0. -1.
         23    2    1    2    0    0 -0.11231427791E+03 -0.28542606606E+03 -0.69568602808E+03  0.76569629810E+03  0.90715131272E+02 0.  0.
        254    2    1    2    0    0  0.11231427791E+03  0.28542606606E+03  0.56206211767E+03  0.11319028401E+04  0.93338506472E+03 0.  0.
         23    2    4    4    0    0 -0.15589966815E+03 -0.19091633784E+03  0.51199517568E+03  0.57540891858E+03  0.90568256454E+02 0.  0.
         23    2    4    4    0    0  0.26821394606E+03  0.47634240390E+03  0.50066941990E+02  0.55649392149E+03  0.91312536700E+02 0.  0.
         11    1    3    3    0    0 -0.10457932825E+03 -0.25124785704E+03 -0.66709223236E+03  0.72046815894E+03  0.00000000000E+00 0. -1.
        -11    1    3    3    0    0 -0.77349496563E+01 -0.34178209023E+02 -0.28593795720E+02  0.45228139160E+02  0.00000000000E+00 0.  1.
          1    1    5    5  502    0 -0.10107132579E+03 -0.15037908516E+03  0.44197824968E+03  0.47767568008E+03  0.00000000000E+00 0. -1.
          3    1    6    6  503    0  0.20302059899E+03  0.28588533609E+03  0.74061698880E+01  0.35071732258E+03  0.00000000000E+00 0. -1.
         -1    1    5    5    0  502 -0.54828342362E+02 -0.40537252685E+02  0.70016926004E+02  0.97733238503E+02  0.00000000000E+00 0.  1.
         -3    1    6    6    0  503  0.65193347064E+02  0.19045706782E+03  0.42660772102E+02  0.20577659891E+03  0.00000000000E+00 0.  1.
<mgrwt>
<rscale>  0 0.18928886E+04</rscale>
<asrwt>0</asrwt>
<pdfrwt beam="1">  1        2 0.15624793E+00 0.18928886E+04</pdfrwt>
<pdfrwt beam="2">  1       -2 0.13569040E+00 0.18928886E+04</pdfrwt>
<totfact> 0.89817121E+00</totfact>
</mgrwt>
</event>
<event>
12    1  0.4820219E-008  0.1552756E+04  0.7818608E-02  0.8850109E-01
          2   -1    0    0  501    0  0.00000000000E+00  0.00000000000E+00  0.19620061624E+04  0.19620061624E+04  0.00000000000E+00 0. -1.
         -2   -1    0    0    0  501 -0.00000000000E+00 -0.00000000000E+00 -0.30721776894E+03  0.30721776894E+03  0.00000000000E+00 0.  1.
         23    2    1    2    0    0 -0.34190186621E+03  0.36916625175E+03  0.33123378606E+03  0.60915777651E+03  0.90425483741E+02 0.  0.
        254    2    1    2    0    0  0.34190186621E+03 -0.36916625175E+03  0.13235546075E+04  0.16600661549E+04  0.86651153027E+03 0.  0.
         23    2    4    4    0    0 -0.28025095867E+03 -0.14830749232E+03  0.51498217793E+03  0.61218654000E+03  0.95026333499E+02 0.  0.
         23    2    4    4    0    0  0.62215282488E+03 -0.22085875942E+03  0.80857242953E+03  0.10478796149E+04  0.91703785999E+02 0.  0.
         11    1    3    3    0    0 -0.81855281765E+02  0.12976506491E+03  0.64910946634E+02  0.16659138698E+03  0.00000000000E+00 0. -1.
        -11    1    3    3    0    0 -0.26004658445E+03  0.23940118684E+03  0.26632283942E+03  0.44256638953E+03  0.00000000000E+00 0.  1.
          4    1    5    5  502    0 -0.23657112540E+03 -0.79736514228E+02  0.39337603162E+03  0.46590611858E+03  0.00000000000E+00 0. -1.
          1    1    6    6  503    0  0.49068821090E+03 -0.21101205337E+03  0.63095659167E+03  0.82668447884E+03  0.00000000000E+00 0. -1.
         -4    1    5    5    0  502 -0.43679833263E+02 -0.68570978093E+02  0.12160614631E+03  0.14628042142E+03  0.00000000000E+00 0.  1.
         -1    1    6    6    0  503  0.13146461398E+03 -0.98467060498E+01  0.17761583785E+03  0.22119513604E+03  0.00000000000E+00 0.  1.
<mgrwt>
<rscale>  0 0.15527565E+04</rscale>
<asrwt>0</asrwt>
<pdfrwt beam="1">  1        2 0.30184710E+00 0.15527565E+04</pdfrwt>
<pdfrwt beam="2">  1       -2 0.47264273E-01 0.15527565E+04</pdfrwt>
<totfact> 0.28646028E+01</totfact>
</mgrwt>
</event>
<event>
12    1  0.4820219E-008  0.1116076E+04  0.7818608E-02  0.9189663E-01
          2   -1    0    0  501    0  0.00000000000E+00  0.00000000000E+00  0.12833750569E+04  0.12833750569E+04  0.00000000000E+00 0. -1.
         -2   -1    0    0    0  501 -0.00000000000E+00 -0.00000000000E+00 -0.24264659394E+03  0.24264659394E+03  0.00000000000E+00 0.  1.
         23    2    1    2    0    0 -0.11254695433E+03  0.68127022040E+02  0.27439241931E+02  0.16309337052E+03  0.92403611664E+02 0.  0.
        254    2    1    2    0    0  0.11254695433E+03 -0.68127022040E+02  0.10132892210E+04  0.13629282803E+04  0.90194808264E+03 0.  0.
         23    2    4    4    0    0  0.44318817353E+03 -0.50963791564E+02  0.88159687883E+03  0.99216682530E+03  0.90381896653E+02 0.  0.
         23    2    4    4    0    0 -0.33064121921E+03 -0.17163230476E+02  0.13169234218E+03  0.37076145501E+03  0.10248410225E+03 0.  0.
         13    1    3    3    0    0 -0.52472056305E+01  0.32329799135E+02  0.37194580486E+02  0.49559922282E+02  0.00000000000E+00 0. -1.
        -13    1    3    3    0    0 -0.10729974869E+03  0.35797222905E+02 -0.97553385543E+01  0.11353344823E+03  0.00000000000E+00 0.  1.
          4    1    5    5  502    0  0.39482969142E+03 -0.73432392017E+02  0.76733391967E+03  0.86607398397E+03  0.00000000000E+00 0.  1.
          3    1    6    6  503    0 -0.51033360005E+01  0.26709639892E+01  0.27920947888E+02  0.28508900679E+02  0.00000000000E+00 0. -1.
         -4    1    5    5    0  502  0.48358482107E+02  0.22468600453E+02  0.11426295916E+03  0.12609284133E+03  0.00000000000E+00 0. -1.
         -3    1    6    6    0  503 -0.32553788321E+03 -0.19834194466E+02  0.10377139429E+03  0.34225255433E+03  0.00000000000E+00 0.  1.
<mgrwt>
<rscale>  0 0.11160763E+04</rscale>
<asrwt>0</asrwt>
<pdfrwt beam="1">  1        2 0.19744231E+00 0.11160763E+04</pdfrwt>
<pdfrwt beam="2">  1       -2 0.37330246E-01 0.11160763E+04</pdfrwt>
<totfact> 0.11336761E+02</totfact>
</mgrwt>
</event>
<event>
12    1  0.4820219E-008  0.2809634E+04  0.7818608E-02  0.8300284E-01
          2   -1    0    0  501    0  0.00000000000E+00  0.00000000000E+00  0.32438611358E+04  0.32438611358E+04  0.00000000000E+00 0. -1.
         -2   -1    0    0    0  501 -0.00000000000E+00 -0.00000000000E+00 -0.60838326646E+03  0.60838326646E+03  0.00000000000E+00 0.  1.
         23    2    1    2    0    0 -0.54146041171E+02  0.32542384788E+03 -0.48156841049E+03  0.59082408308E+03  0.91282466119E+02 0.  0.
        254    2    1    2    0    0  0.54146041171E+02 -0.32542384788E+03  0.31170462798E+04  0.32614203192E+04  0.90113956370E+03 0.  0.
         23    2    4    4    0    0 -0.27314138915E+03 -0.20430037596E+03  0.45899814805E+03  0.57904057262E+03  0.90905570440E+02 0.  0.
         23    2    4    4    0    0  0.32728743032E+03 -0.12112347193E+03  0.26580481318E+04  0.26823797466E+04  0.90295495280E+02 0.  0.
         11    1    3    3    0    0 -0.34646290499E+02  0.41659675941E+02 -0.11250750630E+03  0.12487526985E+03  0.00000000000E+00 0. -1.
        -11    1    3    3    0    0 -0.19499750672E+02  0.28376417194E+03 -0.36906090418E+03  0.46594881323E+03  0.00000000000E+00 0.  1.
          4    1    5    5  502    0 -0.21843751734E+03 -0.18600561925E+03  0.42276056093E+03  0.51092027876E+03  0.00000000000E+00 0. -1.
          3    1    6    6  503    0  0.26013482830E+03 -0.10232770564E+03  0.23482902713E+04  0.23648696130E+04  0.00000000000E+00 0. -1.
         -4    1    5    5    0  502 -0.54703871813E+02 -0.18294756710E+02  0.36237587123E+02  0.68120293855E+02  0.00000000000E+00 0.  1.
         -3    1    6    6    0  503  0.67152602026E+02 -0.18795766290E+02  0.30975786050E+03  0.31751013358E+03  0.00000000000E+00 0.  1.
<mgrwt>
<rscale>  0 0.28096340E+04</rscale>
<asrwt>0</asrwt>
<pdfrwt beam="1">  1        2 0.49905555E+00 0.28096340E+04</pdfrwt>
<pdfrwt beam="2">  1       -2 0.93597428E-01 0.28096340E+04</pdfrwt>
<totfact> 0.10178191E+00</totfact>
</mgrwt>
</event>
<event>
12    1  0.4820219E-008  0.2130952E+04  0.7818608E-02  0.8547730E-01
          2   -1    0    0  501    0  0.00000000000E+00  0.00000000000E+00  0.16703148282E+04  0.16703148282E+04  0.00000000000E+00 0. -1.
         -2   -1    0    0    0  501 -0.00000000000E+00 -0.00000000000E+00 -0.67965576678E+03  0.67965576678E+03  0.00000000000E+00 0.  1.
         23    2    1    2    0    0 -0.65151836591E+03 -0.41171080246E+03  0.85675693524E+03  0.11561838979E+04  0.93524294553E+02 0.  0.
        254    2    1    2    0    0  0.65151836591E+03  0.41171080246E+03  0.13390212620E+03  0.11937866971E+04  0.90178430505E+03 0.  0.
         23    2    4    4    0    0  0.20769946148E+03  0.47564272720E+02  0.46897310530E+03  0.52312107727E+03  0.91205600984E+02 0.  0.
         23    2    4    4    0    0  0.44381890443E+03  0.36414652974E+03 -0.33507097910E+03  0.67066561985E+03  0.89117324712E+02 0.  0.
         13    1    3    3    0    0 -0.33719360957E+03 -0.21094322170E+03  0.51149831230E+03  0.64794065825E+03  0.00000000000E+00 0. -1.
        -13    1    3    3    0    0 -0.31432475633E+03 -0.20076758075E+03  0.34525862294E+03  0.50824323964E+03  0.00000000000E+00 0.  1.
          1    1    5    5  502    0  0.16788027093E+03  0.51314894886E+01  0.39329414535E+03  0.42765687452E+03  0.00000000000E+00 0. -1.
          3    1    6    6  503    0  0.42709697393E+03  0.36016586292E+03 -0.30627865251E+03  0.63713255053E+03  0.00000000000E+00 0. -1.
         -1    1    5    5    0  502  0.39819190544E+02  0.42432783231E+02  0.75678959945E+02  0.95464202750E+02  0.00000000000E+00 0.  1.
         -3    1    6    6    0  503  0.16721930499E+02  0.39806668153E+01 -0.28792326587E+02  0.33533069323E+02  0.00000000000E+00 0.  1.
<mgrwt>
<rscale>  0 0.21309520E+04</rscale>
<asrwt>0</asrwt>
<pdfrwt beam="1">  1        2 0.25697151E+00 0.21309520E+04</pdfrwt>
<pdfrwt beam="2">  1       -2 0.10456243E+00 0.21309520E+04</pdfrwt>
<totfact> 0.69536749E+00</totfact>
</mgrwt>
</event>
<event>
12    1  0.4820219E-008  0.1515015E+04  0.7818608E-02  0.8874529E-01
          1   -1    0    0  501    0  0.00000000000E+00  0.00000000000E+00  0.28325256943E+04  0.28325256943E+04  0.00000000000E+00 0. -1.
         -1   -1    0    0    0  501 -0.00000000000E+00 -0.00000000000E+00 -0.20258164770E+03  0.20258164770E+03  0.00000000000E+00 0.  1.
         23    2    1    2    0    0 -0.25381522609E+03 -0.34879621661E+03  0.44008955652E+03  0.62271029106E+03  0.89489212279E+02 0.  0.
        254    2    1    2    0    0  0.25381522609E+03  0.34879621661E+03  0.21898544901E+04  0.24123970509E+04  0.91548668691E+03 0.  0.
         23    2    4    4    0    0 -0.22784229606E+03 -0.14199292049E+03  0.38198239581E+03  0.47565221153E+03  0.90886601213E+02 0.  0.
         23    2    4    4    0    0  0.48165752216E+03  0.49078913710E+03  0.18078720943E+04  0.19367448394E+04  0.98545004838E+02 0.  0.
         13    1    3    3    0    0  0.84101702858E+00 -0.67096299901E+01 -0.32904325140E+01  0.75201988255E+01  0.00000000000E+00 0. -1.
        -13    1    3    3    0    0 -0.25465624312E+03 -0.34208658662E+03  0.44337998904E+03  0.61519009223E+03  0.00000000000E+00 0.  1.
          2    1    5    5  502    0 -0.22962108426E+03 -0.13709655226E+03  0.33629709560E+03  0.42967085483E+03  0.00000000000E+00 0. -1.
          3    1    6    6  503    0  0.46322762192E+03  0.45708090470E+03  0.17518275576E+04  0.18687970930E+04  0.00000000000E+00 0. -1.
         -2    1    5    5    0  502  0.17787881924E+01 -0.48963682311E+01  0.45685300210E+02  0.45981356706E+02  0.00000000000E+00 0.  1.
         -3    1    6    6    0  503  0.18429900239E+02  0.33708232398E+02  0.56044536669E+02  0.67947746428E+02  0.00000000000E+00 0.  1.
<mgrwt>
<rscale>  0 0.15150151E+04</rscale>
<asrwt>0</asrwt>
<pdfrwt beam="1">  1        1 0.43577315E+00 0.15150151E+04</pdfrwt>
<pdfrwt beam="2">  1       -1 0.31166410E-01 0.15150151E+04</pdfrwt>
<totfact> 0.73155912E+00</totfact>
</mgrwt>
</event>
<event>
12    1  0.4820219E-008  0.2058569E+04  0.7818608E-02  0.8579717E-01
         -1   -1    0    0    0  501 -0.00000000000E+00  0.00000000000E+00  0.12275949116E+04  0.12275949116E+04  0.00000000000E+00 0.  1.
          1   -1    0    0  501    0  0.00000000000E+00 -0.00000000000E+00 -0.86300996252E+03  0.86300996252E+03  0.00000000000E+00 0. -1.
         23    2    1    2    0    0  0.72675898741E+03  0.28162611857E+03 -0.13180435726E+03  0.79570838239E+03  0.91035953115E+02 0.  0.
        254    2    1    2    0    0 -0.72675898741E+03 -0.28162611857E+03  0.49638930636E+03  0.12948964918E+04  0.90711778974E+03 0.  0.
         23    2    4    4    0    0 -0.77945541322E+03 -0.18423930723E+03  0.68492004890E+03  0.10577740773E+04  0.90970664129E+02 0.  0.
         23    2    4    4    0    0  0.52696425809E+02 -0.97386811341E+02 -0.18853074254E+03  0.23712241444E+03  0.91771968674E+02 0.  0.
         11    1    3    3    0    0  0.24614100691E+03  0.10301806280E+03 -0.88617614989E+02  0.28116044927E+03  0.00000000000E+00 0. -1.
        -11    1    3    3    0    0  0.48061798050E+03  0.17860805577E+03 -0.43186742272E+02  0.51454793312E+03  0.00000000000E+00 0.  1.
          2    1    5    5  502    0 -0.75569245316E+03 -0.19422556747E+03  0.66513833807E+03  0.10252822361E+04  0.00000000000E+00 0. -1.
          3    1    6    6  503    0  0.20296736022E+02 -0.96174220739E+02 -0.17745788729E+03  0.20286138122E+03  0.00000000000E+00 0. -1.
         -2    1    5    5    0  502 -0.23762960065E+02  0.99862602435E+01  0.19781710824E+02  0.32491841250E+02  0.00000000000E+00 0.  1.
         -3    1    6    6    0  503  0.32399689788E+02 -0.12125906016E+01 -0.11072855242E+02  0.34261033223E+02  0.00000000000E+00 0.  1.
<mgrwt>
<rscale>  0 0.20585691E+04</rscale>
<asrwt>0</asrwt>
<pdfrwt beam="1">  1        1 0.13277076E+00 0.20585691E+04</pdfrwt>
<pdfrwt beam="2">  1       -1 0.18886076E+00 0.20585691E+04</pdfrwt>
<totfact> 0.32441188E+00</totfact>
</mgrwt>
</event>
<event>
12    1  0.4820219E-008  0.1749377E+04  0.7818608E-02  0.8733693E-01
          1   -1    0    0  501    0  0.00000000000E+00  0.00000000000E+00  0.22269999732E+04  0.22269999732E+04  0.00000000000E+00 0. -1.
         -1   -1    0    0    0  501 -0.00000000000E+00 -0.00000000000E+00 -0.34354735006E+03  0.34354735006E+03  0.00000000000E+00 0.  1.
         23    2    1    2    0    0  0.11426066213E+03  0.45803874511E+03  0.89943341770E+02  0.48902370661E+03  0.90550482974E+02 0.  0.
        254    2    1    2    0    0 -0.11426066213E+03 -0.45803874511E+03  0.17935092813E+04  0.20815236166E+04  0.94509789618E+03 0.  0.
         23    2    4    4    0    0  0.23260655897E+03  0.13359363625E+02  0.71430515632E+02  0.26048730755E+03  0.92016492859E+02 0.  0.
         23    2    4    4    0    0 -0.34686722111E+03 -0.47139810873E+03  0.17220787657E+04  0.18210363091E+04  0.89916170113E+02 0.  0.
         11    1    3    3    0    0  0.11902981613E+03  0.42279607850E+03  0.61565770070E+02  0.44352560824E+03  0.00000000000E+00 0.  1.
        -11    1    3    3    0    0 -0.47691539974E+01  0.35242666610E+02  0.28377571700E+02  0.45498098370E+02  0.00000000000E+00 0. -1.
          4    1    5    5  502    0  0.11485093745E+03  0.51635422562E+02  0.25893405295E+02  0.12855902588E+03  0.00000000000E+00 0. -1.
          1    1    6    6  503    0 -0.19514606561E+02 -0.74018418045E+02  0.19403313148E+03  0.20858667789E+03  0.00000000000E+00 0. -1.
         -4    1    5    5    0  502  0.11775562152E+03 -0.38276058937E+02  0.45537110337E+02  0.13192828167E+03  0.00000000000E+00 0.  1.
         -1    1    6    6    0  503 -0.32735261454E+03 -0.39737969069E+03  0.15280456342E+04  0.16124496312E+04  0.00000000000E+00 0.  1.
<mgrwt>
<rscale>  0 0.17493770E+04</rscale>
<asrwt>0</asrwt>
<pdfrwt beam="1">  1        1 0.34261537E+00 0.17493770E+04</pdfrwt>
<pdfrwt beam="2">  1       -1 0.52853440E-01 0.17493770E+04</pdfrwt>
<totfact> 0.71448370E+00</totfact>
</mgrwt>
</event>
<event>
12    1  0.4820219E-008  0.1912553E+04  0.7818608E-02  0.8648633E-01
          1   -1    0    0  501    0  0.00000000000E+00  0.00000000000E+00  0.19757327386E+04  0.19757327386E+04  0.00000000000E+00 0. -1.
         -1   -1    0    0    0  501 -0.00000000000E+00 -0.00000000000E+00 -0.46284821574E+03  0.46284821574E+03  0.00000000000E+00 0.  1.
         23    2    1    2    0    0  0.71438353725E+03 -0.96542986963E+02  0.82229206086E+03  0.10974952615E+04  0.93097953997E+02 0.  0.
        254    2    1    2    0    0 -0.71438353725E+03  0.96542986963E+02  0.69059246204E+03  0.13410856929E+04  0.89550460658E+03 0.  0.
         23    2    4    4    0    0 -0.86013565761E+03  0.26606233837E+03  0.57479783180E+03  0.10719526293E+04  0.89818565383E+02 0.  0.
         23    2    4    4    0    0  0.14575212037E+03 -0.16951935140E+03  0.11579463023E+03  0.26913306355E+03  0.95098466947E+02 0.  0.
         11    1    3    3    0    0  0.68535205085E+03 -0.10952545848E+03  0.79716042141E+03  0.10569616819E+04  0.00000000000E+00 0.  1.
        -11    1    3    3    0    0  0.29031486401E+02  0.12982471519E+02  0.25131639451E+02  0.40533579547E+02  0.00000000000E+00 0. -1.
          4    1    5    5  502    0 -0.49744995497E+03  0.11508517113E+03  0.35398116722E+03  0.62129197730E+03  0.00000000000E+00 0. -1.
          3    1    6    6  503    0  0.20527413423E+02 -0.32644560879E+02 -0.15810930928E+02  0.41677663006E+02  0.00000000000E+00 0. -1.
         -4    1    5    5    0  502 -0.36268570264E+03  0.15097716724E+03  0.22081666459E+03  0.45066065203E+03  0.00000000000E+00 0.  1.
         -3    1    6    6    0  503  0.12522470694E+03 -0.13687479053E+03  0.13160556116E+03  0.22745540055E+03  0.00000000000E+00 0.  1.
<mgrwt>
<rscale>  0 0.19125526E+04</rscale>
<asrwt>0</asrwt>
<pdfrwt beam="1">  1        1 0.30395888E+00 0.19125526E+04</pdfrwt>
<pdfrwt beam="2">  1       -1 0.71207419E-01 0.19125526E+04</pdfrwt>
<totfact> 0.57616508E+00</totfact>
</mgrwt>
</event>
<event>
12    1  0.4820219E-008  0.1000628E+04  0.7818608E-02  0.9307856E-01
         -1   -1    0    0    0  501 -0.00000000000E+00  0.00000000000E+00  0.31428239149E+03  0.31428239149E+03  0.00000000000E+00 0.  1.
          1   -1    0    0  501    0  0.00000000000E+00 -0.00000000000E+00 -0.79646296999E+03  0.79646296999E+03  0.00000000000E+00 0. -1.
         23    2    1    2    0    0 -0.51788439207E+02  0.51121726227E+02 -0.66791561717E+02  0.13140350415E+03  0.86661957390E+02 0.  0.
        254    2    1    2    0    0  0.51788439207E+02 -0.51121726227E+02 -0.41538901679E+03  0.97934185733E+03  0.88389307324E+03 0.  0.
         23    2    4    4    0    0 -0.16044859898E+03  0.36250339453E+03 -0.13971395530E+03  0.43077877641E+03  0.94328685659E+02 0.  0.
         23    2    4    4    0    0  0.21223703818E+03 -0.41362512076E+03 -0.27567506149E+03  0.54856308092E+03  0.93778533354E+02 0.  0.
         13    1    3    3    0    0 -0.14404937852E+02  0.11645741140E+01  0.19898799382E+02  0.24593102372E+02  0.00000000000E+00 0.  1.
        -13    1    3    3    0    0 -0.37383501355E+02  0.49957152113E+02 -0.86690361099E+02  0.10681040178E+03  0.00000000000E+00 0. -1.
          2    1    5    5  502    0 -0.50009682729E+02  0.12721710602E+03 -0.21655361686E+01  0.13671082612E+03  0.00000000000E+00 0. -1.
          4    1    6    6  503    0  0.39515419745E+02 -0.36030137945E+02 -0.68463165388E+01  0.53912069966E+02  0.00000000000E+00 0. -1.
         -2    1    5    5    0  502 -0.11043891625E+03  0.23528628851E+03 -0.13754841913E+03  0.29406795029E+03  0.00000000000E+00 0.  1.
         -4    1    6    6    0  503  0.17272161844E+03 -0.37759498281E+03 -0.26882874495E+03  0.49465101095E+03  0.00000000000E+00 0.  1.
<mgrwt>
<rscale>  0 0.10006284E+04</rscale>
<asrwt>0</asrwt>
<pdfrwt beam="1">  1        1 0.12253276E+00 0.10006284E+04</pdfrwt>
<pdfrwt beam="2">  1       -1 0.48351138E-01 0.10006284E+04</pdfrwt>
<totfact> 0.95464790E+01</totfact>
</mgrwt>
</event>
<event>
12    1  0.4820219E-008  0.1296576E+04  0.7818608E-02  0.9032285E-01
         -1   -1    0    0    0  501 -0.00000000000E+00  0.00000000000E+00  0.83650482385E+03  0.83650482385E+03  0.00000000000E+00 0.  1.
          1   -1    0    0  501    0  0.00000000000E+00 -0.00000000000E+00 -0.50242067198E+03  0.50242067198E+03  0.00000000000E+00 0. -1.
         23    2    1    2    0    0 -0.22625660528E+03 -0.10329784216E+03  0.31044843838E+03  0.40831056163E+03  0.92069464094E+02 0.  0.
        254    2    1    2    0    0  0.22625660528E+03  0.10329784216E+03  0.23635713492E+02  0.93061493420E+03  0.89645022906E+03 0.  0.
         23    2    4    4    0    0 -0.92585826566E+02  0.44214341182E+02  0.40154702352E+03  0.42453776489E+03  0.92006839240E+02 0.  0.
         23    2    4    4    0    0  0.31884243184E+03  0.59083500981E+02 -0.37791131003E+03  0.50607716931E+03  0.90254011641E+02 0.  0.
         13    1    3    3    0    0 -0.11173856765E+02 -0.37148660760E+02  0.31898239207E+02  0.50223258913E+02  0.00000000000E+00 0. -1.
        -13    1    3    3    0    0 -0.21508274851E+03 -0.66149181403E+02  0.27855019918E+03  0.35808730272E+03  0.00000000000E+00 0.  1.
          2    1    5    5  502    0 -0.90082739721E+02  0.46976607313E+02  0.21335928268E+03  0.23631310826E+03  0.00000000000E+00 0. -1.
          3    1    6    6  503    0  0.21545266833E+03  0.53724306367E+01 -0.28349080397E+03  0.35611199255E+03  0.00000000000E+00 0. -1.
         -2    1    5    5    0  502 -0.25030868458E+01 -0.27622661305E+01  0.18818774084E+03  0.18822465663E+03  0.00000000000E+00 0.  1.
         -3    1    6    6    0  503  0.10338976351E+03  0.53711070344E+02 -0.94420506064E+02  0.14996517677E+03  0.00000000000E+00 0.  1.
<mgrwt>
<rscale>  0 0.12965760E+04</rscale>
<asrwt>0</asrwt>
<pdfrwt beam="1">  1        1 0.77295488E-01 0.12965760E+04</pdfrwt>
<pdfrwt beam="2">  1       -1 0.12869305E+00 0.12965760E+04</pdfrwt>
<totfact> 0.22517231E+01</totfact>
</mgrwt>
</event>
<event>
12    1  0.4820219E-008  0.3715056E+04  0.7818608E-02  0.8064633E-01
         -2   -1    0    0    0  501 -0.00000000000E+00  0.00000000000E+00  0.19873857709E+04  0.19873857709E+04  0.00000000000E+00 0.  1.
          2   -1    0    0  501    0  0.00000000000E+00 -0.00000000000E+00 -0.17361552407E+04  0.17361552407E+04  0.00000000000E+00 0. -1.
         23    2    1    2    0    0 -0.70643590395E+03 -0.10603510715E+04 -0.10810348049E+04  0.16734209043E+04  0.91132827668E+02 0.  0.
        254    2    1    2    0    0  0.70643590395E+03  0.10603510715E+04  0.13322653352E+04  0.20501201073E+04  0.89703146532E+03 0.  0.
         23    2    4    4    0    0 -0.63499906049E+01  0.73678395009E+03  0.45174005904E+03  0.86914884655E+03  0.91976763469E+02 0.  0.
         23    2    4    4    0    0  0.71278589456E+03  0.32356712138E+03  0.88052527612E+03  0.11809712607E+04  0.81295407250E+02 0.  0.
         13    1    3    3    0    0 -0.55897473016E+02 -0.52617833931E+02 -0.48986897667E+02  0.91065251772E+02  0.00000000000E+00 0.  1.
        -13    1    3    3    0    0 -0.65053843093E+03 -0.10077332375E+04 -0.10320479073E+04  0.15823556525E+04  0.00000000000E+00 0. -1.
          2    1    5    5  502    0 -0.29457449347E+02  0.57668999248E+03  0.38584102038E+03  0.69448713577E+03  0.00000000000E+00 0. -1.
          4    1    6    6  503    0  0.65751865369E+03  0.27311327013E+03  0.78916591227E+03  0.10628755691E+04  0.00000000000E+00 0. -1.
         -2    1    5    5    0  502  0.23107458742E+02  0.16009395762E+03  0.65899038658E+02  0.17466171077E+03  0.00000000000E+00 0.  1.
         -4    1    6    6    0  503  0.55267240864E+02  0.50453851250E+02  0.91359363848E+02  0.11809569163E+03  0.00000000000E+00 0.  1.
<mgrwt>
<rscale>  0 0.37150560E+04</rscale>
<asrwt>0</asrwt>
<pdfrwt beam="1">  1        2 0.26710080E+00 0.37150560E+04</pdfrwt>
<pdfrwt beam="2">  1       -2 0.30575166E+00 0.37150560E+04</pdfrwt>
<totfact> 0.22152092E-01</totfact>
</mgrwt>
</event>
<event>
12    1  0.4820219E-008  0.1312123E+04  0.7818608E-02  0.9020006E-01
          1   -1    0    0  501    0  0.00000000000E+00  0.00000000000E+00  0.18699359798E+04  0.18699359798E+04  0.00000000000E+00 0. -1.
         -1   -1    0    0    0  501 -0.00000000000E+00 -0.00000000000E+00 -0.23017731960E+03  0.23017731960E+03  0.00000000000E+00 0.  1.
         23    2    1    2    0    0 -0.17390047215E+03  0.60702234375E+02  0.87330769244E+03  0.89716963546E+03  0.91218932434E+02 0.  0.
        254    2    1    2    0    0  0.17390047215E+03 -0.60702234375E+02  0.76645096778E+03  0.12029436640E+04  0.90868049235E+03 0.  0.
         23    2    4    4    0    0  0.17809050970E+03 -0.25723430684E+03 -0.74810189716E+02  0.33473809621E+03  0.92559766136E+02 0.  0.
         23    2    4    4    0    0 -0.41900375551E+01  0.19653207246E+03  0.84126115750E+03  0.86820556775E+03  0.86128745698E+02 0.  0.
         11    1    3    3    0    0 -0.17812265369E+03  0.57911134266E+02  0.72588861151E+03  0.74966369497E+03  0.00000000000E+00 0. -1.
        -11    1    3    3    0    0  0.42221815458E+01  0.27911001086E+01  0.14741908093E+03  0.14750594049E+03  0.00000000000E+00 0.  1.
          2    1    5    5  502    0  0.24755941612E+02 -0.41750790895E+02  0.21753553518E+02  0.53190246062E+02  0.00000000000E+00 0. -1.
          3    1    6    6  503    0 -0.32854233337E+02  0.27903249600E+02  0.14748275279E+03  0.15365270697E+03  0.00000000000E+00 0. -1.
         -2    1    5    5    0  502  0.15333456809E+03 -0.21548351594E+03 -0.96563743234E+02  0.28154785015E+03  0.00000000000E+00 0.  1.
         -3    1    6    6    0  503  0.28664195782E+02  0.16862882286E+03  0.69377840470E+03  0.71455286078E+03  0.00000000000E+00 0.  1.
<mgrwt>
<rscale>  0 0.13121232E+04</rscale>
<asrwt>0</asrwt>
<pdfrwt beam="1">  1        1 0.28768245E+00 0.13121232E+04</pdfrwt>
<pdfrwt beam="2">  1       -1 0.35411897E-01 0.13121232E+04</pdfrwt>
<totfact> 0.27256979E+01</totfact>
</mgrwt>
</event>
<event>
12    1  0.4820219E-008  0.1473547E+04  0.7818608E-02  0.8902237E-01
          2   -1    0    0  501    0  0.00000000000E+00  0.00000000000E+00  0.27892483412E+04  0.27892483412E+04  0.00000000000E+00 0. -1.
         -2   -1    0    0    0  501 -0.00000000000E+00 -0.00000000000E+00 -0.19461690228E+03  0.19461690228E+03  0.00000000000E+00 0.  1.
         23    2    1    2    0    0  0.68768287305E+02  0.23942836354E+03  0.16311279598E+04  0.16525019983E+04  0.90163265597E+02 0.  0.
        254    2    1    2    0    0 -0.68768287305E+02 -0.23942836354E+03  0.96350347910E+03  0.13313632452E+04  0.88438346761E+03 0.  0.
         23    2    4    4    0    0 -0.24901220902E+03 -0.46545639813E+03  0.33237998392E+03  0.63146769893E+03  0.98072739771E+02 0.  0.
         23    2    4    4    0    0  0.18024392171E+03  0.22602803459E+03  0.63112349518E+03  0.69989554625E+03  0.89220881846E+02 0.  0.
         11    1    3    3    0    0 -0.19135124302E+02  0.16945104990E+02  0.17432105976E+03  0.17618490696E+03  0.00000000000E+00 0.  1.
        -11    1    3    3    0    0  0.87903411607E+02  0.22248325855E+03  0.14568069000E+04  0.14763170913E+04  0.00000000000E+00 0. -1.
          2    1    5    5  502    0 -0.14664037910E+03 -0.18421282348E+03  0.11838727815E+03  0.26353996423E+03  0.00000000000E+00 0.  1.
          4    1    6    6  503    0  0.43844625810E+02  0.11062617744E+03  0.31572787789E+03  0.33740864723E+03  0.00000000000E+00 0. -1.
         -2    1    5    5    0  502 -0.10237182992E+03 -0.28124357465E+03  0.21399270578E+03  0.36792773471E+03  0.00000000000E+00 0. -1.
         -4    1    6    6    0  503  0.13639929590E+03  0.11540185715E+03  0.31539561729E+03  0.36248689902E+03  0.00000000000E+00 0.  1.
<mgrwt>
<rscale>  0 0.14735466E+04</rscale>
<asrwt>0</asrwt>
<pdfrwt beam="1">  1        2 0.42911510E+00 0.14735466E+04</pdfrwt>
<pdfrwt beam="2">  1       -2 0.29941064E-01 0.14735466E+04</pdfrwt>
<totfact> 0.23517277E+01</totfact>
</mgrwt>
</event>
<event>
12    1  0.4820219E-008  0.3307046E+04  0.7818608E-02  0.8161105E-01
          3   -1    0    0  501    0  0.00000000000E+00  0.00000000000E+00  0.29424688594E+04  0.29424688594E+04  0.00000000000E+00 0. -1.
         -3   -1    0    0    0  501 -0.00000000000E+00 -0.00000000000E+00 -0.92919888947E+03  0.92919888947E+03  0.00000000000E+00 0.  1.
         23    2    1    2    0    0  0.62225265644E+03  0.37297980355E+03  0.25101995013E+04  0.26147413442E+04  0.97254605748E+02 0.  0.
        254    2    1    2    0    0 -0.62225265644E+03 -0.37297980355E+03 -0.49692953138E+03  0.12569264047E+04  0.89811620926E+03 0.  0.
         23    2    4    4    0    0 -0.14253130357E+03 -0.51321693960E+03  0.85764814640E+01  0.54014630633E+03  0.89317840406E+02 0.  0.
         23    2    4    4    0    0 -0.47972135287E+03  0.14023713605E+03 -0.50550601284E+03  0.71678009835E+03  0.91860490184E+02 0.  0.
         13    1    3    3    0    0  0.31911376407E+01 -0.15857904365E+01  0.55727556144E+02  0.55841370010E+02  0.00000000000E+00 0.  1.
        -13    1    3    3    0    0  0.61906151880E+03  0.37456559399E+03  0.24544719451E+04  0.25588999741E+04  0.00000000000E+00 0. -1.
          3    1    5    5  502    0 -0.35864614127E+02 -0.28988311888E+03 -0.67721947784E+01  0.29217179156E+03  0.00000000000E+00 0. -1.
          3    1    6    6  503    0 -0.26886559511E+03  0.30850028017E+02 -0.26924524017E+03  0.38175048371E+03  0.00000000000E+00 0. -1.
         -3    1    5    5    0  502 -0.10666668944E+03 -0.22333382072E+03  0.15348676242E+02  0.24797451477E+03  0.00000000000E+00 0.  1.
         -3    1    6    6    0  503 -0.21085575775E+03  0.10938710803E+03 -0.23626077267E+03  0.33502961464E+03  0.00000000000E+00 0.  1.
<mgrwt>
<rscale>  0 0.33070463E+04</rscale>
<asrwt>0</asrwt>
<pdfrwt beam="1">  1        3 0.45268751E+00 0.33070463E+04</pdfrwt>
<pdfrwt beam="2">  1       -3 0.14295368E+00 0.33070463E+04</pdfrwt>
<totfact> 0.46685208E-03</totfact>
</mgrwt>
</event>
<event>
12    1  0.4820219E-008  0.2293695E+04  0.7818608E-02  0.8480411E-01
         -2   -1    0    0    0  501 -0.00000000000E+00  0.00000000000E+00  0.45782524876E+03  0.45782524876E+03  0.00000000000E+00 0.  1.
          2   -1    0    0  501    0  0.00000000000E+00 -0.00000000000E+00 -0.28728406604E+04  0.28728406604E+04  0.00000000000E+00 0. -1.
         23    2    1    2    0    0  0.62748064755E+03 -0.59575378701E+03 -0.16036281112E+04  0.18245241863E+04  0.92794662793E+02 0.  0.
        254    2    1    2    0    0 -0.62748064755E+03  0.59575378701E+03 -0.81138730039E+03  0.15061417229E+04  0.92814815644E+03 0.  0.
         23    2    4    4    0    0 -0.56643740791E+03 -0.50329552728E+02 -0.56153529648E+03  0.80465904052E+03  0.93647644608E+02 0.  0.
         23    2    4    4    0    0 -0.61043239637E+02  0.64608333974E+03 -0.24985200391E+03  0.70148268233E+03  0.92206131891E+02 0.  0.
         13    1    3    3    0    0  0.28387095522E+02 -0.53955631495E+02 -0.87481219280E+02  0.10663020721E+03  0.00000000000E+00 0.  1.
        -13    1    3    3    0    0  0.59909355203E+03 -0.54179815552E+03 -0.15161468920E+04  0.17178939791E+04  0.00000000000E+00 0. -1.
          2    1    5    5  502    0 -0.29323819193E+03  0.19439992875E+02 -0.27017022202E+03  0.39919731887E+03  0.00000000000E+00 0.  1.
          1    1    6    6  503    0 -0.47642046444E+02  0.12614892965E+03 -0.40195503381E+02  0.14070890353E+03  0.00000000000E+00 0. -1.
         -2    1    5    5    0  502 -0.27319921598E+03 -0.69769545604E+02 -0.29136507446E+03  0.40546172165E+03  0.00000000000E+00 0. -1.
         -1    1    6    6    0  503 -0.13401193192E+02  0.51993441009E+03 -0.20965650053E+03  0.56077377880E+03  0.00000000000E+00 0.  1.
<mgrwt>
<rscale>  0 0.22936948E+04</rscale>
<asrwt>0</asrwt>
<pdfrwt beam="1">  1        2 0.44197548E+00 0.22936948E+04</pdfrwt>
<pdfrwt beam="2">  1       -2 0.70434654E-01 0.22936948E+04</pdfrwt>
<totfact> 0.34748572E+00</totfact>
</mgrwt>
</event>
<event>
12    1  0.4820219E-008  0.1553003E+04  0.7818608E-02  0.8849952E-01
         -2   -1    0    0    0  501 -0.00000000000E+00  0.00000000000E+00  0.11186958498E+04  0.11186958498E+04  0.00000000000E+00 0.  1.
          2   -1    0    0  501    0  0.00000000000E+00 -0.00000000000E+00 -0.53897980958E+03  0.53897980958E+03  0.00000000000E+00 0. -1.
         23    2    1    2    0    0 -0.32885883010E+03 -0.19592868851E+03 -0.16863976019E+03  0.42836976628E+03  0.92331505056E+02 0.  0.
        254    2    1    2    0    0  0.32885883010E+03  0.19592868851E+03  0.74835580039E+03  0.12293058931E+04  0.89700635095E+03 0.  0.
         23    2    4    4    0    0 -0.60106083006E+02 -0.23439227011E+03  0.55338262231E+03  0.61090093126E+03  0.91734092021E+02 0.  0.
         23    2    4    4    0    0  0.38896491311E+03  0.43032095861E+03  0.19497317807E+03  0.61840496181E+03  0.89108504451E+02 0.  0.
         13    1    3    3    0    0 -0.24369175220E+02  0.73059025256E+01 -0.31889262644E+00  0.25442771177E+02  0.00000000000E+00 0.  1.
        -13    1    3    3    0    0 -0.30448965488E+03 -0.20323459103E+03 -0.16832086757E+03  0.40292699510E+03  0.00000000000E+00 0. -1.
          4    1    5    5  502    0 -0.75037911695E+02 -0.13353496809E+03  0.38079337596E+03  0.41044594171E+03  0.00000000000E+00 0. -1.
          3    1    6    6  503    0  0.16687164694E+03  0.12404963418E+03  0.55683591104E+02  0.21525594210E+03  0.00000000000E+00 0. -1.
         -4    1    5    5    0  502  0.14931828690E+02 -0.10085730202E+03  0.17258924635E+03  0.20045498955E+03  0.00000000000E+00 0.  1.
         -3    1    6    6    0  503  0.22209326617E+03  0.30627132444E+03  0.13928958697E+03  0.40314901970E+03  0.00000000000E+00 0.  1.
<mgrwt>
<rscale>  0 0.15530029E+04</rscale>
<asrwt>0</asrwt>
<pdfrwt beam="1">  1        2 0.82919971E-01 0.15530029E+04</pdfrwt>
<pdfrwt beam="2">  1       -2 0.17210705E+00 0.15530029E+04</pdfrwt>
<totfact> 0.11163068E+01</totfact>
</mgrwt>
</event>
<event>
12    1  0.4820219E-008  0.1466046E+04  0.7818608E-02  0.8907351E-01
         -1   -1    0    0    0  501 -0.00000000000E+00  0.00000000000E+00  0.29027817502E+03  0.29027817502E+03  0.00000000000E+00 0.  1.
          1   -1    0    0  501    0  0.00000000000E+00 -0.00000000000E+00 -0.18510604979E+04  0.18510604979E+04  0.00000000000E+00 0. -1.
         23    2    1    2    0    0  0.12185280061E+03  0.46932538681E+03 -0.32079651867E+03  0.58834077640E+03  0.90111259348E+02 0.  0.
        254    2    1    2    0    0 -0.12185280061E+03 -0.46932538681E+03 -0.12399858043E+04  0.15529978966E+04  0.79945184235E+03 0.  0.
         23    2    4    4    0    0 -0.25257765771E+03  0.41249509234E+02 -0.84506237909E+03  0.88782724751E+03  0.92789017114E+02 0.  0.
         23    2    4    4    0    0  0.13072485710E+03 -0.51057489604E+03 -0.39492342517E+03  0.66517064905E+03  0.93336851616E+02 0.  0.
         13    1    3    3    0    0  0.64232798087E+02  0.29521330693E+03 -0.14825396637E+03  0.33653526930E+03  0.00000000000E+00 0.  1.
        -13    1    3    3    0    0  0.57620002521E+02  0.17411207989E+03 -0.17254255230E+03  0.25180550710E+03  0.00000000000E+00 0. -1.
          4    1    5    5  502    0 -0.15753174461E+03 -0.19829167328E+02 -0.46774620144E+03  0.49395946736E+03  0.00000000000E+00 0. -1.
          1    1    6    6  503    0  0.20740468955E+01 -0.93667013552E+01 -0.31277882905E+02  0.32716092734E+02  0.00000000000E+00 0. -1.
         -4    1    5    5    0  502 -0.95045913098E+02  0.61078676562E+02 -0.37731617765E+03  0.39386778015E+03  0.00000000000E+00 0.  1.
         -1    1    6    6    0  503  0.12865081020E+03 -0.50120819469E+03 -0.36364554227E+03  0.63245455631E+03  0.00000000000E+00 0.  1.
<mgrwt>
<rscale>  0 0.14660457E+04</rscale>
<asrwt>0</asrwt>
<pdfrwt beam="1">  1        1 0.28477853E+00 0.14660457E+04</pdfrwt>
<pdfrwt beam="2">  1       -1 0.44658182E-01 0.14660457E+04</pdfrwt>
<totfact> 0.18129993E+01</totfact>
</mgrwt>
</event>
<event>
12    1  0.4820219E-008  0.2373790E+04  0.7818608E-02  0.8449382E-01
         -2   -1    0    0    0  501 -0.00000000000E+00  0.00000000000E+00  0.10345936446E+04  0.10345936446E+04  0.00000000000E+00 0.  1.
          2   -1    0    0  501    0  0.00000000000E+00 -0.00000000000E+00 -0.13616159649E+04  0.13616159649E+04  0.00000000000E+00 0. -1.
         23    2    1    2    0    0  0.54385322221E+03  0.96871016076E+00 -0.10013479359E+04  0.11431929581E+04  0.91734317447E+02 0.  0.
        254    2    1    2    0    0 -0.54385322221E+03 -0.96871016076E+00  0.67432561565E+03  0.12530166514E+04  0.90529466318E+03 0.  0.
         23    2    4    4    0    0  0.16105309859E+03  0.19882525680E+03  0.35887160738E+03  0.45012650959E+03  0.91408209379E+02 0.  0.
         23    2    4    4    0    0 -0.70490632079E+03 -0.19979396696E+03  0.31545400827E+03  0.80289014186E+03  0.91163579558E+02 0.  0.
         11    1    3    3    0    0  0.43046950941E+03 -0.28442483137E+02 -0.73555413444E+03  0.85273258297E+03  0.00000000000E+00 0. -1.
        -11    1    3    3    0    0  0.11338371280E+03  0.29411193298E+02 -0.26579380143E+03  0.29046037509E+03  0.00000000000E+00 0.  1.
          2    1    5    5  502    0  0.80949794352E+02  0.96466583880E+02  0.25254098510E+03  0.28219783870E+03  0.00000000000E+00 0. -1.
          1    1    6    6  503    0 -0.31110350921E+03 -0.11027273445E+03  0.98493797109E+02  0.34445100881E+03  0.00000000000E+00 0. -1.
         -2    1    5    5    0  502  0.80103304233E+02  0.10235867292E+03  0.10633062228E+03  0.16792867088E+03  0.00000000000E+00 0.  1.
         -1    1    6    6    0  503 -0.39380281159E+03 -0.89521232511E+02  0.21696021116E+03  0.45843913305E+03  0.00000000000E+00 0.  1.
<mgrwt>
<rscale>  0 0.23737896E+04</rscale>
<asrwt>0</asrwt>
<pdfrwt beam="1">  1        2 0.20947938E+00 0.23737896E+04</pdfrwt>
<pdfrwt beam="2">  1       -2 0.15916825E+00 0.23737896E+04</pdfrwt>
<totfact> 0.35058605E+00</totfact>
</mgrwt>
</event>
<event>
12    1  0.4820219E-008  0.1895789E+04  0.7818608E-02  0.8656955E-01
         -2   -1    0    0    0  501 -0.00000000000E+00  0.00000000000E+00  0.27667025372E+03  0.27667025372E+03  0.00000000000E+00 0.  1.
          2   -1    0    0  501    0  0.00000000000E+00 -0.00000000000E+00 -0.32475635278E+04  0.32475635278E+04  0.00000000000E+00 0. -1.
         23    2    1    2    0    0 -0.91505452447E+02  0.67267331959E+03 -0.65298317544E+03  0.94629939087E+03  0.90735147770E+02 0.  0.
        254    2    1    2    0    0  0.91505452447E+02 -0.67267331959E+03 -0.23179100986E+04  0.25779343906E+04  0.90120799725E+03 0.  0.
         23    2    4    4    0    0 -0.29702346983E+03 -0.64964918550E+03 -0.13225414071E+04  0.15052991633E+04  0.80887526212E+02 0.  0.
         23    2    4    4    0    0  0.38852892228E+03 -0.23024134091E+02 -0.99536869154E+03  0.10726352273E+04  0.91118957777E+02 0.  0.
         13    1    3    3    0    0 -0.18203102113E+02  0.36308846575E+03 -0.30233217344E+03  0.47283118551E+03  0.00000000000E+00 0.  1.
        -13    1    3    3    0    0 -0.73302350334E+02  0.30958485384E+03 -0.35065100199E+03  0.47346820536E+03  0.00000000000E+00 0. -1.
          4    1    5    5  502    0 -0.23151859396E+03 -0.43749738118E+03 -0.96201495396E+03  0.10818861260E+04  0.00000000000E+00 0.  1.
          1    1    6    6  503    0  0.26331764948E+02 -0.26725527697E+02 -0.93350291274E+02  0.10060761679E+03  0.00000000000E+00 0. -1.
         -4    1    5    5    0  502 -0.65504875871E+02 -0.21215180432E+03 -0.36052645310E+03  0.42341303738E+03  0.00000000000E+00 0. -1.
         -1    1    6    6    0  503  0.36219715733E+03  0.37013936061E+01 -0.90201840026E+03  0.97202761047E+03  0.00000000000E+00 0.  1.
<mgrwt>
<rscale>  0 0.18957893E+04</rscale>
<asrwt>0</asrwt>
<pdfrwt beam="1">  1        2 0.49962519E+00 0.18957893E+04</pdfrwt>
<pdfrwt beam="2">  1       -2 0.42564651E-01 0.18957893E+04</pdfrwt>
<totfact> 0.59440215E+00</totfact>
</mgrwt>
</event>
<event>
12    1  0.4820219E-008  0.1423437E+04  0.7818608E-02  0.8937027E-01
          2   -1    0    0  501    0  0.00000000000E+00  0.00000000000E+00  0.11675572276E+04  0.11675572276E+04  0.00000000000E+00 0. -1.
         -2   -1    0    0    0  501 -0.00000000000E+00 -0.00000000000E+00 -0.43384845195E+03  0.43384845195E+03  0.00000000000E+00 0.  1.
         23    2    1    2    0    0  0.73690694941E+02  0.22096513128E+03  0.61982643538E+03  0.66867995720E+03  0.93231793969E+02 0.  0.
        254    2    1    2    0    0 -0.73690694941E+02 -0.22096513128E+03  0.11388234027E+03  0.93272572236E+03  0.89596438431E+03 0.  0.
         23    2    4    4    0    0 -0.87574713782E+02  0.32694509106E+03  0.13785274915E+03  0.37676058490E+03  0.91557276200E+02 0.  0.
         23    2    4    4    0    0  0.13884018840E+02 -0.54791022234E+03 -0.23970408878E+02  0.55596513746E+03  0.90134764864E+02 0.  0.
         13    1    3    3    0    0  0.10802839759E+02  0.11677579561E+02  0.14626848899E+03  0.14713102352E+03  0.00000000000E+00 0.  1.
        -13    1    3    3    0    0  0.62887855183E+02  0.20928755172E+03  0.47355794639E+03  0.52154893368E+03  0.00000000000E+00 0. -1.
          1    1    5    5  502    0 -0.91633496818E+02  0.17103851094E+03  0.87686651923E+02  0.21293148872E+03  0.00000000000E+00 0. -1.
          3    1    6    6  503    0  0.34728987311E+02 -0.49277193444E+03 -0.37731975499E+02  0.49543312758E+03  0.00000000000E+00 0. -1.
         -1    1    5    5    0  502  0.40587830366E+01  0.15590658012E+03  0.50166097228E+02  0.16382909618E+03  0.00000000000E+00 0.  1.
         -3    1    6    6    0  503 -0.20844968471E+02 -0.55138287908E+02  0.13761566621E+02  0.60532009877E+02  0.00000000000E+00 0.  1.
<mgrwt>
<rscale>  0 0.14234365E+04</rscale>
<asrwt>0</asrwt>
<pdfrwt beam="1">  1        2 0.17962419E+00 0.14234365E+04</pdfrwt>
<pdfrwt beam="2">  1       -2 0.66745916E-01 0.14234365E+04</pdfrwt>
<totfact> 0.39691450E+01</totfact>
</mgrwt>
</event>
<event>
12    1  0.4820219E-008  0.1472290E+04  0.7818608E-02  0.8903092E-01
         -2   -1    0    0    0  501 -0.00000000000E+00  0.00000000000E+00  0.12225772339E+04  0.12225772339E+04  0.00000000000E+00 0.  1.
          2   -1    0    0  501    0  0.00000000000E+00 -0.00000000000E+00 -0.44325180284E+03  0.44325180284E+03  0.00000000000E+00 0. -1.
         23    2    1    2    0    0 -0.11867744504E+03  0.10955962030E+03  0.74473382347E+03  0.76748096429E+03  0.91164227423E+02 0.  0.
        254    2    1    2    0    0  0.11867744504E+03 -0.10955962030E+03  0.34591607629E+02  0.89834807248E+03  0.88303172857E+03 0.  0.
         23    2    4    4    0    0 -0.18820497891E+03 -0.37614940238E+03  0.16549435343E+03  0.46097744465E+03  0.90566751423E+02 0.  0.
         23    2    4    4    0    0  0.30688242395E+03  0.26658978209E+03 -0.13090274580E+03  0.43737062783E+03  0.94395991371E+02 0.  0.
         13    1    3    3    0    0 -0.10692984399E+03  0.93267280933E+02  0.44497211909E+03  0.46704706828E+03  0.00000000000E+00 0. -1.
        -13    1    3    3    0    0 -0.11747601049E+02  0.16292339362E+02  0.29976170439E+03  0.30043389601E+03  0.00000000000E+00 0.  1.
          2    1    5    5  502    0 -0.15120991791E+03 -0.31613772890E+03  0.99210403959E+02  0.36421176143E+03  0.00000000000E+00 0. -1.
          3    1    6    6  503    0  0.21315554946E+03  0.21169805966E+03 -0.56426328808E+02  0.30567186215E+03  0.00000000000E+00 0. -1.
         -2    1    5    5    0  502 -0.36995061003E+02 -0.60011673477E+02  0.66283949472E+02  0.96765683224E+02  0.00000000000E+00 0.  1.
         -3    1    6    6    0  503  0.93726874492E+02  0.54891722430E+02 -0.74476416994E+02  0.13169876568E+03  0.00000000000E+00 0.  1.
<mgrwt>
<rscale>  0 0.14722901E+04</rscale>
<asrwt>0</asrwt>
<pdfrwt beam="1">  1        2 0.68192586E-01 0.14722901E+04</pdfrwt>
<pdfrwt beam="2">  1       -2 0.18808880E+00 0.14722901E+04</pdfrwt>
<totfact> 0.10926269E+01</totfact>
</mgrwt>
</event>
<event>
12    1  0.4820219E-008  0.1813634E+04  0.7818608E-02  0.8699083E-01
          1   -1    0    0  501    0  0.00000000000E+00  0.00000000000E+00  0.27643756425E+04  0.27643756425E+04  0.00000000000E+00 0. -1.
         -1   -1    0    0    0  501 -0.00000000000E+00 -0.00000000000E+00 -0.29746933212E+03  0.29746933212E+03  0.00000000000E+00 0.  1.
         23    2    1    2    0    0 -0.37160173656E+03 -0.55952249105E+03  0.72470408596E+03  0.99220216733E+03  0.90088068258E+02 0.  0.
        254    2    1    2    0    0  0.37160173656E+03  0.55952249105E+03  0.17422022244E+04  0.20696428072E+04  0.89274827938E+03 0.  0.
         23    2    4    4    0    0 -0.26966006821E+03  0.19493784781E+03  0.34963217159E+03  0.49108853907E+03  0.90597907782E+02 0.  0.
         23    2    4    4    0    0  0.64126180477E+03  0.36458464324E+03  0.13925700528E+04  0.15785542682E+04  0.91888853106E+02 0.  0.
         13    1    3    3    0    0 -0.25064509514E+03 -0.40042856016E+03  0.44949654870E+03  0.65208369310E+03  0.00000000000E+00 0. -1.
        -13    1    3    3    0    0 -0.12095664142E+03 -0.15909393089E+03  0.27520753726E+03  0.34011847424E+03  0.00000000000E+00 0.  1.
          4    1    5    5  502    0 -0.45709537083E+02  0.80045051930E+02  0.77810426251E+02  0.12062766910E+03  0.00000000000E+00 0. -1.
          1    1    6    6  503    0  0.90010797430E+01 -0.37640302197E+01  0.84100929625E+01  0.12880878218E+02  0.00000000000E+00 0. -1.
         -4    1    5    5    0  502 -0.22395053112E+03  0.11489279588E+03  0.27182174534E+03  0.37046086997E+03  0.00000000000E+00 0.  1.
         -1    1    6    6    0  503  0.63226072502E+03  0.36834867346E+03  0.13841599598E+04  0.15656733900E+04  0.00000000000E+00 0.  1.
<mgrwt>
<rscale>  0 0.18136339E+04</rscale>
<asrwt>0</asrwt>
<pdfrwt beam="1">  1        1 0.42528854E+00 0.18136339E+04</pdfrwt>
<pdfrwt beam="2">  1       -1 0.45764514E-01 0.18136339E+04</pdfrwt>
<totfact> 0.39593185E+00</totfact>
</mgrwt>
</event>
<event>
12    1  0.4820219E-008  0.1831674E+04  0.7818608E-02  0.8689634E-01
          2   -1    0    0  501    0  0.00000000000E+00  0.00000000000E+00  0.85019004205E+03  0.85019004205E+03  0.00000000000E+00 0. -1.
         -2   -1    0    0    0  501 -0.00000000000E+00 -0.00000000000E+00 -0.98655328645E+03  0.98655328645E+03  0.00000000000E+00 0.  1.
         23    2    1    2    0    0 -0.11164998540E+03  0.37573970414E+03  0.52083499526E+03  0.65813804224E+03  0.90722355866E+02 0.  0.
        254    2    1    2    0    0  0.11164998540E+03 -0.37573970414E+03 -0.65719823966E+03  0.11786052863E+04  0.89641220990E+03 0.  0.
         23    2    4    4    0    0  0.22292288729E+02  0.27736467576E+03 -0.95997416098E+02  0.30810175595E+03  0.91011420293E+02 0.  0.
         23    2    4    4    0    0  0.89357696667E+02 -0.65310437991E+03 -0.56120082356E+03  0.87050353031E+03  0.91103802909E+02 0.  0.
         13    1    3    3    0    0  0.14361405597E+02  0.35547641208E+02  0.66197478401E+02  0.76498306601E+02  0.00000000000E+00 0.  1.
        -13    1    3    3    0    0 -0.12601139099E+03  0.34019206294E+03  0.45463751686E+03  0.58163973564E+03  0.00000000000E+00 0. -1.
          1    1    6    6  502    0  0.41911652497E+02 -0.24721759122E+03 -0.27155125236E+03  0.36961223827E+03  0.00000000000E+00 0. -1.
          1    1    5    5  503    0  0.28257634023E+02  0.56059658923E+02  0.83957505854E+01  0.63337728622E+02  0.00000000000E+00 0. -1.
         -1    1    5    5    0  503 -0.59653452942E+01  0.22130501684E+03 -0.10439316668E+03  0.24476402733E+03  0.00000000000E+00 0.  1.
         -1    1    6    6    0  502  0.47446044170E+02 -0.40588678869E+03 -0.28964957120E+03  0.50089129204E+03  0.00000000000E+00 0.  1.
<mgrwt>
<rscale>  0 0.18316744E+04</rscale>
<asrwt>0</asrwt>
<pdfrwt beam="1">  1        2 0.13079847E+00 0.18316744E+04</pdfrwt>
<pdfrwt beam="2">  1       -2 0.15177743E+00 0.18316744E+04</pdfrwt>
<totfact> 0.86733975E+00</totfact>
</mgrwt>
</event>
<event>
12    1  0.4820219E-008  0.2347515E+04  0.7818608E-02  0.8459419E-01
          1   -1    0    0  501    0  0.00000000000E+00  0.00000000000E+00  0.39711305213E+04  0.39711305213E+04  0.00000000000E+00 0. -1.
         -1   -1    0    0    0  501 -0.00000000000E+00 -0.00000000000E+00 -0.34693069416E+03  0.34693069416E+03  0.00000000000E+00 0.  1.
         23    2    1    2    0    0  0.17088526509E+03  0.68160360109E+03  0.28901345167E+04  0.29757256799E+04  0.90997552572E+02 0.  0.
        254    2    1    2    0    0 -0.17088526509E+03 -0.68160360109E+03  0.73406531045E+03  0.13423355356E+04  0.87705619386E+03 0.  0.
         23    2    4    4    0    0 -0.50812834823E+03 -0.40919435080E+03  0.30557182966E+03  0.72589205535E+03  0.88942104385E+02 0.  0.
         23    2    4    4    0    0  0.33724308314E+03 -0.27240925029E+03  0.42849348079E+03  0.61644348021E+03  0.91957623112E+02 0.  0.
         11    1    3    3    0    0  0.15787033515E+03  0.63220667087E+03  0.27610603991E+04  0.28369107926E+04  0.00000000000E+00 0. -1.
        -11    1    3    3    0    0  0.13014929937E+02  0.49396930213E+02  0.12907411757E+03  0.13881488732E+03  0.00000000000E+00 0.  1.
          4    1    5    5  502    0 -0.16598146550E+03 -0.82960993621E+02  0.79627464715E+02  0.20192302120E+03  0.00000000000E+00 0. -1.
          3    1    6    6  503    0  0.33105123162E+02 -0.70709457637E+02  0.69532100738E+02  0.10454898188E+03  0.00000000000E+00 0. -1.
         -4    1    5    5    0  502 -0.34214688273E+03 -0.32623335718E+03  0.22594436495E+03  0.52396903415E+03  0.00000000000E+00 0.  1.
         -3    1    6    6    0  503  0.30413795998E+03 -0.20169979265E+03  0.35896138005E+03  0.51189449833E+03  0.00000000000E+00 0.  1.
<mgrwt>
<rscale>  0 0.23475153E+04</rscale>
<asrwt>0</asrwt>
<pdfrwt beam="1">  1        1 0.61094312E+00 0.23475153E+04</pdfrwt>
<pdfrwt beam="2">  1       -1 0.53373956E-01 0.23475153E+04</pdfrwt>
<totfact> 0.32548739E-01</totfact>
</mgrwt>
</event>
<event>
12    1  0.4820219E-008  0.1825553E+04  0.7818608E-02  0.8692828E-01
         -1   -1    0    0    0  501 -0.00000000000E+00  0.00000000000E+00  0.15258087170E+04  0.15258087170E+04  0.00000000000E+00 0.  1.
          1   -1    0    0  501    0  0.00000000000E+00 -0.00000000000E+00 -0.54604527453E+03  0.54604527453E+03  0.00000000000E+00 0. -1.
         23    2    1    2    0    0 -0.71013081854E+02 -0.68581632909E+03  0.37259521818E+03  0.78864091157E+03  0.87979518965E+02 0.  0.
        254    2    1    2    0    0  0.71013081854E+02  0.68581632909E+03  0.60716822431E+03  0.12832130800E+04  0.89587703453E+03 0.  0.
         23    2    4    4    0    0  0.19569926007E+03  0.79100300931E+03  0.21410952856E+03  0.84777391456E+03  0.94306727473E+02 0.  0.
         23    2    4    4    0    0 -0.12468617821E+03 -0.10518668023E+03  0.39305869576E+03  0.43543916544E+03  0.92202211209E+02 0.  0.
         13    1    3    3    0    0  0.63508715241E+01 -0.26084392226E+01  0.74215462465E+01  0.10110236050E+02  0.00000000000E+00 0.  1.
        -13    1    3    3    0    0 -0.77363953378E+02 -0.68320788986E+03  0.36517367194E+03  0.77853067552E+03  0.00000000000E+00 0. -1.
          4    1    5    5  502    0  0.17685481918E+03  0.54045118912E+03  0.16035002672E+03  0.59082759410E+03  0.00000000000E+00 0. -1.
          3    1    6    6  503    0 -0.89563296731E+02 -0.10786742082E+03  0.23622554063E+03  0.27469887266E+03  0.00000000000E+00 0. -1.
         -4    1    5    5    0  502  0.18844440891E+02  0.25055182020E+03  0.53759501839E+02  0.25694632045E+03  0.00000000000E+00 0.  1.
         -3    1    6    6    0  503 -0.35122881482E+02  0.26807405981E+01  0.15683315513E+03  0.16074029277E+03  0.00000000000E+00 0.  1.
<mgrwt>
<rscale>  0 0.18255527E+04</rscale>
<asrwt>0</asrwt>
<pdfrwt beam="1">  1        1 0.84006966E-01 0.18255527E+04</pdfrwt>
<pdfrwt beam="2">  1       -1 0.23473980E+00 0.18255527E+04</pdfrwt>
<totfact> 0.32398628E+00</totfact>
</mgrwt>
</event>
<event>
12    1  0.4820219E-008  0.1469641E+04  0.7818608E-02  0.8904896E-01
         -2   -1    0    0    0  501 -0.00000000000E+00  0.00000000000E+00  0.35919709382E+03  0.35919709382E+03  0.00000000000E+00 0. -1.
          2   -1    0    0  501    0  0.00000000000E+00 -0.00000000000E+00 -0.15032448486E+04  0.15032448486E+04  0.00000000000E+00 0.  1.
         23    2    1    2    0    0 -0.14217671360E+03 -0.20881403616E+03  0.11481767949E+03  0.29351443515E+03  0.95656178748E+02 0.  0.
        254    2    1    2    0    0  0.14217671360E+03  0.20881403616E+03 -0.12588654343E+04  0.15689275073E+04  0.90165060964E+03 0.  0.
         23    2    4    4    0    0  0.61872021076E+02  0.43563191772E+03 -0.12312964464E+04  0.13108302493E+04  0.92637406038E+02 0.  0.
         23    2    4    4    0    0  0.80304692525E+02 -0.22681788155E+03 -0.27568987933E+02  0.25809725796E+03  0.89212949949E+02 0.  0.
         13    1    3    3    0    0 -0.19474215436E+02 -0.14021398224E+02 -0.15888742803E+02  0.28780146331E+02  0.00000000000E+00 0.  1.
        -13    1    3    3    0    0 -0.12270249817E+03 -0.19479263794E+03  0.13070642229E+03  0.26473428882E+03  0.00000000000E+00 0. -1.
          2    1    5    5  502    0  0.68008712176E+02  0.24122266009E+03 -0.59976741013E+03  0.65002654017E+03  0.00000000000E+00 0. -1.
          3    1    6    6  503    0  0.19076113509E+02 -0.17503638787E+03 -0.12599172960E+02  0.17652301364E+03  0.00000000000E+00 0. -1.
         -2    1    5    5    0  502 -0.61366911000E+01  0.19440925763E+03 -0.63152903622E+03  0.66080370915E+03  0.00000000000E+00 0.  1.
         -3    1    6    6    0  503  0.61228579016E+02 -0.51781493680E+02 -0.14969814974E+02  0.81574244320E+02  0.00000000000E+00 0.  1.
<mgrwt>
<rscale>  0 0.14696410E+04</rscale>
<asrwt>0</asrwt>
<pdfrwt beam="1">  1        2 0.23126844E+00 0.14696410E+04</pdfrwt>
<pdfrwt beam="2">  1       -2 0.55261092E-01 0.14696410E+04</pdfrwt>
<totfact> 0.37675866E+01</totfact>
</mgrwt>
</event>
<event>
12    1  0.4820219E-008  0.1288573E+04  0.7818608E-02  0.9038676E-01
         -2   -1    0    0    0  501 -0.00000000000E+00  0.00000000000E+00  0.40783887518E+03  0.40783887518E+03  0.00000000000E+00 0.  1.
          2   -1    0    0  501    0  0.00000000000E+00 -0.00000000000E+00 -0.10178167921E+04  0.10178167921E+04  0.00000000000E+00 0. -1.
         23    2    1    2    0    0  0.28901270242E+03  0.13830810713E+03 -0.20887921348E+03  0.39266544837E+03  0.88871558237E+02 0.  0.
        254    2    1    2    0    0 -0.28901270242E+03 -0.13830810713E+03 -0.40109870346E+03  0.10329902189E+04  0.89639898920E+03 0.  0.
         23    2    4    4    0    0 -0.18805133436E+03 -0.17786077752E+03 -0.67341088458E+03  0.72705702009E+03  0.90177216966E+02 0.  0.
         23    2    4    4    0    0 -0.10096136806E+03  0.39552670398E+02  0.27231218112E+03  0.30593319884E+03  0.87656069897E+02 0.  0.
         13    1    3    3    0    0  0.97919685806E+02  0.12644468037E+02 -0.32836485336E+02  0.10404990250E+03  0.00000000000E+00 0.  1.
        -13    1    3    3    0    0  0.19109301661E+03  0.12566363909E+03 -0.17604272815E+03  0.28861554587E+03  0.00000000000E+00 0. -1.
          4    1    5    5  502    0 -0.27519953184E+02 -0.47612114126E+02 -0.24869478803E+03  0.25470249082E+03  0.00000000000E+00 0. -1.
          1    1    6    6  503    0 -0.98803529623E+02  0.14483838749E+02  0.25874681769E+03  0.27734785868E+03  0.00000000000E+00 0. -1.
         -4    1    5    5    0  502 -0.16053138118E+03 -0.13024866340E+03 -0.42471609655E+03  0.47235452928E+03  0.00000000000E+00 0.  1.
         -1    1    6    6    0  503 -0.21578384325E+01  0.25068831649E+02  0.13565363433E+02  0.28585340159E+02  0.00000000000E+00 0.  1.
<mgrwt>
<rscale>  0 0.12885733E+04</rscale>
<asrwt>0</asrwt>
<pdfrwt beam="1">  1        2 0.15658720E+00 0.12885733E+04</pdfrwt>
<pdfrwt beam="2">  1       -2 0.62744443E-01 0.12885733E+04</pdfrwt>
<totfact> 0.56684776E+01</totfact>
</mgrwt>
</event>
<event>
12    1  0.4820219E-008  0.1289110E+04  0.7818608E-02  0.9038245E-01
          2   -1    0    0  501    0  0.00000000000E+00  0.00000000000E+00  0.53604765507E+03  0.53604765507E+03  0.00000000000E+00 0. -1.
         -2   -1    0    0    0  501 -0.00000000000E+00 -0.00000000000E+00 -0.77502708007E+03  0.77502708007E+03  0.00000000000E+00 0.  1.
         23    2    1    2    0    0  0.45483435186E+02  0.24485034352E+03  0.65541885527E+02  0.27380862500E+03  0.93032202863E+02 0.  0.
        254    2    1    2    0    0 -0.45483435186E+02 -0.24485034352E+03 -0.30452131053E+03  0.10372661101E+04  0.95977461993E+03 0.  0.
         23    2    4    4    0    0  0.39523226185E+03 -0.55559790758E+01  0.59558308577E+02  0.41082981649E+03  0.94839529115E+02 0.  0.
         23    2    4    4    0    0 -0.44071569704E+03 -0.23929436445E+03 -0.36407961911E+03  0.62643629364E+03  0.91522360483E+02 0.  0.
         13    1    3    3    0    0  0.41374699563E+02  0.13587048587E+03  0.81246239085E+02  0.16362642226E+03  0.00000000000E+00 0. -1.
        -13    1    3    3    0    0  0.41087356228E+01  0.10897985765E+03 -0.15704353558E+02  0.11018220275E+03  0.00000000000E+00 0.  1.
          2    1    5    5  502    0  0.29394758466E+00  0.99677676218E+01 -0.35395506105E+01  0.10581645197E+02  0.00000000000E+00 0.  1.
          3    1    6    6  503    0 -0.86627957903E+02 -0.54523663849E+02 -0.32668151802E+02  0.10744506109E+03  0.00000000000E+00 0. -1.
         -2    1    5    5    0  502  0.39493831427E+03 -0.15523746698E+02  0.63097859188E+02  0.40024817129E+03  0.00000000000E+00 0. -1.
         -3    1    6    6    0  503 -0.35408773914E+03 -0.18477070060E+03 -0.33141146730E+03  0.51899123255E+03  0.00000000000E+00 0.  1.
<mgrwt>
<rscale>  0 0.12891105E+04</rscale>
<asrwt>0</asrwt>
<pdfrwt beam="1">  1        2 0.82468871E-01 0.12891105E+04</pdfrwt>
<pdfrwt beam="2">  1       -2 0.11923493E+00 0.12891105E+04</pdfrwt>
<totfact> 0.30026430E+01</totfact>
</mgrwt>
</event>
<event>
12    1  0.4820219E-008  0.1418251E+04  0.7818608E-02  0.8940713E-01
          2   -1    0    0  501    0  0.00000000000E+00  0.00000000000E+00  0.19238336169E+04  0.19238336169E+04  0.00000000000E+00 0. -1.
         -2   -1    0    0    0  501 -0.00000000000E+00 -0.00000000000E+00 -0.26138365645E+03  0.26138365645E+03  0.00000000000E+00 0.  1.
         23    2    1    2    0    0  0.28466008611E+03 -0.22843055025E+03  0.82551176970E+03  0.90642504621E+03  0.83215392616E+02 0.  0.
        254    2    1    2    0    0 -0.28466008611E+03  0.22843055025E+03  0.83693819072E+03  0.12787922271E+04  0.89533912241E+03 0.  0.
         23    2    4    4    0    0  0.20357256084E+03 -0.15395061572E+03  0.54901110477E+02  0.27668992531E+03  0.91654804708E+02 0.  0.
         23    2    4    4    0    0 -0.48823264695E+03  0.38238116597E+03  0.78203708025E+03  0.10021023018E+04  0.89669140556E+02 0.  0.
         11    1    3    3    0    0  0.11339885580E+03 -0.12075350118E+03  0.29001260763E+03  0.33398805537E+03  0.00000000000E+00 0.  1.
        -11    1    3    3    0    0  0.17126123031E+03 -0.10767704907E+03  0.53549916207E+03  0.57243699084E+03  0.00000000000E+00 0. -1.
          2    1    5    5  502    0  0.57296532073E+02  0.18743982979E+01  0.80368095149E+01  0.57887790282E+02  0.00000000000E+00 0.  1.
          3    1    6    6  503    0 -0.27800045770E+03  0.27172348525E+03  0.49994405611E+03  0.63329453350E+03  0.00000000000E+00 0. -1.
         -2    1    5    5    0  502  0.14627602876E+03 -0.15582501402E+03  0.46864300962E+02  0.21880213502E+03  0.00000000000E+00 0. -1.
         -3    1    6    6    0  503 -0.21023218925E+03  0.11065768073E+03  0.28209302413E+03  0.36880776831E+03  0.00000000000E+00 0.  1.
<mgrwt>
<rscale>  0 0.14182506E+04</rscale>
<asrwt>0</asrwt>
<pdfrwt beam="1">  1        2 0.29597439E+00 0.14182506E+04</pdfrwt>
<pdfrwt beam="2">  1       -2 0.40212872E-01 0.14182506E+04</pdfrwt>
<totfact> 0.41917851E+01</totfact>
</mgrwt>
</event>
<event>
12    1  0.4820219E-008  0.2564044E+04  0.7818608E-02  0.8380518E-01
         -1   -1    0    0    0  501 -0.00000000000E+00  0.00000000000E+00  0.10878945473E+04  0.10878945473E+04  0.00000000000E+00 0.  1.
          1   -1    0    0  501    0  0.00000000000E+00 -0.00000000000E+00 -0.15107900046E+04  0.15107900046E+04  0.00000000000E+00 0. -1.
         23    2    1    2    0    0  0.45733541614E+03  0.84399381235E+03  0.40470645781E+03  0.10456948218E+04  0.90604113078E+02 0.  0.
        254    2    1    2    0    0 -0.45733541614E+03 -0.84399381235E+03 -0.82760191504E+03  0.15529897301E+04  0.89742461176E+03 0.  0.
         23    2    4    4    0    0 -0.20259545335E+03 -0.83687277695E+03 -0.22891996124E+03  0.89585701355E+03  0.93565365136E+02 0.  0.
         23    2    4    4    0    0 -0.25473996279E+03 -0.71210353983E+01 -0.59868195380E+03  0.65713271652E+03  0.91979169024E+02 0.  0.
         11    1    3    3    0    0  0.29347791126E+03  0.52377276772E+03  0.20597385549E+03  0.63473807649E+03  0.00000000000E+00 0.  1.
        -11    1    3    3    0    0  0.16385750488E+03  0.32022104463E+03  0.19873260232E+03  0.41095674536E+03  0.00000000000E+00 0. -1.
          4    1    5    5  502    0 -0.86160338841E+02 -0.35012233756E+03 -0.14381071980E+03  0.38818910131E+03  0.00000000000E+00 0. -1.
          1    1    6    6  503    0 -0.80763761875E+02  0.80726967521E+01 -0.10023066328E+03  0.12897340628E+03  0.00000000000E+00 0. -1.
         -4    1    5    5    0  502 -0.11643511451E+03 -0.48675043939E+03 -0.85109241441E+02  0.50766791223E+03  0.00000000000E+00 0.  1.
         -1    1    6    6    0  503 -0.17397620091E+03 -0.15193732150E+02 -0.49845129052E+03  0.52815931024E+03  0.00000000000E+00 0.  1.
<mgrwt>
<rscale>  0 0.25640438E+04</rscale>
<asrwt>0</asrwt>
<pdfrwt beam="1">  1        1 0.23242923E+00 0.25640438E+04</pdfrwt>
<pdfrwt beam="2">  1       -1 0.16736839E+00 0.25640438E+04</pdfrwt>
<totfact> 0.14618963E+00</totfact>
</mgrwt>
</event>
<event>
12    1  0.4820219E-008  0.1397547E+04  0.7818608E-02  0.8955596E-01
          2   -1    0    0  501    0  0.00000000000E+00  0.00000000000E+00  0.10022312788E+04  0.10022312788E+04  0.00000000000E+00 0.  1.
         -2   -1    0    0    0  501 -0.00000000000E+00 -0.00000000000E+00 -0.48719748329E+03  0.48719748329E+03  0.00000000000E+00 0. -1.
         23    2    1    2    0    0 -0.20590325999E+03 -0.31564453857E+03  0.11214949313E+03  0.40442942444E+03  0.94646834797E+02 0.  0.
        254    2    1    2    0    0  0.20590325999E+03  0.31564453857E+03  0.40288430241E+03  0.10849993377E+04  0.93428056515E+03 0.  0.
         23    2    4    4    0    0  0.46347500581E+03  0.19567869802E+02  0.48198926973E+03  0.67389064916E+03  0.81381621681E+02 0.  0.
         23    2    4    4    0    0 -0.25757174582E+03  0.29607666877E+03 -0.79104967322E+02  0.41110868852E+03  0.93531598352E+02 0.  0.
         11    1    3    3    0    0 -0.66229041971E+02 -0.12463296297E+03  0.88570239573E+02  0.16662637485E+03  0.00000000000E+00 0.  1.
        -11    1    3    3    0    0 -0.13967421802E+03 -0.19101157560E+03  0.23579253559E+02  0.23780304958E+03  0.00000000000E+00 0. -1.
          4    1    5    5  502    0  0.50762114519E+01 -0.98697858494E-02 -0.32921013565E+01  0.60502852378E+01  0.00000000000E+00 0. -1.
          4    1    6    6  503    0 -0.78726774042E+00 -0.59074528545E+01  0.23856396638E+01  0.64194288164E+01  0.00000000000E+00 0. -1.
         -4    1    5    5    0  502  0.45839879436E+03  0.19577739588E+02  0.48528137109E+03  0.66784036392E+03  0.00000000000E+00 0.  1.
         -4    1    6    6    0  503 -0.25678447808E+03  0.30198412162E+03 -0.81490606985E+02  0.40468925970E+03  0.00000000000E+00 0.  1.
<mgrwt>
<rscale>  0 0.13975472E+04</rscale>
<asrwt>0</asrwt>
<pdfrwt beam="1">  1        2 0.15418943E+00 0.13975472E+04</pdfrwt>
<pdfrwt beam="2">  1       -2 0.74953459E-01 0.13975472E+04</pdfrwt>
<totfact> 0.39088896E+01</totfact>
</mgrwt>
</event>
<event>
12    1  0.4820219E-008  0.1200429E+04  0.7818608E-02  0.9112481E-01
         -1   -1    0    0    0  501 -0.00000000000E+00  0.00000000000E+00  0.21139003665E+03  0.21139003665E+03  0.00000000000E+00 0.  1.
          1   -1    0    0  501    0  0.00000000000E+00 -0.00000000000E+00 -0.17042316228E+04  0.17042316228E+04  0.00000000000E+00 0. -1.
         23    2    1    2    0    0 -0.98511450913E+02 -0.24922763118E+03 -0.40641872081E+03  0.49514047909E+03  0.90382516551E+02 0.  0.
        254    2    1    2    0    0  0.98511450913E+02  0.24922763118E+03 -0.10864228653E+04  0.14204811803E+04  0.87500469901E+03 0.  0.
         23    2    4    4    0    0  0.52284893298E+02  0.54706580339E+03 -0.47276692692E+03  0.73077004582E+03  0.92204063736E+02 0.  0.
         23    2    4    4    0    0  0.46226557616E+02 -0.29783817221E+03 -0.61365593837E+03  0.68971113449E+03  0.91013003998E+02 0.  0.
         13    1    3    3    0    0 -0.38368937864E+02 -0.72087209135E+02 -0.59643568730E+02  0.10112416331E+03  0.00000000000E+00 0. -1.
        -13    1    3    3    0    0 -0.60142513049E+02 -0.17714042204E+03 -0.34677515208E+03  0.39401631578E+03  0.00000000000E+00 0.  1.
          4    1    5    5  502    0 -0.12246432598E+02  0.27940981029E+03 -0.20551992895E+03  0.34707097025E+03  0.00000000000E+00 0. -1.
          1    1    6    6  503    0  0.51043653778E+02 -0.73269799501E+02 -0.15143878376E+03  0.17580564080E+03  0.00000000000E+00 0. -1.
         -4    1    5    5    0  502  0.64531325896E+02  0.26765599310E+03 -0.26724699798E+03  0.38369907557E+03  0.00000000000E+00 0.  1.
         -1    1    6    6    0  503 -0.48170961625E+01 -0.22456837271E+03 -0.46221715461E+03  0.51390549369E+03  0.00000000000E+00 0.  1.
<mgrwt>
<rscale>  0 0.12004292E+04</rscale>
<asrwt>0</asrwt>
<pdfrwt beam="1">  1        1 0.26218948E+00 0.12004292E+04</pdfrwt>
<pdfrwt beam="2">  1       -1 0.32521544E-01 0.12004292E+04</pdfrwt>
<totfact> 0.41470320E+01</totfact>
</mgrwt>
</event>
<event>
12    1  0.4820219E-008  0.1281088E+04  0.7818608E-02  0.9044699E-01
          1   -1    0    0  501    0  0.00000000000E+00  0.00000000000E+00  0.93726854837E+03  0.93726854837E+03  0.00000000000E+00 0. -1.
         -1   -1    0    0    0  501 -0.00000000000E+00 -0.00000000000E+00 -0.43775770094E+03  0.43775770094E+03  0.00000000000E+00 0.  1.
         23    2    1    2    0    0 -0.18598236169E+03 -0.16475296755E+03 -0.74754452608E+02  0.28202713347E+03  0.11053549950E+03 0.  0.
        254    2    1    2    0    0  0.18598236169E+03  0.16475296755E+03  0.57426530003E+03  0.10929991158E+04  0.89617713273E+03 0.  0.
         23    2    4    4    0    0 -0.13078911583E+03  0.34904376593E+03  0.60211296622E+03  0.71409108292E+03  0.91916849719E+02 0.  0.
         23    2    4    4    0    0  0.31677147753E+03 -0.18429079838E+03 -0.27847666181E+02  0.37890803292E+03  0.92133259768E+02 0.  0.
         13    1    3    3    0    0 -0.84503617023E+02 -0.51146564210E+02  0.22489204368E+02  0.10130447489E+03  0.00000000000E+00 0. -1.
        -13    1    3    3    0    0 -0.10147874467E+03 -0.11360640334E+03 -0.97243656976E+02  0.18072265857E+03  0.00000000000E+00 0.  1.
          1    1    5    5  502    0 -0.48306178315E+02  0.14196766573E+03  0.32899943571E+03  0.36156456363E+03  0.00000000000E+00 0. -1.
          3    1    6    6  503    0  0.11619023332E+03 -0.92262527755E+02  0.28646106619E+02  0.15110639884E+03  0.00000000000E+00 0. -1.
         -1    1    5    5    0  502 -0.82482937520E+02  0.20707610020E+03  0.27311353051E+03  0.35252651929E+03  0.00000000000E+00 0.  1.
         -3    1    6    6    0  503  0.20058124421E+03 -0.92028270628E+02 -0.56493772800E+02  0.22780163408E+03  0.00000000000E+00 0.  1.
<mgrwt>
<rscale>  0 0.12810879E+04</rscale>
<asrwt>0</asrwt>
<pdfrwt beam="1">  1        1 0.14419516E+00 0.12810879E+04</pdfrwt>
<pdfrwt beam="2">  1       -1 0.67347339E-01 0.12810879E+04</pdfrwt>
<totfact> 0.37290804E+01</totfact>
</mgrwt>
</event>
<event>
12    1  0.4820219E-008  0.1305752E+04  0.7818608E-02  0.9025016E-01
         -1   -1    0    0    0  501 -0.00000000000E+00  0.00000000000E+00  0.12036239218E+04  0.12036239218E+04  0.00000000000E+00 0.  1.
          1   -1    0    0  501    0  0.00000000000E+00 -0.00000000000E+00 -0.35413656411E+03  0.35413656411E+03  0.00000000000E+00 0. -1.
         23    2    1    2    0    0 -0.41991609015E+02  0.31882341037E+03  0.31814980669E+03  0.46146617132E+03  0.91214393313E+02 0.  0.
        254    2    1    2    0    0  0.41991609015E+02 -0.31882341037E+03  0.53133755100E+03  0.10962943146E+04  0.90339911937E+03 0.  0.
         23    2    4    4    0    0 -0.44617626487E+02  0.71067598414E+02 -0.21188803460E+03  0.24756517709E+03  0.96698715395E+02 0.  0.
         23    2    4    4    0    0  0.86609235501E+02 -0.38989100879E+03  0.74322558561E+03  0.84872913751E+03  0.91873387577E+02 0.  0.
         13    1    3    3    0    0 -0.32652351176E+02  0.31719324244E+03  0.32006336407E+03  0.45179451757E+03  0.00000000000E+00 0.  1.
        -13    1    3    3    0    0 -0.93392578385E+01  0.16301679358E+01 -0.19135573797E+01  0.96716537530E+01  0.00000000000E+00 0. -1.
          4    1    5    5  502    0  0.19473048967E+02  0.56254586371E+02 -0.12623674570E+03  0.13956895818E+03  0.00000000000E+00 0. -1.
          3    1    6    6  503    0  0.15290080371E+02 -0.24909568497E+03  0.49929946859E+03  0.55819567014E+03  0.00000000000E+00 0. -1.
         -4    1    5    5    0  502 -0.64090675453E+02  0.14813012043E+02 -0.85651288905E+02  0.10799621890E+03  0.00000000000E+00 0.  1.
         -3    1    6    6    0  503  0.71319155130E+02 -0.14079532382E+03  0.24392611702E+03  0.29053346737E+03  0.00000000000E+00 0.  1.
<mgrwt>
<rscale>  0 0.13057523E+04</rscale>
<asrwt>0</asrwt>
<pdfrwt beam="1">  1        1 0.54482549E-01 0.13057523E+04</pdfrwt>
<pdfrwt beam="2">  1       -1 0.18517291E+00 0.13057523E+04</pdfrwt>
<totfact> 0.13236019E+01</totfact>
</mgrwt>
</event>
<event>
12    1  0.4820219E-008  0.1308102E+04  0.7818608E-02  0.9023165E-01
          3   -1    0    0  501    0  0.00000000000E+00  0.00000000000E+00  0.20239749803E+04  0.20239749803E+04  0.00000000000E+00 0.  1.
         -3   -1    0    0    0  501 -0.00000000000E+00 -0.00000000000E+00 -0.21135755099E+03  0.21135755099E+03  0.00000000000E+00 0. -1.
         23    2    1    2    0    0 -0.18171781216E+03 -0.83190684510E+02  0.92306910120E+03  0.94848330387E+03  0.87303830932E+02 0.  0.
        254    2    1    2    0    0  0.18171781216E+03  0.83190684510E+02  0.88954832811E+03  0.12868492274E+04  0.90815343022E+03 0.  0.
         23    2    4    4    0    0 -0.29699559528E+03  0.18469064176E+03  0.14292383998E+03  0.38942159589E+03  0.94365981923E+02 0.  0.
         23    2    4    4    0    0  0.47871340744E+03 -0.10149995725E+03  0.74662448812E+03  0.89742763153E+03  0.91975321598E+02 0.  0.
         13    1    3    3    0    0 -0.15535979209E+03 -0.10134166411E+03  0.76053061016E+03  0.78282412257E+03  0.00000000000E+00 0. -1.
        -13    1    3    3    0    0 -0.26358020069E+02  0.18150979597E+02  0.16253849104E+03  0.16565918131E+03  0.00000000000E+00 0.  1.
          2    1    5    5  502    0 -0.17578821948E+03  0.15107915694E+03  0.62289767221E+02  0.24001338477E+03  0.00000000000E+00 0. -1.
          3    1    6    6  503    0  0.47577824406E+03 -0.88180128542E+02  0.73152354640E+03  0.87707888558E+03  0.00000000000E+00 0. -1.
         -2    1    5    5    0  502 -0.12120737580E+03  0.33611484815E+02  0.80634072761E+02  0.14940821112E+03  0.00000000000E+00 0.  1.
         -3    1    6    6    0  503  0.29351633765E+01 -0.13319828703E+02  0.15100941720E+02  0.20348745946E+02  0.00000000000E+00 0.  1.
<mgrwt>
<rscale>  0 0.13081015E+04</rscale>
<asrwt>0</asrwt>
<pdfrwt beam="1">  1        3 0.31138075E+00 0.13081015E+04</pdfrwt>
<pdfrwt beam="2">  1       -3 0.32516548E-01 0.13081015E+04</pdfrwt>
<totfact> 0.80667944E-01</totfact>
</mgrwt>
</event>
<event>
12    1  0.4820219E-008  0.1244319E+04  0.7818608E-02  0.9074925E-01
         -1   -1    0    0    0  501 -0.00000000000E+00  0.00000000000E+00  0.58204054850E+03  0.58204054850E+03  0.00000000000E+00 0.  1.
          1   -1    0    0  501    0  0.00000000000E+00 -0.00000000000E+00 -0.66504377817E+03  0.66504377817E+03  0.00000000000E+00 0. -1.
         23    2    1    2    0    0  0.22953286804E+03 -0.73943294521E+02  0.15043327285E+03  0.29831674123E+03  0.90607727056E+02 0.  0.
        254    2    1    2    0    0 -0.22953286804E+03  0.73943294521E+02 -0.23343650252E+03  0.94876758544E+03  0.88742007086E+03 0.  0.
         23    2    4    4    0    0 -0.43636491047E+03  0.21263956402E+03 -0.40028217848E+03  0.63564145756E+03  0.90467236495E+02 0.  0.
         23    2    4    4    0    0  0.20683204243E+03 -0.13869626950E+03  0.16684567596E+03  0.31312612788E+03  0.90522612796E+02 0.  0.
         13    1    3    3    0    0  0.22293307196E+03 -0.64231787500E+02  0.11103031773E+03  0.25720149407E+03  0.00000000000E+00 0. -1.
        -13    1    3    3    0    0  0.65997960860E+01 -0.97115070205E+01  0.39402955117E+02  0.41115247158E+02  0.00000000000E+00 0.  1.
          1    1    5    5  502    0 -0.34732495351E+03  0.20451384074E+03 -0.30912764919E+03  0.50795712209E+03  0.00000000000E+00 0. -1.
          1    1    6    6  503    0  0.14412889542E+03 -0.14050852430E+03  0.13822517967E+03  0.24417613354E+03  0.00000000000E+00 0. -1.
         -1    1    5    5    0  502 -0.89039956958E+02  0.81257232819E+01 -0.91154529291E+02  0.12768433547E+03  0.00000000000E+00 0.  1.
         -1    1    6    6    0  503  0.62703147009E+02  0.18122547946E+01  0.28620496293E+02  0.68949994346E+02  0.00000000000E+00 0.  1.
<mgrwt>
<rscale>  0 0.12443190E+04</rscale>
<asrwt>0</asrwt>
<pdfrwt beam="1">  1        1 0.10231443E+00 0.12443190E+04</pdfrwt>
<pdfrwt beam="2">  1       -1 0.89544700E-01 0.12443190E+04</pdfrwt>
<totfact> 0.35492368E+01</totfact>
</mgrwt>
</event>
<event>
12    1  0.4820219E-008  0.1632985E+04  0.7818608E-02  0.8800536E-01
         -1   -1    0    0    0  501 -0.00000000000E+00  0.00000000000E+00  0.32666685560E+04  0.32666685560E+04  0.00000000000E+00 0.  1.
          1   -1    0    0  501    0  0.00000000000E+00 -0.00000000000E+00 -0.20407950289E+03  0.20407950289E+03  0.00000000000E+00 0. -1.
         23    2    1    2    0    0  0.51484486582E+03 -0.18179896468E+03  0.13674918887E+04  0.14753508172E+04  0.92248949454E+02 0.  0.
        254    2    1    2    0    0 -0.51484486582E+03  0.18179896468E+03  0.16950971644E+04  0.19953972417E+04  0.90007758334E+03 0.  0.
         23    2    4    4    0    0  0.34288158699E+02  0.42270490201E+03  0.55970751744E+03  0.70811381718E+03  0.91090949076E+02 0.  0.
         23    2    4    4    0    0 -0.54913302452E+03 -0.24090593733E+03  0.11353896470E+04  0.12872834245E+04  0.91685415172E+02 0.  0.
         13    1    3    3    0    0  0.14143430084E+01  0.41712907212E+01  0.35439844647E+02  0.35712499507E+02  0.00000000000E+00 0. -1.
        -13    1    3    3    0    0  0.51343052281E+03 -0.18597025540E+03  0.13320520441E+04  0.14396383177E+04  0.00000000000E+00 0.  1.
          4    1    6    6  502    0 -0.27193628930E+02 -0.33700169625E+01  0.10012416036E+03  0.10380605935E+03  0.00000000000E+00 0.  1.
          4    1    5    5  503    0  0.21655040060E+02  0.23197387347E+03  0.38010530783E+03  0.44582604654E+03  0.00000000000E+00 0. -1.
         -4    1    5    5    0  503  0.12633118639E+02  0.19073102854E+03  0.17960220961E+03  0.26228777065E+03  0.00000000000E+00 0.  1.
         -4    1    6    6    0  502 -0.52193939559E+03 -0.23753592037E+03  0.10352654866E+04  0.11834773652E+04  0.00000000000E+00 0. -1.
<mgrwt>
<rscale>  0 0.16329851E+04</rscale>
<asrwt>0</asrwt>
<pdfrwt beam="1">  1        1 0.31396849E-01 0.16329851E+04</pdfrwt>
<pdfrwt beam="2">  1       -1 0.50256435E+00 0.16329851E+04</pdfrwt>
<totfact> 0.19847940E-01</totfact>
</mgrwt>
</event>
<event>
12    1  0.4820219E-008  0.1748785E+04  0.7818608E-02  0.8734019E-01
         -1   -1    0    0    0  501 -0.00000000000E+00  0.00000000000E+00  0.26376336013E+03  0.26376336013E+03  0.00000000000E+00 0.  1.
          1   -1    0    0  501    0  0.00000000000E+00 -0.00000000000E+00 -0.28986688772E+04  0.28986688772E+04  0.00000000000E+00 0. -1.
         23    2    1    2    0    0  0.41754256972E+03  0.18405366485E+02 -0.18441391153E+04  0.18930857012E+04  0.90795597068E+02 0.  0.
        254    2    1    2    0    0 -0.41754256972E+03 -0.18405366485E+02 -0.79076640172E+03  0.12693465361E+04  0.90069338374E+03 0.  0.
         23    2    4    4    0    0 -0.10181146240E+03  0.11994445806E+03 -0.88256663565E+03  0.90112541389E+03  0.91383249570E+02 0.  0.
         23    2    4    4    0    0 -0.31573110732E+03 -0.13834982455E+03  0.91800233929E+02  0.36822112219E+03  0.91283655661E+02 0.  0.
         11    1    3    3    0    0  0.35752994977E+03  0.32379653815E+01 -0.16808660759E+04  0.17184728437E+04  0.00000000000E+00 0. -1.
        -11    1    3    3    0    0  0.60012619948E+02  0.15167401103E+02 -0.16327303937E+03  0.17461285747E+03  0.00000000000E+00 0.  1.
          4    1    5    5  502    0 -0.76133039357E+02  0.97593337035E+02 -0.43503880374E+03  0.45230460961E+03  0.00000000000E+00 0. -1.
          1    1    6    6  503    0 -0.23843559603E+02 -0.43633409904E+02  0.12560139235E+02  0.51284957756E+02  0.00000000000E+00 0.  1.
         -4    1    5    5    0  502 -0.25678423041E+02  0.22351121030E+02 -0.44752783191E+03  0.44882080428E+03  0.00000000000E+00 0.  1.
         -1    1    6    6    0  503 -0.29188754772E+03 -0.94716414645E+02  0.79240094694E+02  0.31693616443E+03  0.00000000000E+00 0. -1.
<mgrwt>
<rscale>  0 0.17487855E+04</rscale>
<asrwt>0</asrwt>
<pdfrwt beam="1">  1        1 0.44594903E+00 0.17487855E+04</pdfrwt>
<pdfrwt beam="2">  1       -1 0.40578981E-01 0.17487855E+04</pdfrwt>
<totfact> 0.39927937E+00</totfact>
</mgrwt>
</event>
<event>
12    1  0.4820219E-008  0.1320470E+04  0.7818608E-02  0.9013488E-01
         -2   -1    0    0    0  501 -0.00000000000E+00  0.00000000000E+00  0.11707893518E+04  0.11707893518E+04  0.00000000000E+00 0.  1.
          2   -1    0    0  501    0  0.00000000000E+00 -0.00000000000E+00 -0.37232184086E+03  0.37232184086E+03  0.00000000000E+00 0. -1.
         23    2    1    2    0    0  0.87674192651E+02  0.15966267217E+03  0.41428568619E+03  0.46183191281E+03  0.92071455761E+02 0.  0.
        254    2    1    2    0    0 -0.87674192651E+02 -0.15966267217E+03  0.38418182478E+03  0.10812792799E+04  0.99417819010E+03 0.  0.
         23    2    4    4    0    0 -0.32874376123E+03  0.25047580722E+03 -0.56095794716E+02  0.42684632325E+03  0.90776951543E+02 0.  0.
         23    2    4    4    0    0  0.24106956858E+03 -0.41013847940E+03  0.44027761950E+03  0.65443295664E+03  0.90055556885E+02 0.  0.
         13    1    3    3    0    0  0.29250233718E+02  0.65616179058E+02  0.70486277755E+02  0.10064479360E+03  0.00000000000E+00 0. -1.
        -13    1    3    3    0    0  0.58423958932E+02  0.94046493116E+02  0.34379940843E+03  0.36118711921E+03  0.00000000000E+00 0.  1.
          2    1    5    5  502    0 -0.29612191288E+03  0.23162867719E+03 -0.77005921576E+02  0.38375766226E+03  0.00000000000E+00 0. -1.
          4    1    6    6  503    0  0.20053284334E+03 -0.34240452829E+03  0.40803874527E+03  0.56916596867E+03  0.00000000000E+00 0. -1.
         -2    1    5    5    0  502 -0.32621848347E+02  0.18847130030E+02  0.20910126860E+02  0.43088660983E+02  0.00000000000E+00 0.  1.
         -4    1    6    6    0  503  0.40536725241E+02 -0.67733951108E+02  0.32238874233E+02  0.85266987972E+02  0.00000000000E+00 0.  1.
<mgrwt>
<rscale>  0 0.13204703E+04</rscale>
<asrwt>0</asrwt>
<pdfrwt beam="1">  1        2 0.57280284E-01 0.13204703E+04</pdfrwt>
<pdfrwt beam="2">  1       -2 0.18012144E+00 0.13204703E+04</pdfrwt>
<totfact> 0.15253332E+01</totfact>
</mgrwt>
</event>
<event>
12    1  0.4820219E-008  0.1503331E+04  0.7818608E-02  0.8882241E-01
          1   -1    0    0  501    0  0.00000000000E+00  0.00000000000E+00  0.11195150013E+04  0.11195150013E+04  0.00000000000E+00 0. -1.
         -1   -1    0    0    0  501 -0.00000000000E+00 -0.00000000000E+00 -0.50468390499E+03  0.50468390499E+03  0.00000000000E+00 0.  1.
         23    2    1    2    0    0 -0.18933168696E+03 -0.78367502657E+02 -0.27911526586E+03  0.35879528708E+03  0.94025386131E+02 0.  0.
        254    2    1    2    0    0  0.18933168696E+03  0.78367502657E+02  0.89394636218E+03  0.12654036192E+04  0.87184761737E+03 0.  0.
         23    2    4    4    0    0 -0.33879917582E+03  0.80219856497E+02  0.34585002072E+03  0.49908024802E+03  0.90822630520E+02 0.  0.
         23    2    4    4    0    0  0.52813086278E+03 -0.18523538401E+01  0.54809634146E+03  0.76632337120E+03  0.88973424611E+02 0.  0.
         13    1    3    3    0    0 -0.85736737874E+02 -0.54290041051E+02 -0.20627806640E+03  0.22988875017E+03  0.00000000000E+00 0.  1.
        -13    1    3    3    0    0 -0.10359494908E+03 -0.24077461606E+02 -0.72837199465E+02  0.12890653691E+03  0.00000000000E+00 0. -1.
          2    1    5    5  502    0 -0.32229576141E+03  0.96679392305E+02  0.32488620060E+03  0.46773123272E+03  0.00000000000E+00 0. -1.
          1    1    6    6  503    0  0.36933024222E+03 -0.36622168098E+02  0.40988517371E+03  0.55294833994E+03  0.00000000000E+00 0. -1.
         -2    1    5    5    0  502 -0.16503414417E+02 -0.16459535808E+02  0.20963820121E+02  0.31349015303E+02  0.00000000000E+00 0.  1.
         -1    1    6    6    0  503  0.15880062056E+03  0.34769814257E+02  0.13821116774E+03  0.21337503125E+03  0.00000000000E+00 0.  1.
<mgrwt>
<rscale>  0 0.15033312E+04</rscale>
<asrwt>0</asrwt>
<pdfrwt beam="1">  1        1 0.17223308E+00 0.15033312E+04</pdfrwt>
<pdfrwt beam="2">  1       -1 0.77643678E-01 0.15033312E+04</pdfrwt>
<totfact> 0.19706341E+01</totfact>
</mgrwt>
</event>
<event>
12    1  0.4820219E-008  0.1809734E+04  0.7818608E-02  0.8701140E-01
          2   -1    0    0  501    0  0.00000000000E+00  0.00000000000E+00  0.12241599536E+04  0.12241599536E+04  0.00000000000E+00 0. -1.
         -2   -1    0    0    0  501 -0.00000000000E+00 -0.00000000000E+00 -0.66885430526E+03  0.66885430526E+03  0.00000000000E+00 0.  1.
         23    2    1    2    0    0 -0.64320860592E+02  0.42913457784E+03  0.75331258165E+03  0.87390756981E+03  0.89111929006E+02 0.  0.
        254    2    1    2    0    0  0.64320860592E+02 -0.42913457784E+03 -0.19800693327E+03  0.10191066891E+04  0.90059871148E+03 0.  0.
         23    2    4    4    0    0 -0.24919110023E+03  0.12316476799E+03  0.10286326673E+03  0.31018603689E+03  0.91480934254E+02 0.  0.
         23    2    4    4    0    0  0.31351196082E+03 -0.55229934583E+03 -0.30087020000E+03  0.70892065220E+03  0.93387884035E+02 0.  0.
         13    1    3    3    0    0 -0.20584126200E+02  0.45529038868E+02  0.45193219597E+02  0.67372299421E+02  0.00000000000E+00 0.  1.
        -13    1    3    3    0    0 -0.43736734391E+02  0.38360553897E+03  0.70811936205E+03  0.80653527039E+03  0.00000000000E+00 0. -1.
          4    1    5    5  502    0 -0.95157736927E+02  0.10349285421E+02  0.64553078322E+02  0.11545216553E+03  0.00000000000E+00 0.  1.
          1    1    6    6  503    0  0.34100995070E+02 -0.64231593173E+02 -0.70158758436E+02  0.10104863587E+03  0.00000000000E+00 0. -1.
         -4    1    5    5    0  502 -0.15403336330E+03  0.11281548257E+03  0.38310188410E+02  0.19473387136E+03  0.00000000000E+00 0. -1.
         -1    1    6    6    0  503  0.27941096575E+03 -0.48806775266E+03 -0.23071144157E+03  0.60787201633E+03  0.00000000000E+00 0.  1.
<mgrwt>
<rscale>  0 0.18097344E+04</rscale>
<asrwt>0</asrwt>
<pdfrwt beam="1">  1        2 0.18833230E+00 0.18097344E+04</pdfrwt>
<pdfrwt beam="2">  1       -2 0.10290066E+00 0.18097344E+04</pdfrwt>
<totfact> 0.13338165E+01</totfact>
</mgrwt>
</event>
<event>
12    1  0.4820219E-008  0.1550279E+04  0.7818608E-02  0.8851689E-01
          1   -1    0    0  501    0  0.00000000000E+00  0.00000000000E+00  0.11151393037E+04  0.11151393037E+04  0.00000000000E+00 0. -1.
         -1   -1    0    0    0  501 -0.00000000000E+00 -0.00000000000E+00 -0.53880399432E+03  0.53880399432E+03  0.00000000000E+00 0.  1.
         23    2    1    2    0    0 -0.94451536952E+02  0.42798855155E+03 -0.83030955076E+02  0.45598016943E+03  0.94490646733E+02 0.  0.
        254    2    1    2    0    0  0.94451536952E+02 -0.42798855155E+03  0.65936626444E+03  0.11979631286E+04  0.89903086356E+03 0.  0.
         23    2    4    4    0    0  0.58893996309E+02 -0.64495385830E+03  0.20663709992E+03  0.68658106837E+03  0.96232480123E+02 0.  0.
         23    2    4    4    0    0  0.35557540643E+02  0.21696530675E+03  0.45272916452E+03  0.51138206020E+03  0.90607019926E+02 0.  0.
         13    1    3    3    0    0 -0.84875787781E+02  0.35644925631E+03 -0.32460708694E+02  0.36785006359E+03  0.00000000000E+00 0.  1.
        -13    1    3    3    0    0 -0.95757491714E+01  0.71539295243E+02 -0.50570246382E+02  0.88130105839E+02  0.00000000000E+00 0. -1.
          4    1    5    5  502    0 -0.18987548123E+02 -0.21405306433E+03  0.93267762762E+02  0.23426078823E+03  0.00000000000E+00 0. -1.
          3    1    6    6  503    0  0.11717149916E+02  0.20551096096E+03  0.35728018752E+03  0.41233624516E+03  0.00000000000E+00 0. -1.
         -4    1    5    5    0  502  0.77881544433E+02 -0.43090079398E+03  0.11336933716E+03  0.45232028013E+03  0.00000000000E+00 0.  1.
         -3    1    6    6    0  503  0.23840390727E+02  0.11454345791E+02  0.95448976996E+02  0.99045815041E+02  0.00000000000E+00 0.  1.
<mgrwt>
<rscale>  0 0.15502793E+04</rscale>
<asrwt>0</asrwt>
<pdfrwt beam="1">  1        1 0.17155989E+00 0.15502793E+04</pdfrwt>
<pdfrwt beam="2">  1       -1 0.82892923E-01 0.15502793E+04</pdfrwt>
<totfact> 0.17202454E+01</totfact>
</mgrwt>
</event>
<event>
12    1  0.4820219E-008  0.1694255E+04  0.7818608E-02  0.8764648E-01
         -2   -1    0    0    0  501 -0.00000000000E+00  0.00000000000E+00  0.49155015138E+03  0.49155015138E+03  0.00000000000E+00 0.  1.
          2   -1    0    0  501    0  0.00000000000E+00 -0.00000000000E+00 -0.14599214975E+04  0.14599214975E+04  0.00000000000E+00 0. -1.
         23    2    1    2    0    0  0.17187368271E+03  0.13098292811E+02 -0.10178499440E+04  0.10364462400E+04  0.92142128559E+02 0.  0.
        254    2    1    2    0    0 -0.17187368271E+03 -0.13098292811E+02  0.49478597900E+02  0.91502540884E+03  0.89727991123E+03 0.  0.
         23    2    4    4    0    0 -0.40897536892E+03  0.16824345675E+03  0.27628478568E+03  0.52927517413E+03  0.90731549221E+02 0.  0.
         23    2    4    4    0    0  0.23710168621E+03 -0.18134174956E+03 -0.22680618778E+03  0.38575023472E+03  0.90885406044E+02 0.  0.
         13    1    3    3    0    0  0.18293416254E+03  0.11900321571E+02 -0.93010775263E+03  0.94800155959E+03  0.00000000000E+00 0. -1.
        -13    1    3    3    0    0 -0.11060479833E+02  0.11979712402E+01 -0.87742191381E+02  0.88444680437E+02  0.00000000000E+00 0.  1.
          1    1    6    6  502    0  0.23458692457E+02 -0.58182839166E+02 -0.26718199124E+02  0.68186620312E+02  0.00000000000E+00 0. -1.
          1    1    5    5  503    0 -0.35698983496E+02  0.33987190895E+02  0.59339937057E+02  0.77141264557E+02  0.00000000000E+00 0. -1.
         -1    1    5    5    0  503 -0.37327638543E+03  0.13425626586E+03  0.21694484862E+03  0.45213390957E+03  0.00000000000E+00 0.  1.
         -1    1    6    6    0  502  0.21364299376E+03 -0.12315891040E+03 -0.20008798866E+03  0.31756361441E+03  0.00000000000E+00 0.  1.
<mgrwt>
<rscale>  0 0.16942546E+04</rscale>
<asrwt>0</asrwt>
<pdfrwt beam="1">  1        2 0.22460330E+00 0.16942546E+04</pdfrwt>
<pdfrwt beam="2">  1       -2 0.75623101E-01 0.16942546E+04</pdfrwt>
<totfact> 0.19961402E+01</totfact>
</mgrwt>
</event>
<event>
12    1  0.4820219E-008  0.2097660E+04  0.7818608E-02  0.8562275E-01
          1   -1    0    0  501    0  0.00000000000E+00  0.00000000000E+00  0.18710496959E+04  0.18710496959E+04  0.00000000000E+00 0. -1.
         -1   -1    0    0    0  501 -0.00000000000E+00 -0.00000000000E+00 -0.58792901959E+03  0.58792901959E+03  0.00000000000E+00 0.  1.
         23    2    1    2    0    0  0.55294709475E+03 -0.43045679021E+03  0.10938606356E+04  0.13021441847E+04  0.89469826692E+02 0.  0.
        254    2    1    2    0    0 -0.55294709475E+03  0.43045679021E+03  0.18926004075E+03  0.11568345308E+04  0.90077923532E+03 0.  0.
         23    2    4    4    0    0  0.18459485326E+03 -0.78787583715E+02 -0.49140738216E+02  0.22491274879E+03  0.88815478484E+02 0.  0.
         23    2    4    4    0    0 -0.73754194801E+03  0.50924437392E+03  0.23840077896E+03  0.93192178201E+03  0.91352717094E+02 0.  0.
         13    1    3    3    0    0  0.47498899557E+03 -0.33243274745E+03  0.92976008487E+03  0.10957097667E+04  0.00000000000E+00 0. -1.
        -13    1    3    3    0    0  0.77958099182E+02 -0.98024042758E+02  0.16410055074E+03  0.20643441801E+03  0.00000000000E+00 0.  1.
          2    1    5    5  502    0  0.18774437449E+03 -0.82995524042E+02 -0.32960812321E+02  0.20790051061E+03  0.00000000000E+00 0. -1.
          1    1    6    6  503    0 -0.69695667445E+03  0.47709037976E+03  0.24572499050E+03  0.87962753906E+03  0.00000000000E+00 0. -1.
         -2    1    5    5    0  502 -0.31495212333E+01  0.42079403273E+01 -0.16179925894E+02  0.17012238176E+02  0.00000000000E+00 0.  1.
         -1    1    6    6    0  503 -0.40585273558E+02  0.32153994167E+02 -0.73242115334E+01  0.52294242945E+02  0.00000000000E+00 0.  1.
<mgrwt>
<rscale>  0 0.20976600E+04</rscale>
<asrwt>0</asrwt>
<pdfrwt beam="1">  1        1 0.28785380E+00 0.20976600E+04</pdfrwt>
<pdfrwt beam="2">  1       -1 0.90450619E-01 0.20976600E+04</pdfrwt>
<totfact> 0.40055291E+00</totfact>
</mgrwt>
</event>
<event>
12    1  0.4820219E-008  0.1201646E+04  0.7818608E-02  0.9111417E-01
          1   -1    0    0  501    0  0.00000000000E+00  0.00000000000E+00  0.11220482303E+04  0.11220482303E+04  0.00000000000E+00 0. -1.
         -1   -1    0    0    0  501 -0.00000000000E+00 -0.00000000000E+00 -0.32172241482E+03  0.32172241482E+03  0.00000000000E+00 0.  1.
         23    2    1    2    0    0 -0.22423932837E+03 -0.94256566056E+02  0.26803565517E+03  0.37128502167E+03  0.82715646894E+02 0.  0.
        254    2    1    2    0    0  0.22423932837E+03  0.94256566056E+02  0.53229016031E+03  0.10724856235E+04  0.89873523415E+03 0.  0.
         23    2    4    4    0    0  0.35442485697E+03  0.12832060290E+03 -0.11469364456E+03  0.40475898112E+03  0.92693280933E+02 0.  0.
         23    2    4    4    0    0 -0.13018552860E+03 -0.34064036844E+02  0.64698380488E+03  0.66772664233E+03  0.95719353532E+02 0.  0.
         11    1    3    3    0    0 -0.74283559332E+01  0.11203760900E+02  0.28054529013E+02  0.31108862537E+02  0.00000000000E+00 0.  1.
        -11    1    3    3    0    0 -0.21681097244E+03 -0.10546032696E+03  0.23998112616E+03  0.34017615914E+03  0.00000000000E+00 0. -1.
          4    1    5    5  502    0  0.25842706397E+03  0.12981004318E+03 -0.64025688897E+02  0.29620007350E+03  0.00000000000E+00 0. -1.
          3    1    6    6  503    0 -0.36201921511E+02 -0.40288004608E+02  0.11077093059E+03  0.12330410172E+03  0.00000000000E+00 0. -1.
         -4    1    5    5    0  502  0.95997792997E+02 -0.14894402788E+01 -0.50667955666E+02  0.10855890762E+03  0.00000000000E+00 0.  1.
         -3    1    6    6    0  503 -0.93983607087E+02  0.62239677649E+01  0.53621287428E+03  0.54442254061E+03  0.00000000000E+00 0.  1.
<mgrwt>
<rscale>  0 0.12016456E+04</rscale>
<asrwt>0</asrwt>
<pdfrwt beam="1">  1        1 0.17262280E+00 0.12016456E+04</pdfrwt>
<pdfrwt beam="2">  1       -1 0.49495757E-01 0.12016456E+04</pdfrwt>
<totfact> 0.49406953E+01</totfact>
</mgrwt>
</event>
<event>
12    1  0.4820219E-008  0.1921404E+04  0.7818608E-02  0.8644275E-01
          2   -1    0    0  501    0  0.00000000000E+00  0.00000000000E+00  0.16046404213E+04  0.16046404213E+04  0.00000000000E+00 0. -1.
         -2   -1    0    0    0  501 -0.00000000000E+00 -0.00000000000E+00 -0.57517460045E+03  0.57517460045E+03  0.00000000000E+00 0.  1.
         23    2    1    2    0    0  0.38940431077E+03 -0.53678078386E+03  0.19386098992E+02  0.66974262880E+03  0.91706274752E+02 0.  0.
        254    2    1    2    0    0 -0.38940431077E+03  0.53678078386E+03  0.10100797219E+04  0.15100723930E+04  0.90569766496E+03 0.  0.
         23    2    4    4    0    0 -0.13151377892E+03  0.26090508339E+02 -0.14573614281E+03  0.21722096339E+03  0.89271131646E+02 0.  0.
         23    2    4    4    0    0 -0.25789053186E+03  0.51069027552E+03  0.11558158647E+04  0.12928514296E+04  0.90787785350E+02 0.  0.
         11    1    3    3    0    0  0.33347780601E+03 -0.50458999394E+03  0.14038826748E+02  0.60499222949E+03  0.00000000000E+00 0. -1.
        -11    1    3    3    0    0  0.55926504757E+02 -0.32190789916E+02  0.53472722434E+01  0.64750399305E+02  0.00000000000E+00 0.  1.
          2    1    5    5  502    0 -0.11912177476E+03  0.22662715543E+02 -0.15819197636E+03  0.19931958580E+03  0.00000000000E+00 0.  1.
          1    1    6    6  503    0 -0.58450015081E+02  0.66261186159E+02  0.23619155833E+03  0.25217732110E+03  0.00000000000E+00 0. -1.
         -2    1    5    5    0  502 -0.12392004154E+02  0.34277927957E+01  0.12455833548E+02  0.17901377594E+02  0.00000000000E+00 0. -1.
         -1    1    6    6    0  503 -0.19944051677E+03  0.44442908936E+03  0.91962430639E+03  0.10406741085E+04  0.00000000000E+00 0.  1.
<mgrwt>
<rscale>  0 0.19214041E+04</rscale>
<asrwt>0</asrwt>
<pdfrwt beam="1">  1        2 0.24686776E+00 0.19214041E+04</pdfrwt>
<pdfrwt beam="2">  1       -2 0.88488401E-01 0.19214041E+04</pdfrwt>
<totfact> 0.11389417E+01</totfact>
</mgrwt>
</event>
<event>
12    1  0.4820219E-008  0.1633583E+04  0.7818608E-02  0.8800178E-01
         -2   -1    0    0    0  501 -0.00000000000E+00  0.00000000000E+00  0.78380697562E+03  0.78380697562E+03  0.00000000000E+00 0.  1.
          2   -1    0    0  501    0  0.00000000000E+00 -0.00000000000E+00 -0.85116399702E+03  0.85116399702E+03  0.00000000000E+00 0. -1.
         23    2    1    2    0    0 -0.55934567509E+03  0.10363204594E+03 -0.22506145554E+02  0.57599131253E+03  0.87477313221E+02 0.  0.
        254    2    1    2    0    0  0.55934567509E+03 -0.10363204594E+03 -0.44850875843E+02  0.10589796601E+04  0.89208695443E+03 0.  0.
         23    2    4    4    0    0  0.57925758338E+03  0.17363764552E+03  0.23281940269E+03  0.65415177481E+03  0.89556073875E+02 0.  0.
         23    2    4    4    0    0 -0.19911908289E+02 -0.27726969146E+03 -0.27767027853E+03  0.40482788530E+03  0.97518548178E+02 0.  0.
         11    1    3    3    0    0 -0.62046870386E+02  0.10829260046E+02 -0.30639960503E+02  0.70042088614E+02  0.00000000000E+00 0. -1.
        -11    1    3    3    0    0 -0.49729880471E+03  0.92802785893E+02  0.81338149485E+01  0.50594922392E+03  0.00000000000E+00 0.  1.
          4    1    5    5  502    0  0.55919638613E+03  0.17502758443E+03  0.20702632059E+03  0.62144601615E+03  0.00000000000E+00 0.  1.
          1    1    6    6  503    0  0.28164206922E+02 -0.12346449132E+03 -0.79967376712E+02  0.14977144089E+03  0.00000000000E+00 0. -1.
         -4    1    5    5    0  502  0.20061197254E+02 -0.13899389053E+01  0.25793082097E+02  0.32705758660E+02  0.00000000000E+00 0. -1.
         -1    1    6    6    0  503 -0.48076115211E+02 -0.15380520014E+03 -0.19770290182E+03  0.25505644440E+03  0.00000000000E+00 0.  1.
<mgrwt>
<rscale>  0 0.16335829E+04</rscale>
<asrwt>0</asrwt>
<pdfrwt beam="1">  1        2 0.13094831E+00 0.16335829E+04</pdfrwt>
<pdfrwt beam="2">  1       -2 0.12058569E+00 0.16335829E+04</pdfrwt>
<totfact> 0.15895100E+01</totfact>
</mgrwt>
</event>
<event>
12    1  0.4820219E-008  0.1788478E+04  0.7818608E-02  0.8712451E-01
          1   -1    0    0  501    0  0.00000000000E+00  0.00000000000E+00  0.23176386718E+04  0.23176386718E+04  0.00000000000E+00 0. -1.
         -1   -1    0    0    0  501 -0.00000000000E+00 -0.00000000000E+00 -0.34503357268E+03  0.34503357268E+03  0.00000000000E+00 0.  1.
         23    2    1    2    0    0  0.49398827100E+03  0.12163792711E+03  0.98708540977E+02  0.52610246389E+03  0.90665479924E+02 0.  0.
        254    2    1    2    0    0 -0.49398827100E+03 -0.12163792711E+03  0.18738965582E+04  0.21365697806E+04  0.89141568278E+03 0.  0.
         23    2    4    4    0    0 -0.38666587629E+03 -0.48682317071E+03  0.12690087337E+04  0.14160612591E+04  0.91318256953E+02 0.  0.
         23    2    4    4    0    0 -0.10732239471E+03  0.36518524360E+03  0.60488782449E+03  0.72050852147E+03  0.91459776669E+02 0.  0.
         11    1    3    3    0    0  0.29084172767E+03  0.42288835086E+02  0.21269651456E+02  0.29466871941E+03  0.00000000000E+00 0.  1.
        -11    1    3    3    0    0  0.20314654333E+03  0.79349092021E+02  0.77438889522E+02  0.23143374448E+03  0.00000000000E+00 0. -1.
          4    1    5    5  502    0 -0.17835953833E+03 -0.29665880346E+03  0.68299127382E+03  0.76569945194E+03  0.00000000000E+00 0. -1.
          3    1    6    6  503    0 -0.89878987141E+02  0.17301706240E+03  0.25567864295E+03  0.32153491983E+03  0.00000000000E+00 0. -1.
         -4    1    5    5    0  502 -0.20830633796E+03 -0.19016436724E+03  0.58601745985E+03  0.65036180719E+03  0.00000000000E+00 0.  1.
         -3    1    6    6    0  503 -0.17443407568E+02  0.19216818120E+03  0.34920918153E+03  0.39897360163E+03  0.00000000000E+00 0.  1.
<mgrwt>
<rscale>  0 0.17884777E+04</rscale>
<asrwt>0</asrwt>
<pdfrwt beam="1">  1        1 0.35655979E+00 0.17884777E+04</pdfrwt>
<pdfrwt beam="2">  1       -1 0.53082090E-01 0.17884777E+04</pdfrwt>
<totfact> 0.61225137E+00</totfact>
</mgrwt>
</event>
<event>
12    1  0.4820219E-008  0.1695089E+04  0.7818608E-02  0.8764170E-01
         -2   -1    0    0    0  501 -0.00000000000E+00  0.00000000000E+00  0.38122409179E+03  0.38122409179E+03  0.00000000000E+00 0.  1.
          2   -1    0    0  501    0  0.00000000000E+00 -0.00000000000E+00 -0.18842771993E+04  0.18842771993E+04  0.00000000000E+00 0. -1.
         23    2    1    2    0    0  0.47011238437E+02 -0.40208600809E+03  0.56019210678E+02  0.41899843011E+03  0.92403019601E+02 0.  0.
        254    2    1    2    0    0 -0.47011238437E+02  0.40208600809E+03 -0.15590723182E+04  0.18465028610E+04  0.90276414848E+03 0.  0.
         23    2    4    4    0    0 -0.17079719524E+03 -0.15157901238E+03 -0.79938850510E+02  0.25947044617E+03  0.93738005719E+02 0.  0.
         23    2    4    4    0    0  0.12378595680E+03  0.55366502048E+03 -0.14791334677E+04  0.15870324148E+04  0.94700329637E+02 0.  0.
         13    1    3    3    0    0  0.11110398835E+02 -0.21068243411E+01 -0.57538522568E+01  0.12688045037E+02  0.00000000000E+00 0. -1.
        -13    1    3    3    0    0  0.35900839603E+02 -0.39997918375E+03  0.61773062935E+02  0.40631038508E+03  0.00000000000E+00 0.  1.
          2    1    5    5  502    0 -0.62583245428E+02 -0.30300854442E+02  0.15145361054E+02  0.71163096824E+02  0.00000000000E+00 0. -1.
          3    1    6    6  503    0  0.36582705520E+02  0.34547184586E+03 -0.96107470027E+03  0.10219362358E+04  0.00000000000E+00 0. -1.
         -2    1    5    5    0  502 -0.10821394981E+03 -0.12127815794E+03 -0.95084211564E+02  0.18830734934E+03  0.00000000000E+00 0.  1.
         -3    1    6    6    0  503  0.87203251279E+02  0.20819317461E+03 -0.51805876739E+03  0.56509617895E+03  0.00000000000E+00 0.  1.
<mgrwt>
<rscale>  0 0.16950892E+04</rscale>
<asrwt>0</asrwt>
<pdfrwt beam="1">  1        2 0.28988880E+00 0.16950892E+04</pdfrwt>
<pdfrwt beam="2">  1       -2 0.58649860E-01 0.16950892E+04</pdfrwt>
<totfact> 0.20041159E+01</totfact>
</mgrwt>
</event>
<event>
12    1  0.4820219E-008  0.1731296E+04  0.7818608E-02  0.8743714E-01
          1   -1    0    0  501    0  0.00000000000E+00  0.00000000000E+00  0.75958702955E+03  0.75958702955E+03  0.00000000000E+00 0. -1.
         -1   -1    0    0    0  501 -0.00000000000E+00 -0.00000000000E+00 -0.98651787812E+03  0.98651787812E+03  0.00000000000E+00 0.  1.
         23    2    1    2    0    0  0.44609073614E+03  0.38945575725E+03 -0.30526779109E+03  0.67256903412E+03  0.92130069259E+02 0.  0.
        254    2    1    2    0    0 -0.44609073614E+03 -0.38945575725E+03  0.78336942520E+02  0.10735358735E+04  0.89200328671E+03 0.  0.
         23    2    4    4    0    0 -0.54147399411E+03 -0.59839470198E+03  0.12432418267E+03  0.82164665974E+03  0.91522813591E+02 0.  0.
         23    2    4    4    0    0  0.95383257976E+02  0.20893894474E+03 -0.45987240152E+02  0.25188921380E+03  0.92627756320E+02 0.  0.
         13    1    3    3    0    0  0.28176585232E+03  0.19391215473E+03 -0.20064941794E+03  0.39655278111E+03  0.00000000000E+00 0.  1.
        -13    1    3    3    0    0  0.16432488382E+03  0.19554360252E+03 -0.10461837315E+03  0.27601625302E+03  0.00000000000E+00 0. -1.
          2    1    5    5  502    0 -0.13020227351E+02 -0.66202781372E+01 -0.89714417317E+01  0.17141795986E+02  0.00000000000E+00 0. -1.
          4    1    6    6  503    0 -0.55863568474E+01  0.29475328412E+02  0.19533530468E+02  0.35798899150E+02  0.00000000000E+00 0. -1.
         -2    1    5    5    0  502 -0.52845376676E+03 -0.59177442385E+03  0.13329562440E+03  0.80450486376E+03  0.00000000000E+00 0.  1.
         -4    1    6    6    0  503  0.10096961482E+03  0.17946361632E+03 -0.65520770620E+02  0.21609031465E+03  0.00000000000E+00 0.  1.
<mgrwt>
<rscale>  0 0.17312957E+04</rscale>
<asrwt>0</asrwt>
<pdfrwt beam="1">  1        1 0.11685954E+00 0.17312957E+04</pdfrwt>
<pdfrwt beam="2">  1       -1 0.15177198E+00 0.17312957E+04</pdfrwt>
<totfact> 0.77024412E+00</totfact>
</mgrwt>
</event>
<event>
12    1  0.4820219E-008  0.1535090E+04  0.7818608E-02  0.8861448E-01
         -1   -1    0    0    0  501 -0.00000000000E+00  0.00000000000E+00  0.47562409683E+03  0.47562409683E+03  0.00000000000E+00 0.  1.
          1   -1    0    0  501    0  0.00000000000E+00 -0.00000000000E+00 -0.12386367610E+04  0.12386367610E+04  0.00000000000E+00 0. -1.
         23    2    1    2    0    0  0.56372051107E+02 -0.37074258217E+03  0.11945248944E+03  0.40420136281E+03  0.92097633409E+02 0.  0.
        254    2    1    2    0    0 -0.56372051107E+02  0.37074258217E+03 -0.88246515357E+03  0.13100594950E+04  0.89268318162E+03 0.  0.
         23    2    4    4    0    0 -0.12079773843E+03 -0.17332300351E+03  0.40405031708E+02  0.23293107387E+03  0.89394414983E+02 0.  0.
         23    2    4    4    0    0  0.64425687323E+02  0.54406558568E+03 -0.92287018528E+03  0.10771284211E+04  0.91423334008E+02 0.  0.
         11    1    3    3    0    0  0.51389931939E+02 -0.84098743519E+02  0.42759489192E+02  0.10743322429E+03  0.00000000000E+00 0. -1.
        -11    1    3    3    0    0  0.49821191685E+01 -0.28664383865E+03  0.76693000244E+02  0.29676813851E+03  0.00000000000E+00 0.  1.
          4    1    5    5  502    0 -0.61020346187E+02 -0.93652074360E+02 -0.23992225119E+02  0.11432331585E+03  0.00000000000E+00 0. -1.
          1    1    6    6  503    0  0.10351815708E+02  0.50264994652E+02 -0.44062588163E+02  0.67640531129E+02  0.00000000000E+00 0. -1.
         -4    1    5    5    0  502 -0.59777392243E+02 -0.79670929148E+02  0.64397256827E+02  0.11860775802E+03  0.00000000000E+00 0.  1.
         -1    1    6    6    0  503  0.54073871614E+02  0.49380059103E+03 -0.87880759711E+03  0.10094878900E+04  0.00000000000E+00 0.  1.
<mgrwt>
<rscale>  0 0.15350902E+04</rscale>
<asrwt>0</asrwt>
<pdfrwt beam="1">  1        1 0.19055950E+00 0.15350902E+04</pdfrwt>
<pdfrwt beam="2">  1       -1 0.73172939E-01 0.15350902E+04</pdfrwt>
<totfact> 0.18185482E+01</totfact>
</mgrwt>
</event>
<event>
12    1  0.4820219E-008  0.1577800E+04  0.7818608E-02  0.8834304E-01
          1   -1    0    0  501    0  0.00000000000E+00  0.00000000000E+00  0.80899377544E+03  0.80899377544E+03  0.00000000000E+00 0. -1.
         -1   -1    0    0    0  501 -0.00000000000E+00 -0.00000000000E+00 -0.76930511192E+03  0.76930511192E+03  0.00000000000E+00 0.  1.
         23    2    1    2    0    0 -0.18397228699E+03  0.80221672057E+02  0.49724751484E+03  0.54389496158E+03  0.91023728638E+02 0.  0.
        254    2    1    2    0    0  0.18397228699E+03 -0.80221672057E+02 -0.45755885132E+03  0.10344039258E+04  0.90573178159E+03 0.  0.
         23    2    4    4    0    0  0.16717069850E+03  0.30505104182E+03  0.77917452838E+02  0.36826149397E+03  0.92429529565E+02 0.  0.
         23    2    4    4    0    0  0.16801588488E+02 -0.38527271387E+03 -0.53547630416E+03  0.66614243180E+03  0.91068708661E+02 0.  0.
         13    1    3    3    0    0 -0.17337868279E+03  0.78087885193E+02  0.36825882448E+03  0.41445439709E+03  0.00000000000E+00 0.  1.
        -13    1    3    3    0    0 -0.10593604203E+02  0.21337868640E+01  0.12898869036E+03  0.12944056449E+03  0.00000000000E+00 0. -1.
          1    1    5    5  502    0  0.44493371880E+01  0.12257421879E+02 -0.15742507673E+02  0.20441808638E+02  0.00000000000E+00 0. -1.
          3    1    6    6  503    0 -0.29974449152E+02 -0.27030767503E+03 -0.35868599196E+03  0.45013369970E+03  0.00000000000E+00 0. -1.
         -1    1    5    5    0  502  0.16272136132E+03  0.29279361994E+03  0.93659960512E+02  0.34781968534E+03  0.00000000000E+00 0.  1.
         -3    1    6    6    0  503  0.46776037640E+02 -0.11496503884E+03 -0.17679031220E+03  0.21600873210E+03  0.00000000000E+00 0.  1.
<mgrwt>
<rscale>  0 0.15777998E+04</rscale>
<asrwt>0</asrwt>
<pdfrwt beam="1">  1        1 0.12446058E+00 0.15777998E+04</pdfrwt>
<pdfrwt beam="2">  1       -1 0.11835463E+00 0.15777998E+04</pdfrwt>
<totfact> 0.13370247E+01</totfact>
</mgrwt>
</event>
<event>
12    1  0.4820219E-008  0.1382275E+04  0.7818608E-02  0.8966750E-01
          2   -1    0    0  501    0  0.00000000000E+00  0.00000000000E+00  0.12034140969E+04  0.12034140969E+04  0.00000000000E+00 0. -1.
         -2   -1    0    0    0  501 -0.00000000000E+00 -0.00000000000E+00 -0.39692994002E+03  0.39692994002E+03  0.00000000000E+00 0.  1.
         23    2    1    2    0    0 -0.34656946196E+03 -0.18738529385E+03  0.25773520907E+03  0.47961554025E+03  0.91542275125E+02 0.  0.
        254    2    1    2    0    0  0.34656946196E+03  0.18738529385E+03  0.54874894778E+03  0.11207284967E+04  0.89425014129E+03 0.  0.
         23    2    4    4    0    0  0.46775845686E+03  0.84815679335E+02  0.72143769693E+03  0.86892469623E+03  0.92553248115E+02 0.  0.
         23    2    4    4    0    0 -0.12118899490E+03  0.10256961452E+03 -0.17268874915E+03  0.25180380043E+03  0.91522956251E+02 0.  0.
         13    1    3    3    0    0 -0.60722157632E+02  0.31426401856E+01  0.43508435194E+02  0.74766573734E+02  0.00000000000E+00 0.  1.
        -13    1    3    3    0    0 -0.28584730433E+03 -0.19052793404E+03  0.21422677388E+03  0.40484896652E+03  0.00000000000E+00 0. -1.
          3    1    6    6  502    0 -0.12120347589E+02 -0.30739107065E+00  0.98231526203E+01  0.15604218736E+02  0.00000000000E+00 0. -1.
          3    1    5    5  503    0  0.57088475979E+02 -0.14661363791E+01  0.14565501087E+03  0.15645007459E+03  0.00000000000E+00 0. -1.
         -3    1    5    5    0  503  0.41066998088E+03  0.86281815714E+02  0.57578268605E+03  0.71247462164E+03  0.00000000000E+00 0.  1.
         -3    1    6    6    0  502 -0.10906864731E+03  0.10287700559E+03 -0.18251190177E+03  0.23619958169E+03  0.00000000000E+00 0.  1.
<mgrwt>
<rscale>  0 0.13822751E+04</rscale>
<asrwt>0</asrwt>
<pdfrwt beam="1">  1        2 0.18514063E+00 0.13822751E+04</pdfrwt>
<pdfrwt beam="2">  1       -2 0.61066145E-01 0.13822751E+04</pdfrwt>
<totfact> 0.45837858E+01</totfact>
</mgrwt>
</event>
<event>
12    1  0.4820219E-008  0.1789558E+04  0.7818608E-02  0.8711872E-01
         -1   -1    0    0    0  501 -0.00000000000E+00  0.00000000000E+00  0.21272988418E+04  0.21272988418E+04  0.00000000000E+00 0.  1.
          1   -1    0    0  501    0  0.00000000000E+00 -0.00000000000E+00 -0.37635955592E+03  0.37635955592E+03  0.00000000000E+00 0. -1.
         23    2    1    2    0    0  0.39963837823E+03  0.49937677031E+03  0.20792102963E+03  0.67849627353E+03  0.89655153527E+02 0.  0.
        254    2    1    2    0    0 -0.39963837823E+03 -0.49937677031E+03  0.15430182562E+04  0.18251621241E+04  0.73567890304E+03 0.  0.
         23    2    4    4    0    0  0.18743314118E+03 -0.31309853573E+02  0.44113002850E+03  0.48861000244E+03  0.89624455917E+02 0.  0.
         23    2    4    4    0    0 -0.58707151940E+03 -0.46806691673E+03  0.11018882277E+04  0.13365521217E+04  0.92055962614E+02 0.  0.
         13    1    3    3    0    0  0.26294648534E+03  0.31535649326E+03  0.88524944000E+02  0.42003242459E+03  0.00000000000E+00 0. -1.
        -13    1    3    3    0    0  0.13669189289E+03  0.18402027704E+03  0.11939608563E+03  0.25846384894E+03  0.00000000000E+00 0.  1.
          2    1    5    5  502    0  0.19291425862E+03 -0.17281349594E+02  0.42146695032E+03  0.46384151004E+03  0.00000000000E+00 0. -1.
          1    1    6    6  503    0 -0.52665143375E+03 -0.37948371024E+03  0.95283657460E+03  0.11529384879E+04  0.00000000000E+00 0. -1.
         -2    1    5    5    0  502 -0.54811174463E+01 -0.14028503979E+02  0.19663078188E+02  0.24768492408E+02  0.00000000000E+00 0.  1.
         -1    1    6    6    0  503 -0.60420085654E+02 -0.88583206497E+02  0.14905165309E+03  0.18361363379E+03  0.00000000000E+00 0.  1.
<mgrwt>
<rscale>  0 0.17895578E+04</rscale>
<asrwt>0</asrwt>
<pdfrwt beam="1">  1        1 0.57901471E-01 0.17895578E+04</pdfrwt>
<pdfrwt beam="2">  1       -1 0.32727674E+00 0.17895578E+04</pdfrwt>
<totfact> 0.13504776E+00</totfact>
</mgrwt>
</event>
<event>
12    1  0.4820219E-008  0.1530617E+04  0.7818608E-02  0.8864344E-01
          2   -1    0    0  501    0  0.00000000000E+00  0.00000000000E+00  0.62514560071E+03  0.62514560071E+03  0.00000000000E+00 0. -1.
         -2   -1    0    0    0  501 -0.00000000000E+00 -0.00000000000E+00 -0.93689723328E+03  0.93689723328E+03  0.00000000000E+00 0.  1.
         23    2    1    2    0    0 -0.39871555280E+03 -0.24621105324E+03 -0.28056867786E+03  0.55366830486E+03  0.90751496010E+02 0.  0.
        254    2    1    2    0    0  0.39871555280E+03  0.24621105324E+03 -0.31182954718E+02  0.10083745291E+04  0.89233000597E+03 0.  0.
         23    2    4    4    0    0  0.49202650666E+03 -0.15430896648E+03  0.15826185302E+03  0.54678233073E+03  0.89569876022E+02 0.  0.
         23    2    4    4    0    0 -0.93310953857E+02  0.40052001971E+03 -0.18944480773E+03  0.46159219840E+03  0.89748549540E+02 0.  0.
         13    1    3    3    0    0 -0.23523671551E+03 -0.13615294143E+03 -0.11065599026E+03  0.29345985069E+03  0.00000000000E+00 0. -1.
        -13    1    3    3    0    0 -0.16347883729E+03 -0.11005811181E+03 -0.16991268759E+03  0.26020845417E+03  0.00000000000E+00 0.  1.
          2    1    5    5  502    0  0.38654504844E+03 -0.14809144918E+03  0.15187753107E+03  0.44092509142E+03  0.00000000000E+00 0.  1.
          3    1    6    6  503    0 -0.97489619144E+02  0.22413501705E+03 -0.10581975782E+03  0.26634292342E+03  0.00000000000E+00 0. -1.
         -2    1    5    5    0  502  0.10548145822E+03 -0.62175172930E+01  0.63843219455E+01  0.10585723932E+03  0.00000000000E+00 0. -1.
         -3    1    6    6    0  503  0.41786652869E+01  0.17638500266E+03 -0.83625049914E+02  0.19524927498E+03  0.00000000000E+00 0.  1.
<mgrwt>
<rscale>  0 0.15306171E+04</rscale>
<asrwt>0</asrwt>
<pdfrwt beam="1">  1        2 0.96176247E-01 0.15306171E+04</pdfrwt>
<pdfrwt beam="2">  1       -2 0.14413803E+00 0.15306171E+04</pdfrwt>
<totfact> 0.15127420E+01</totfact>
</mgrwt>
</event>
<event>
12    1  0.4820219E-008  0.1015202E+04  0.7818608E-02  0.9292027E-01
         -2   -1    0    0    0  501 -0.00000000000E+00  0.00000000000E+00  0.18050231983E+03  0.18050231983E+03  0.00000000000E+00 0.  1.
          2   -1    0    0  501    0  0.00000000000E+00 -0.00000000000E+00 -0.14274541549E+04  0.14274541549E+04  0.00000000000E+00 0. -1.
         23    2    1    2    0    0 -0.22538451763E+02 -0.43619317785E+02 -0.64132415719E+02  0.12300561571E+03  0.92772776491E+02 0.  0.
        254    2    1    2    0    0  0.22538451763E+02  0.43619317785E+02 -0.11828194194E+04  0.14849508591E+04  0.89644110139E+03 0.  0.
         23    2    4    4    0    0  0.28933817904E+03 -0.89106340291E+02 -0.11250985127E+04  0.11686420360E+04  0.90669858826E+02 0.  0.
         23    2    4    4    0    0 -0.26679972728E+03  0.13272565808E+03 -0.57720906668E+02  0.31630882305E+03  0.89002099325E+02 0.  0.
         11    1    3    3    0    0 -0.23622376615E+02 -0.65991592501E+02 -0.70808752399E+02  0.99633259377E+02  0.00000000000E+00 0. -1.
        -11    1    3    3    0    0  0.10839248521E+01  0.22372274715E+02  0.66763366799E+01  0.23372356332E+02  0.00000000000E+00 0.  1.
          1    1    5    5  502    0  0.24036655819E+03 -0.36771163958E+02 -0.90932502330E+03  0.94127583566E+03  0.00000000000E+00 0. -1.
          1    1    6    6  503    0 -0.25829041727E+02 -0.11919845382E+02  0.35201392920E+01  0.28663801058E+02  0.00000000000E+00 0. -1.
         -1    1    5    5    0  502  0.48971620847E+02 -0.52335176334E+02 -0.21577348941E+03  0.22736620035E+03  0.00000000000E+00 0.  1.
         -1    1    6    6    0  503 -0.24097068555E+03  0.14464550346E+03 -0.61241045960E+02  0.28764502199E+03  0.00000000000E+00 0.  1.
<mgrwt>
<rscale>  0 0.10152020E+04</rscale>
<asrwt>0</asrwt>
<pdfrwt beam="1">  1        2 0.21960833E+00 0.10152020E+04</pdfrwt>
<pdfrwt beam="2">  1       -2 0.27769588E-01 0.10152020E+04</pdfrwt>
<totfact> 0.16461852E+02</totfact>
</mgrwt>
</event>
<event>
12    1  0.4820219E-008  0.1738814E+04  0.7818608E-02  0.8739532E-01
          1   -1    0    0  501    0  0.00000000000E+00  0.00000000000E+00  0.13534410015E+04  0.13534410015E+04  0.00000000000E+00 0. -1.
         -1   -1    0    0    0  501 -0.00000000000E+00 -0.00000000000E+00 -0.55847886918E+03  0.55847886918E+03  0.00000000000E+00 0.  1.
         23    2    1    2    0    0 -0.33339971113E+03  0.22697538083E+03 -0.24645207301E+03  0.48112574540E+03  0.89834112144E+02 0.  0.
        254    2    1    2    0    0  0.33339971113E+03 -0.22697538083E+03  0.10414142054E+04  0.14307941253E+04  0.89440208576E+03 0.  0.
         23    2    4    4    0    0  0.52255080232E+03 -0.16633699683E+03  0.24922770329E+03  0.60899566126E+03  0.89632191927E+02 0.  0.
         23    2    4    4    0    0 -0.18915109118E+03 -0.60638383995E+02  0.79218650208E+03  0.82179846406E+03  0.91313265974E+02 0.  0.
         11    1    3    3    0    0 -0.61415533176E+02  0.69070841763E+02 -0.93259866947E+02  0.13130137730E+03  0.00000000000E+00 0. -1.
        -11    1    3    3    0    0 -0.27198417796E+03  0.15790453907E+03 -0.15319220607E+03  0.34982436810E+03  0.00000000000E+00 0.  1.
          4    1    5    5  502    0  0.34693745007E+03 -0.65924648610E+02  0.16675031869E+03  0.39053466214E+03  0.00000000000E+00 0. -1.
          3    1    6    6  503    0 -0.12903788546E+03 -0.41422377661E+02  0.35336213182E+03  0.37845922562E+03  0.00000000000E+00 0. -1.
         -4    1    5    5    0  502  0.17561335225E+03 -0.10041234822E+03  0.82477384603E+02  0.21846099912E+03  0.00000000000E+00 0.  1.
         -3    1    6    6    0  503 -0.60113205718E+02 -0.19216006334E+02  0.43882437026E+03  0.44333923844E+03  0.00000000000E+00 0.  1.
<mgrwt>
<rscale>  0 0.17388136E+04</rscale>
<asrwt>0</asrwt>
<pdfrwt beam="1">  1        1 0.20822169E+00 0.17388136E+04</pdfrwt>
<pdfrwt beam="2">  1       -1 0.85919827E-01 0.17388136E+04</pdfrwt>
<totfact> 0.10512389E+01</totfact>
</mgrwt>
</event>
<event>
12    1  0.4820219E-008  0.2070846E+04  0.7818608E-02  0.8574196E-01
          2   -1    0    0  501    0  0.00000000000E+00  0.00000000000E+00  0.10448269627E+04  0.10448269627E+04  0.00000000000E+00 0. -1.
         -2   -1    0    0    0  501 -0.00000000000E+00 -0.00000000000E+00 -0.10261039449E+04  0.10261039449E+04  0.00000000000E+00 0.  1.
         23    2    1    2    0    0  0.75452924887E+03  0.24764990254E+03  0.28001268730E+03  0.84674389600E+03  0.89012688607E+02 0.  0.
        254    2    1    2    0    0 -0.75452924887E+03 -0.24764990254E+03 -0.26128966954E+03  0.12241870116E+04  0.89426879986E+03 0.  0.
         23    2    4    4    0    0 -0.84899755707E+03  0.38921725466E+02 -0.76602082249E+02  0.85860429136E+03  0.94982616955E+02 0.  0.
         23    2    4    4    0    0  0.94468308199E+02 -0.28657162801E+03 -0.18468758730E+03  0.36558272026E+03  0.92161061310E+02 0.  0.
         13    1    3    3    0    0  0.66554308370E+03  0.18674370819E+03  0.24451045268E+03  0.73321631888E+03  0.00000000000E+00 0. -1.
        -13    1    3    3    0    0  0.88986165172E+02  0.60906194356E+02  0.35502234614E+02  0.11352757711E+03  0.00000000000E+00 0.  1.
          2    1    5    5  502    0 -0.57692056216E+03  0.12020541971E+02 -0.96690954222E+01  0.57712677973E+03  0.00000000000E+00 0. -1.
          1    1    6    6  503    0  0.63096752416E+02 -0.17924941077E+03 -0.16578479725E+03  0.25218277186E+03  0.00000000000E+00 0. -1.
         -2    1    5    5    0  502 -0.27207699490E+03  0.26901183496E+02 -0.66932986827E+02  0.28147751163E+03  0.00000000000E+00 0.  1.
         -1    1    6    6    0  503  0.31371555782E+02 -0.10732221724E+03 -0.18902790046E+02  0.11339994840E+03  0.00000000000E+00 0.  1.
<mgrwt>
<rscale>  0 0.20708463E+04</rscale>
<asrwt>0</asrwt>
<pdfrwt beam="1">  1        2 0.16074261E+00 0.20708463E+04</pdfrwt>
<pdfrwt beam="2">  1       -2 0.15786214E+00 0.20708463E+04</pdfrwt>
<totfact> 0.56917239E+00</totfact>
</mgrwt>
</event>
<event>
12    1  0.4820219E-008  0.1600824E+04  0.7818608E-02  0.8820042E-01
          1   -1    0    0  501    0  0.00000000000E+00  0.00000000000E+00  0.13970992430E+04  0.13970992430E+04  0.00000000000E+00 0. -1.
         -1   -1    0    0    0  501 -0.00000000000E+00 -0.00000000000E+00 -0.45856405991E+03  0.45856405991E+03  0.00000000000E+00 0.  1.
         23    2    1    2    0    0  0.33890553839E+03 -0.40292110941E+03  0.32178616293E+03  0.62445347897E+03  0.95882367445E+02 0.  0.
        254    2    1    2    0    0 -0.33890553839E+03  0.40292110941E+03  0.61674902012E+03  0.12312098239E+04  0.92644260064E+03 0.  0.
         23    2    4    4    0    0 -0.38268431635E+03  0.47597452149E+03  0.17579579619E+02  0.61932591154E+03  0.10127443899E+03 0.  0.
         23    2    4    4    0    0  0.43778777965E+02 -0.73053412075E+02  0.59916944051E+03  0.61188391236E+03  0.90247001915E+02 0.  0.
         11    1    3    3    0    0  0.22808848593E+03 -0.31340965269E+03  0.19572849893E+03  0.43423451395E+03  0.00000000000E+00 0. -1.
        -11    1    3    3    0    0  0.11081705246E+03 -0.89511456718E+02  0.12605766400E+03  0.19021896502E+03  0.00000000000E+00 0.  1.
          4    1    5    5  502    0 -0.10568150197E+03  0.10401123478E+03  0.44375117151E+02  0.15477747847E+03  0.00000000000E+00 0. -1.
          1    1    6    6  503    0  0.55975971202E+02 -0.27847894533E+02  0.18949320836E+03  0.19954069910E+03  0.00000000000E+00 0. -1.
         -4    1    5    5    0  502 -0.27700281439E+03  0.37196328670E+03 -0.26795537531E+02  0.46454843307E+03  0.00000000000E+00 0.  1.
         -1    1    6    6    0  503 -0.12197193237E+02 -0.45205517541E+02  0.40967623215E+03  0.41234321326E+03  0.00000000000E+00 0.  1.
<mgrwt>
<rscale>  0 0.16008242E+04</rscale>
<asrwt>0</asrwt>
<pdfrwt beam="1">  1        1 0.21493834E+00 0.16008242E+04</pdfrwt>
<pdfrwt beam="2">  1       -1 0.70548317E-01 0.16008242E+04</pdfrwt>
<totfact> 0.15036693E+01</totfact>
</mgrwt>
</event>
<event>
12    1  0.4820219E-008  0.2212230E+04  0.7818608E-02  0.8513355E-01
          2   -1    0    0  501    0  0.00000000000E+00  0.00000000000E+00  0.37552350767E+04  0.37552350767E+04  0.00000000000E+00 0. -1.
         -2   -1    0    0    0  501 -0.00000000000E+00 -0.00000000000E+00 -0.32580917374E+03  0.32580917374E+03  0.00000000000E+00 0.  1.
         23    2    1    2    0    0  0.85103312338E+03 -0.28748154781E+03  0.22459678895E+04  0.24206754247E+04  0.91622779515E+02 0.  0.
        254    2    1    2    0    0 -0.85103312338E+03  0.28748154781E+03  0.11834580135E+04  0.16603688257E+04  0.74118064625E+03 0.  0.
         23    2    4    4    0    0 -0.82160853269E+03  0.46427743768E+03  0.10670709756E+04  0.14274815649E+04  0.92027339306E+02 0.  0.
         23    2    4    4    0    0 -0.29424590694E+02 -0.17679588987E+03  0.11638703790E+03  0.23288726080E+03  0.92563170002E+02 0.  0.
         13    1    3    3    0    0  0.69293397472E+03 -0.25383740914E+03  0.19171173942E+04  0.20542468271E+04  0.00000000000E+00 0. -1.
        -13    1    3    3    0    0  0.15809914866E+03 -0.33644138666E+02  0.32885049533E+03  0.36642859762E+03  0.00000000000E+00 0.  1.
          2    1    5    5  502    0 -0.61402739130E+02  0.19691751157E+02  0.10483067977E+03  0.12307531376E+03  0.00000000000E+00 0.  1.
          1    1    6    6  503    0 -0.35702326203E+02 -0.16099463844E+03  0.13089136609E+03  0.21053854616E+03  0.00000000000E+00 0. -1.
         -2    1    5    5    0  502 -0.76020579356E+03  0.44458568652E+03  0.96224029580E+03  0.13044062512E+04  0.00000000000E+00 0. -1.
         -1    1    6    6    0  503  0.62777355093E+01 -0.15801251430E+02 -0.14504328191E+02  0.22348714642E+02  0.00000000000E+00 0.  1.
<mgrwt>
<rscale>  0 0.22122297E+04</rscale>
<asrwt>0</asrwt>
<pdfrwt beam="1">  1        2 0.57772844E+00 0.22122297E+04</pdfrwt>
<pdfrwt beam="2">  1       -2 0.50124491E-01 0.22122297E+04</pdfrwt>
<totfact> 0.18345550E+00</totfact>
</mgrwt>
</event>
<event>
12    1  0.4820219E-008  0.1135602E+04  0.7818608E-02  0.9171170E-01
         -1   -1    0    0    0  501 -0.00000000000E+00  0.00000000000E+00  0.13917737527E+03  0.13917737527E+03  0.00000000000E+00 0.  1.
          1   -1    0    0  501    0  0.00000000000E+00 -0.00000000000E+00 -0.23164523068E+04  0.23164523068E+04  0.00000000000E+00 0. -1.
         23    2    1    2    0    0 -0.11967492211E+03 -0.14669848245E+03 -0.52860860720E+03  0.56870825009E+03  0.90329853259E+02 0.  0.
        254    2    1    2    0    0  0.11967492211E+03  0.14669848245E+03 -0.16486663243E+04  0.18869214320E+04  0.89806976886E+03 0.  0.
         23    2    4    4    0    0  0.48279239429E+03  0.21581899338E+03 -0.98397338031E+03  0.11207990622E+04  0.91217272210E+02 0.  0.
         23    2    4    4    0    0 -0.36311747218E+03 -0.69120510931E+02 -0.66469294400E+03  0.76612236978E+03  0.92167413089E+02 0.  0.
         11    1    3    3    0    0 -0.91912506027E+02 -0.13767118940E+03 -0.34342231653E+03  0.38123503597E+03  0.00000000000E+00 0. -1.
        -11    1    3    3    0    0 -0.27762416082E+02 -0.90272930493E+01 -0.18518629066E+03  0.18747321413E+03  0.00000000000E+00 0.  1.
          3    1    6    6  502    0 -0.36128718663E+03 -0.79713322061E+02 -0.64113030468E+03  0.74022342068E+03  0.00000000000E+00 0. -1.
          3    1    5    5  503    0  0.17303851234E+03  0.11030865732E+03 -0.44918123530E+03  0.49383611530E+03  0.00000000000E+00 0. -1.
         -3    1    5    5    0  503  0.30975388195E+03  0.10551033606E+03 -0.53479214501E+03  0.62696294688E+03  0.00000000000E+00 0.  1.
         -3    1    6    6    0  502 -0.18302855487E+01  0.10592811130E+02 -0.23562639315E+02  0.25898949097E+02  0.00000000000E+00 0.  1.
<mgrwt>
<rscale>  0 0.11356016E+04</rscale>
<asrwt>0</asrwt>
<pdfrwt beam="1">  1        1 0.35637727E+00 0.11356016E+04</pdfrwt>
<pdfrwt beam="2">  1       -1 0.21411904E-01 0.11356016E+04</pdfrwt>
<totfact> 0.33062029E+01</totfact>
</mgrwt>
</event>
<event>
12    1  0.4820219E-008  0.1714584E+04  0.7818608E-02  0.8753090E-01
         -2   -1    0    0    0  501 -0.00000000000E+00  0.00000000000E+00  0.71649579063E+03  0.71649579063E+03  0.00000000000E+00 0.  1.
          2   -1    0    0  501    0  0.00000000000E+00 -0.00000000000E+00 -0.10257558198E+04  0.10257558198E+04  0.00000000000E+00 0. -1.
         23    2    1    2    0    0  0.23682553499E+03 -0.22750124834E+03 -0.64732030175E+03  0.73152293376E+03  0.90879467088E+02 0.  0.
        254    2    1    2    0    0 -0.23682553499E+03  0.22750124834E+03  0.33806027258E+03  0.10107286767E+04  0.89411663551E+03 0.  0.
         23    2    4    4    0    0  0.51044425573E+01 -0.25058358976E+03 -0.12707915838E+03  0.29542418375E+03  0.91149026654E+02 0.  0.
         23    2    4    4    0    0 -0.24192997754E+03  0.47808483810E+03  0.46513943097E+03  0.71530449291E+03  0.90612366054E+02 0.  0.
         11    1    3    3    0    0  0.22491432278E+03 -0.18993882388E+03 -0.51218475606E+03  0.59075920116E+03  0.00000000000E+00 0. -1.
        -11    1    3    3    0    0  0.11911212207E+02 -0.37562424462E+02 -0.13513554569E+03  0.14076373261E+03  0.00000000000E+00 0.  1.
          2    1    5    5  502    0  0.27698301475E+02 -0.23428369418E+03 -0.98927942286E+02  0.25581787081E+03  0.00000000000E+00 0. -1.
          4    1    6    6  503    0 -0.20292750582E+03  0.32174254017E+03  0.29877373559E+03  0.48369781874E+03  0.00000000000E+00 0. -1.
         -2    1    5    5    0  502 -0.22593858918E+02 -0.16299895577E+02 -0.28151216096E+02  0.39606312935E+02  0.00000000000E+00 0.  1.
         -4    1    6    6    0  503 -0.39002471721E+02  0.15634229793E+03  0.16636569538E+03  0.23160667417E+03  0.00000000000E+00 0.  1.
<mgrwt>
<rscale>  0 0.17145842E+04</rscale>
<asrwt>0</asrwt>
<pdfrwt beam="1">  1        2 0.15780859E+00 0.17145842E+04</pdfrwt>
<pdfrwt beam="2">  1       -2 0.11023012E+00 0.17145842E+04</pdfrwt>
<totfact> 0.15069305E+01</totfact>
</mgrwt>
</event>
<event>
12    1  0.4820219E-008  0.1828657E+04  0.7818608E-02  0.8691207E-01
         -1   -1    0    0    0  501 -0.00000000000E+00  0.00000000000E+00  0.12858774098E+04  0.12858774098E+04  0.00000000000E+00 0.  1.
          1   -1    0    0  501    0  0.00000000000E+00 -0.00000000000E+00 -0.65013725834E+03  0.65013725834E+03  0.00000000000E+00 0. -1.
         23    2    1    2    0    0  0.66097806822E+03 -0.17587681820E+03  0.27728120901E+03  0.74367212348E+03  0.91316463517E+02 0.  0.
        254    2    1    2    0    0 -0.66097806822E+03  0.17587681820E+03  0.35845894250E+03  0.11923425447E+04  0.90849505702E+03 0.  0.
         23    2    4    4    0    0  0.50568641619E+01 -0.23030116003E+03 -0.11590382112E+03  0.27480240109E+03  0.94965613289E+02 0.  0.
         23    2    4    4    0    0 -0.66603493238E+03  0.40617797824E+03  0.47436276362E+03  0.91754014362E+03  0.90976933788E+02 0.  0.
         11    1    3    3    0    0  0.59622159096E+03 -0.17618087311E+03  0.22762211543E+03  0.66206624518E+03  0.00000000000E+00 0. -1.
        -11    1    3    3    0    0  0.64756477267E+02  0.30405490379E+00  0.49659093579E+02  0.81605878296E+02  0.00000000000E+00 0.  1.
          3    1    5    5  502    0 -0.28840250980E+02 -0.19831153983E+03 -0.79214724090E+02  0.21548596107E+03  0.00000000000E+00 0. -1.
          3    1    6    6  503    0 -0.62198910315E+03  0.34897926927E+03  0.43209737310E+03  0.83388555249E+03  0.00000000000E+00 0. -1.
         -3    1    5    5    0  502  0.33897115142E+02 -0.31989620207E+02 -0.36689097034E+02  0.59316440024E+02  0.00000000000E+00 0.  1.
         -3    1    6    6    0  503 -0.44045829238E+02  0.57198708972E+02  0.42265390524E+02  0.83654591132E+02  0.00000000000E+00 0.  1.
<mgrwt>
<rscale>  0 0.18286572E+04</rscale>
<asrwt>0</asrwt>
<pdfrwt beam="1">  1        1 0.10002112E+00 0.18286572E+04</pdfrwt>
<pdfrwt beam="2">  1       -1 0.19782729E+00 0.18286572E+04</pdfrwt>
<totfact> 0.44646136E+00</totfact>
</mgrwt>
</event>
<event>
12    1  0.4820219E-008  0.2206794E+04  0.7818608E-02  0.8515605E-01
         -1   -1    0    0    0  501 -0.00000000000E+00  0.00000000000E+00  0.65812370875E+03  0.65812370875E+03  0.00000000000E+00 0.  1.
          1   -1    0    0  501    0  0.00000000000E+00 -0.00000000000E+00 -0.18499337810E+04  0.18499337810E+04  0.00000000000E+00 0. -1.
         23    2    1    2    0    0  0.52030076626E+03 -0.24773016181E+03  0.30458971389E+03  0.65821477014E+03  0.91589679446E+02 0.  0.
        254    2    1    2    0    0 -0.52030076626E+03  0.24773016181E+03 -0.14963997861E+04  0.18498427196E+04  0.92229206161E+03 0.  0.
         23    2    4    4    0    0 -0.57095064880E+03  0.40874814040E+03 -0.58516892343E+03  0.91864699476E+03  0.91814739485E+02 0.  0.
         23    2    4    4    0    0  0.50649882537E+02 -0.16101797859E+03 -0.91123086269E+03  0.93119572484E+03  0.91058183669E+02 0.  0.
         11    1    3    3    0    0  0.45938612378E+03 -0.22074170106E+03  0.23295012610E+03  0.56038225396E+03  0.00000000000E+00 0.  1.
        -11    1    3    3    0    0  0.60914642477E+02 -0.26988460757E+02  0.71639587795E+02  0.97832516177E+02  0.00000000000E+00 0. -1.
          3    1    5    5  502    0 -0.17445094411E+03  0.17713843598E+03 -0.19181683893E+03  0.31401410334E+03  0.00000000000E+00 0. -1.
          3    1    6    6  503    0  0.67718627880E+02 -0.10815825968E+03 -0.74710840549E+03  0.75792809108E+03  0.00000000000E+00 0. -1.
         -3    1    5    5    0  502 -0.39649970468E+03  0.23160970442E+03 -0.39335208450E+03  0.60463289141E+03  0.00000000000E+00 0.  1.
         -3    1    6    6    0  503 -0.17068745343E+02 -0.52859718908E+02 -0.16412245720E+03  0.17326763376E+03  0.00000000000E+00 0.  1.
<mgrwt>
<rscale>  0 0.22067943E+04</rscale>
<asrwt>0</asrwt>
<pdfrwt beam="1">  1        1 0.28460520E+00 0.22067943E+04</pdfrwt>
<pdfrwt beam="2">  1       -1 0.10124980E+00 0.22067943E+04</pdfrwt>
<totfact> 0.31795923E+00</totfact>
</mgrwt>
</event>
<event>
12    1  0.4820219E-008  0.1313088E+04  0.7818608E-02  0.9019250E-01
         -2   -1    0    0    0  501 -0.00000000000E+00  0.00000000000E+00  0.94169629231E+03  0.94169629231E+03  0.00000000000E+00 0.  1.
          2   -1    0    0  501    0  0.00000000000E+00 -0.00000000000E+00 -0.45773788762E+03  0.45773788762E+03  0.00000000000E+00 0. -1.
         23    2    1    2    0    0  0.17693490545E+03 -0.27252392939E+03  0.76480539778E+02  0.34598575587E+03  0.91003392494E+02 0.  0.
        254    2    1    2    0    0 -0.17693490545E+03  0.27252392939E+03  0.40747786492E+03  0.10534484241E+04  0.91549992841E+03 0.  0.
         23    2    4    4    0    0  0.94654726521E+02  0.12787331951E+03 -0.25674432273E+03  0.31537779131E+03  0.90743599813E+02 0.  0.
         23    2    4    4    0    0 -0.27158963197E+03  0.14465060988E+03  0.66422218765E+03  0.73807063275E+03  0.94193509521E+02 0.  0.
         13    1    3    3    0    0  0.80235896141E+02 -0.13483992218E+03 -0.92023075360E+01  0.15717597179E+03  0.00000000000E+00 0. -1.
        -13    1    3    3    0    0  0.96699009307E+02 -0.13768400720E+03  0.85682847314E+02  0.18880978408E+03  0.00000000000E+00 0.  1.
          4    1    5    5  502    0  0.38435376645E+02 -0.30945285169E+01 -0.75791407037E+02  0.85036413760E+02  0.00000000000E+00 0. -1.
          3    1    6    6  503    0 -0.19699056774E+02  0.35038684912E+02  0.43227480243E+02  0.59028614471E+02  0.00000000000E+00 0. -1.
         -4    1    5    5    0  502  0.56219349876E+02  0.13096784802E+03 -0.18095291569E+03  0.23034137755E+03  0.00000000000E+00 0.  1.
         -3    1    6    6    0  503 -0.25189057520E+03  0.10961192497E+03  0.62099470740E+03  0.67904201828E+03  0.00000000000E+00 0.  1.
<mgrwt>
<rscale>  0 0.13130881E+04</rscale>
<asrwt>0</asrwt>
<pdfrwt beam="1">  1        2 0.70421213E-01 0.13130881E+04</pdfrwt>
<pdfrwt beam="2">  1       -2 0.14487635E+00 0.13130881E+04</pdfrwt>
<totfact> 0.21915008E+01</totfact>
</mgrwt>
</event>
<event>
12    1  0.4820219E-008  0.1579499E+04  0.7818608E-02  0.8833243E-01
          1   -1    0    0  501    0  0.00000000000E+00  0.00000000000E+00  0.18527310133E+04  0.18527310133E+04  0.00000000000E+00 0. -1.
         -1   -1    0    0    0  501 -0.00000000000E+00 -0.00000000000E+00 -0.33664040667E+03  0.33664040667E+03  0.00000000000E+00 0.  1.
         23    2    1    2    0    0 -0.90763020043E+02  0.46223796261E+03  0.17475391866E+03  0.50991755533E+03  0.87035172562E+02 0.  0.
        254    2    1    2    0    0  0.90763020043E+02 -0.46223796261E+03  0.13413366880E+04  0.16794538646E+04  0.89413607078E+03 0.  0.
         23    2    4    4    0    0 -0.25675381634E+03 -0.55849237535E+03  0.68435474964E+03  0.92438391363E+03  0.91147906648E+02 0.  0.
         23    2    4    4    0    0  0.34751683638E+03  0.96254412748E+02  0.65698193832E+03  0.75506995100E+03  0.92046184543E+02 0.  0.
         13    1    3    3    0    0 -0.88458883420E+02  0.37103809524E+03  0.10663326169E+03  0.39606173088E+03  0.00000000000E+00 0.  1.
        -13    1    3    3    0    0 -0.23041366239E+01  0.91199867371E+02  0.68120656968E+02  0.11385582444E+03  0.00000000000E+00 0. -1.
          2    1    5    5  502    0 -0.23244149853E+03 -0.48717305892E+03  0.55182027871E+03  0.77192762586E+03  0.00000000000E+00 0. -1.
          3    1    6    6  503    0  0.26262041543E+03  0.10080004829E+03  0.44239877284E+03  0.52425833951E+03  0.00000000000E+00 0. -1.
         -2    1    5    5    0  502 -0.24312317808E+02 -0.71319316433E+02  0.13253447093E+03  0.15245628777E+03  0.00000000000E+00 0.  1.
         -3    1    6    6    0  503  0.84896420948E+02 -0.45456355428E+01  0.21458316548E+03  0.23081161149E+03  0.00000000000E+00 0.  1.
<mgrwt>
<rscale>  0 0.15794988E+04</rscale>
<asrwt>0</asrwt>
<pdfrwt beam="1">  1        1 0.28503553E+00 0.15794988E+04</pdfrwt>
<pdfrwt beam="2">  1       -1 0.51790833E-01 0.15794988E+04</pdfrwt>
<totfact> 0.13532641E+01</totfact>
</mgrwt>
</event>
<event>
12    1  0.4820219E-008  0.1966510E+04  0.7818608E-02  0.8622441E-01
         -3   -1    0    0    0  501 -0.00000000000E+00  0.00000000000E+00  0.49265997839E+03  0.49265997839E+03  0.00000000000E+00 0.  1.
          3   -1    0    0  501    0  0.00000000000E+00 -0.00000000000E+00 -0.19623881463E+04  0.19623881463E+04  0.00000000000E+00 0. -1.
         23    2    1    2    0    0  0.51089065852E+03  0.18767039063E+03 -0.12708025039E+04  0.13854022643E+04  0.90393525249E+02 0.  0.
        254    2    1    2    0    0 -0.51089065852E+03 -0.18767039063E+03 -0.19892566399E+03  0.10696458604E+04  0.89907808694E+03 0.  0.
         23    2    4    4    0    0  0.19712236003E+03  0.11393042832E+02  0.13554233084E+03  0.25642882824E+03  0.91635114739E+02 0.  0.
         23    2    4    4    0    0 -0.70801301855E+03 -0.19906343346E+03 -0.33446799483E+03  0.81321703217E+03  0.92436015011E+02 0.  0.
         13    1    3    3    0    0  0.39673779834E+03  0.17880441227E+03 -0.10519881837E+04  0.11384423732E+04  0.00000000000E+00 0. -1.
        -13    1    3    3    0    0  0.11415286019E+03  0.88659783557E+01 -0.21881432018E+03  0.24695989102E+03  0.00000000000E+00 0.  1.
          1    1    5    5  502    0  0.78211847169E+02  0.49682385645E+02  0.61534445002E+02  0.11122913468E+03  0.00000000000E+00 0. -1.
          3    1    6    6  503    0 -0.47466194418E+03 -0.17782017999E+03 -0.22397839474E+03  0.55415728722E+03  0.00000000000E+00 0. -1.
         -1    1    5    5    0  502  0.11891051286E+03 -0.38289342813E+02  0.74007885840E+02  0.14519969355E+03  0.00000000000E+00 0.  1.
         -3    1    6    6    0  503 -0.23335107437E+03 -0.21243253464E+02 -0.11048960009E+03  0.25905974495E+03  0.00000000000E+00 0.  1.
<mgrwt>
<rscale>  0 0.19665097E+04</rscale>
<asrwt>0</asrwt>
<pdfrwt beam="1">  1        3 0.30190587E+00 0.19665097E+04</pdfrwt>
<pdfrwt beam="2">  1       -3 0.75793842E-01 0.19665097E+04</pdfrwt>
<totfact> 0.15091730E-01</totfact>
</mgrwt>
</event>
<event>
12    1  0.4820219E-008  0.2395839E+04  0.7818608E-02  0.8441063E-01
         -1   -1    0    0    0  501 -0.00000000000E+00  0.00000000000E+00  0.13117236270E+04  0.13117236270E+04  0.00000000000E+00 0.  1.
          1   -1    0    0  501    0  0.00000000000E+00 -0.00000000000E+00 -0.10939891220E+04  0.10939891220E+04  0.00000000000E+00 0. -1.
         23    2    1    2    0    0 -0.31055906470E+03  0.73792286731E+03 -0.55083997961E+03  0.97612803945E+03  0.91783307318E+02 0.  0.
        254    2    1    2    0    0  0.31055906470E+03 -0.73792286731E+03  0.76857448465E+03  0.14295847096E+04  0.90112630228E+03 0.  0.
         23    2    4    4    0    0  0.49110213171E+03 -0.60383935801E+03  0.19638846977E+03  0.80793480047E+03  0.91580220077E+02 0.  0.
         23    2    4    4    0    0 -0.18054306700E+03 -0.13408350930E+03  0.57218601488E+03  0.62164990911E+03  0.92073814755E+02 0.  0.
         13    1    3    3    0    0 -0.63127914380E+02  0.26122706543E+03 -0.18711941154E+03  0.32747272781E+03  0.00000000000E+00 0.  1.
        -13    1    3    3    0    0 -0.24743115032E+03  0.47669580188E+03 -0.36372056807E+03  0.64865531164E+03  0.00000000000E+00 0. -1.
          2    1    5    5  502    0  0.49989871316E+02 -0.10228052587E+03  0.48932033293E+02  0.12391382929E+03  0.00000000000E+00 0. -1.
          1    1    6    6  503    0 -0.49221234886E+02 -0.49624413881E+01  0.62488852105E+02  0.79700768037E+02  0.00000000000E+00 0. -1.
         -2    1    5    5    0  502  0.44111226039E+03 -0.50155883214E+03  0.14745643647E+03  0.68402097118E+03  0.00000000000E+00 0.  1.
         -1    1    6    6    0  503 -0.13132183212E+03 -0.12912106791E+03  0.50969716278E+03  0.54194914107E+03  0.00000000000E+00 0.  1.
<mgrwt>
<rscale>  0 0.23958392E+04</rscale>
<asrwt>0</asrwt>
<pdfrwt beam="1">  1        1 0.16830602E+00 0.23958392E+04</pdfrwt>
<pdfrwt beam="2">  1       -1 0.20180363E+00 0.23958392E+04</pdfrwt>
<totfact> 0.16797729E+00</totfact>
</mgrwt>
</event>
<event>
12    1  0.4820219E-008  0.1781889E+04  0.7818608E-02  0.8715990E-01
          1   -1    0    0  501    0  0.00000000000E+00  0.00000000000E+00  0.74784326593E+03  0.74784326593E+03  0.00000000000E+00 0. -1.
         -1   -1    0    0    0  501 -0.00000000000E+00 -0.00000000000E+00 -0.10614282250E+04  0.10614282250E+04  0.00000000000E+00 0.  1.
         23    2    1    2    0    0 -0.16491923895E+02 -0.64859558410E+03  0.23993993733E+02  0.65541316576E+03  0.89679935654E+02 0.  0.
        254    2    1    2    0    0  0.16491923895E+02  0.64859558410E+03 -0.33757895277E+03  0.11538583251E+04  0.89245799333E+03 0.  0.
         23    2    4    4    0    0  0.41808245727E+03  0.31058069334E+03 -0.12481402438E+02  0.52978544739E+03  0.96247216592E+02 0.  0.
         23    2    4    4    0    0 -0.40159053338E+03  0.33801489075E+03 -0.32509755034E+03  0.62407287774E+03  0.90826849724E+02 0.  0.
         11    1    3    3    0    0 -0.39075902353E+02 -0.53497354302E+03  0.42583432749E+02  0.53808639327E+03  0.00000000000E+00 0. -1.
        -11    1    3    3    0    0  0.22583978458E+02 -0.11362204108E+03 -0.18589439016E+02  0.11732677250E+03  0.00000000000E+00 0.  1.
          1    1    5    5  502    0  0.81962247437E+01  0.44767374408E+01  0.14784230391E+02  0.17486930732E+02  0.00000000000E+00 0. -1.
          3    1    6    6  503    0 -0.35477905690E+03  0.27243328617E+03 -0.30382305624E+03  0.54073701938E+03  0.00000000000E+00 0. -1.
         -1    1    5    5    0  502  0.40988623253E+03  0.30610395590E+03 -0.27265632829E+02  0.51229851666E+03  0.00000000000E+00 0.  1.
         -3    1    6    6    0  503 -0.46811476477E+02  0.65581604584E+02 -0.21274494099E+02  0.83335858363E+02  0.00000000000E+00 0.  1.
<mgrwt>
<rscale>  0 0.17818888E+04</rscale>
<asrwt>0</asrwt>
<pdfrwt beam="1">  1        1 0.11505281E+00 0.17818888E+04</pdfrwt>
<pdfrwt beam="2">  1       -1 0.16329665E+00 0.17818888E+04</pdfrwt>
<totfact> 0.64167513E+00</totfact>
</mgrwt>
</event>
<event>
12    1  0.4820219E-008  0.2613359E+04  0.7818608E-02  0.8363678E-01
          1   -1    0    0  501    0  0.00000000000E+00  0.00000000000E+00  0.13453359050E+04  0.13453359050E+04  0.00000000000E+00 0. -1.
         -1   -1    0    0    0  501 -0.00000000000E+00 -0.00000000000E+00 -0.12691339326E+04  0.12691339326E+04  0.00000000000E+00 0.  1.
         23    2    1    2    0    0  0.21189490841E+03  0.51160234525E+03  0.10395228485E+04  0.11815583782E+04  0.94000195251E+02 0.  0.
        254    2    1    2    0    0 -0.21189490841E+03 -0.51160234525E+03 -0.96332087618E+03  0.14329114593E+04  0.90477164410E+03 0.  0.
         23    2    4    4    0    0 -0.54836553274E+03 -0.25769850005E+03 -0.43982441606E+03  0.75438937307E+03  0.92436652980E+02 0.  0.
         23    2    4    4    0    0  0.33647062433E+03 -0.25390384520E+03 -0.52349646012E+03  0.67852208628E+03  0.93080793765E+02 0.  0.
         13    1    3    3    0    0  0.21133761483E+03  0.50970166253E+03  0.10415778118E+04  0.11787042505E+04  0.00000000000E+00 0. -1.
        -13    1    3    3    0    0  0.55729357842E+00  0.19006827169E+01 -0.20549632620E+01  0.28541277006E+01  0.00000000000E+00 0.  1.
          2    1    5    5  502    0 -0.33756324182E+03 -0.18570480371E+03 -0.32355895752E+03  0.50311590646E+03  0.00000000000E+00 0. -1.
          1    1    6    6  503    0  0.84383436639E+02 -0.17705280860E+02 -0.10381561756E+03  0.13495081993E+03  0.00000000000E+00 0. -1.
         -2    1    5    5    0  502 -0.21080229092E+03 -0.71993696346E+02 -0.11626545854E+03  0.25127346661E+03  0.00000000000E+00 0.  1.
         -1    1    6    6    0  503  0.25208718769E+03 -0.23619856434E+03 -0.41968084255E+03  0.54357126635E+03  0.00000000000E+00 0.  1.
<mgrwt>
<rscale>  0 0.26133591E+04</rscale>
<asrwt>0</asrwt>
<pdfrwt beam="1">  1        1 0.20697476E+00 0.26133591E+04</pdfrwt>
<pdfrwt beam="2">  1       -1 0.19525137E+00 0.26133591E+04</pdfrwt>
<totfact> 0.11994496E+00</totfact>
</mgrwt>
</event>
<event>
12    1  0.4820219E-008  0.2402256E+04  0.7818608E-02  0.8438659E-01
         -2   -1    0    0    0  501 -0.00000000000E+00  0.00000000000E+00  0.15254241535E+04  0.15254241535E+04  0.00000000000E+00 0.  1.
          2   -1    0    0  501    0  0.00000000000E+00 -0.00000000000E+00 -0.94577561815E+03  0.94577561815E+03  0.00000000000E+00 0. -1.
         23    2    1    2    0    0  0.50878682287E+03  0.89021329323E+03  0.35818596371E+03  0.10902457090E+04  0.94840828731E+02 0.  0.
        254    2    1    2    0    0 -0.50878682287E+03 -0.89021329323E+03  0.22146257168E+03  0.13809540627E+04  0.89813401789E+03 0.  0.
         23    2    4    4    0    0  0.85733755055E+02 -0.58402908790E+03 -0.14105660964E+03  0.61394710684E+03  0.92702915835E+02 0.  0.
         23    2    4    4    0    0 -0.59452057793E+03 -0.30618420533E+03  0.36251918133E+03  0.76700695587E+03  0.98366805112E+02 0.  0.
         13    1    3    3    0    0  0.51366843090E+02  0.43946989273E+02  0.28166088530E+02  0.73234001517E+02  0.00000000000E+00 0. -1.
        -13    1    3    3    0    0  0.45741997978E+03  0.84626630395E+03  0.33001987518E+03  0.10170117075E+04  0.00000000000E+00 0.  1.
          2    1    5    5  502    0  0.88061966179E+02 -0.33734719593E+03 -0.56713054566E+02  0.35323421557E+03  0.00000000000E+00 0. -1.
          4    1    6    6  503    0 -0.75016484412E+02 -0.60425061476E+02  0.21338495360E+02  0.98660997219E+02  0.00000000000E+00 0. -1.
         -2    1    5    5    0  502 -0.23282111239E+01 -0.24668189197E+03 -0.84343555077E+02  0.26071289127E+03  0.00000000000E+00 0.  1.
         -4    1    6    6    0  503 -0.51950409351E+03 -0.24575914385E+03  0.34118068597E+03  0.66834595865E+03  0.00000000000E+00 0.  1.
<mgrwt>
<rscale>  0 0.24022564E+04</rscale>
<asrwt>0</asrwt>
<pdfrwt beam="1">  1        2 0.14550394E+00 0.24022564E+04</pdfrwt>
<pdfrwt beam="2">  1       -2 0.23468064E+00 0.24022564E+04</pdfrwt>
<totfact> 0.19632871E+00</totfact>
</mgrwt>
</event>
<event>
12    1  0.4820219E-008  0.2558631E+04  0.7818608E-02  0.8382390E-01
          1   -1    0    0  501    0  0.00000000000E+00  0.00000000000E+00  0.30762434591E+04  0.30762434591E+04  0.00000000000E+00 0. -1.
         -1   -1    0    0    0  501 -0.00000000000E+00 -0.00000000000E+00 -0.53202835840E+03  0.53202835840E+03  0.00000000000E+00 0.  1.
         23    2    1    2    0    0 -0.65195900394E+03  0.80988288885E+03  0.51485285994E+03  0.11637644735E+04  0.91178099776E+02 0.  0.
        254    2    1    2    0    0  0.65195900394E+03 -0.80988288885E+03  0.20293622407E+04  0.24445073440E+04  0.88110397472E+03 0.  0.
         23    2    4    4    0    0  0.65245299062E+03 -0.69545726431E+03  0.20812847230E+04  0.22911725787E+04  0.91487572323E+02 0.  0.
         23    2    4    4    0    0 -0.49398668810E+00 -0.11442562455E+03 -0.51922482257E+02  0.15333476527E+03  0.87875699155E+02 0.  0.
         11    1    3    3    0    0 -0.60414307012E+03  0.77821693648E+03  0.47359996355E+03  0.10931181889E+04  0.00000000000E+00 0.  1.
        -11    1    3    3    0    0 -0.47815933814E+02  0.31665952371E+02  0.41252896399E+02  0.70646284597E+02  0.00000000000E+00 0. -1.
          4    1    5    5  502    0  0.73248304609E+02 -0.41245366941E+02  0.17148541970E+03  0.19098100322E+03  0.00000000000E+00 0. -1.
          1    1    6    6  503    0 -0.42789869617E+02 -0.64574563888E+02 -0.17367877134E+02  0.79388225823E+02  0.00000000000E+00 0. -1.
         -4    1    5    5    0  502  0.57920468602E+03 -0.65421189736E+03  0.19097993033E+04  0.21001915755E+04  0.00000000000E+00 0.  1.
         -1    1    6    6    0  503  0.42295882929E+02 -0.49851060659E+02 -0.34554605123E+02  0.73946539451E+02  0.00000000000E+00 0.  1.
<mgrwt>
<rscale>  0 0.25586315E+04</rscale>
<asrwt>0</asrwt>
<pdfrwt beam="1">  1        1 0.47326821E+00 0.25586315E+04</pdfrwt>
<pdfrwt beam="2">  1       -1 0.81850518E-01 0.25586315E+04</pdfrwt>
<totfact> 0.68986216E-01</totfact>
</mgrwt>
</event>
<event>
12    1  0.4820219E-008  0.1419002E+04  0.7818608E-02  0.8940178E-01
          2   -1    0    0  501    0  0.00000000000E+00  0.00000000000E+00  0.15134549551E+04  0.15134549551E+04  0.00000000000E+00 0. -1.
         -2   -1    0    0    0  501 -0.00000000000E+00 -0.00000000000E+00 -0.33261083560E+03  0.33261083560E+03  0.00000000000E+00 0.  1.
         23    2    1    2    0    0  0.26580614035E+03  0.78296259293E+02  0.75644049048E+03  0.81064656673E+03  0.90346178871E+02 0.  0.
        254    2    1    2    0    0 -0.26580614035E+03 -0.78296259293E+02  0.42440362903E+03  0.10354192240E+04  0.90287946073E+03 0.  0.
         23    2    4    4    0    0 -0.33233848093E+03 -0.18938003189E+03  0.65059843619E+03  0.76024633890E+03  0.91556038849E+02 0.  0.
         23    2    4    4    0    0  0.66532340577E+02  0.11108377260E+03 -0.22619480715E+03  0.27517288509E+03  0.88260234702E+02 0.  0.
         11    1    3    3    0    0  0.22774786925E+03  0.60148186450E+02  0.52537139552E+03  0.57576210323E+03  0.00000000000E+00 0. -1.
        -11    1    3    3    0    0  0.38058271103E+02  0.18148072843E+02  0.23106909496E+03  0.23488446350E+03  0.00000000000E+00 0.  1.
          2    1    5    5  502    0 -0.15825321243E+03 -0.48889198582E+02  0.33109010739E+03  0.37020925461E+03  0.00000000000E+00 0. -1.
          3    1    6    6  503    0  0.72382033199E+02  0.12160788967E+03 -0.22011724847E+03  0.26168538483E+03  0.00000000000E+00 0. -1.
         -2    1    5    5    0  502 -0.17408526850E+03 -0.14049083331E+03  0.31950832879E+03  0.39003708429E+03  0.00000000000E+00 0.  1.
         -3    1    6    6    0  503 -0.58496926222E+01 -0.10524117066E+02 -0.60775586788E+01  0.13487500261E+02  0.00000000000E+00 0.  1.
<mgrwt>
<rscale>  0 0.14190018E+04</rscale>
<asrwt>0</asrwt>
<pdfrwt beam="1">  1        2 0.23283922E+00 0.14190018E+04</pdfrwt>
<pdfrwt beam="2">  1       -2 0.51170899E-01 0.14190018E+04</pdfrwt>
<totfact> 0.43747091E+01</totfact>
</mgrwt>
</event>
<event>
12    1  0.4820219E-008  0.1957448E+04  0.7818608E-02  0.8626778E-01
          1   -1    0    0  501    0  0.00000000000E+00  0.00000000000E+00  0.22576381542E+04  0.22576381542E+04  0.00000000000E+00 0. -1.
         -1   -1    0    0    0  501 -0.00000000000E+00 -0.00000000000E+00 -0.42429312597E+03  0.42429312597E+03  0.00000000000E+00 0.  1.
         23    2    1    2    0    0 -0.66186479644E+03  0.39684045209E+03  0.65155979937E+03  0.10138017072E+04  0.87842906344E+02 0.  0.
        254    2    1    2    0    0  0.66186479644E+03 -0.39684045209E+03  0.11817852288E+04  0.16681295729E+04  0.88909650310E+03 0.  0.
         23    2    4    4    0    0 -0.10742288629E+03 -0.24223767793E+03  0.66983764427E+03  0.72670684212E+03  0.95924947739E+02 0.  0.
         23    2    4    4    0    0  0.76928768273E+03 -0.15460277416E+03  0.51194758455E+03  0.94142273080E+03  0.92091650887E+02 0.  0.
         11    1    3    3    0    0 -0.57037847011E+03  0.36558730412E+03  0.54141102117E+03  0.86724366239E+03  0.00000000000E+00 0.  1.
        -11    1    3    3    0    0 -0.91486326326E+02  0.31253147970E+02  0.11014877819E+03  0.14655804481E+03  0.00000000000E+00 0. -1.
          4    1    5    5  502    0 -0.55491423276E+01 -0.12861786465E+03  0.32762732847E+03  0.35201280439E+03  0.00000000000E+00 0. -1.
          1    1    6    6  503    0  0.58033352332E+03 -0.75789036956E+02  0.37412672635E+03  0.69462348346E+03  0.00000000000E+00 0. -1.
         -4    1    5    5    0  502 -0.10187374397E+03 -0.11361981328E+03  0.34221031579E+03  0.37469403773E+03  0.00000000000E+00 0.  1.
         -1    1    6    6    0  503  0.18895415941E+03 -0.78813737204E+02  0.13782085820E+03  0.24679924734E+03  0.00000000000E+00 0.  1.
<mgrwt>
<rscale>  0 0.19574477E+04</rscale>
<asrwt>0</asrwt>
<pdfrwt beam="1">  1        1 0.34732894E+00 0.19574477E+04</pdfrwt>
<pdfrwt beam="2">  1       -1 0.65275867E-01 0.19574477E+04</pdfrwt>
<totfact> 0.44083764E+00</totfact>
</mgrwt>
</event>
<event>
12    1  0.4820219E-008  0.1194515E+04  0.7818608E-02  0.9117671E-01
         -4   -1    0    0    0  501 -0.00000000000E+00  0.00000000000E+00  0.59769178247E+03  0.59769178247E+03  0.00000000000E+00 0.  1.
          4   -1    0    0  501    0  0.00000000000E+00 -0.00000000000E+00 -0.59682401619E+03  0.59682401619E+03  0.00000000000E+00 0. -1.
         23    2    1    2    0    0 -0.21794752078E+03  0.99231450381E+02  0.15468979794E+00  0.25725348356E+03  0.93975147323E+02 0.  0.
        254    2    1    2    0    0  0.21794752078E+03 -0.99231450381E+02  0.71307647445E+00  0.93726231510E+03  0.90615238027E+03 0.  0.
         23    2    4    4    0    0  0.47147582482E+03  0.15554272295E+02  0.26061703350E+03  0.54569759014E+03  0.85634297824E+02 0.  0.
         23    2    4    4    0    0 -0.25352830404E+03 -0.11478572268E+03 -0.25990395703E+03  0.39156472496E+03  0.91216796012E+02 0.  0.
         11    1    3    3    0    0 -0.10323360709E+02 -0.59877931676E+01  0.20375472781E+02  0.23613244894E+02  0.00000000000E+00 0.  1.
        -11    1    3    3    0    0 -0.20762416007E+03  0.10521924355E+03 -0.20220782984E+02  0.23364023866E+03  0.00000000000E+00 0. -1.
          1    1    6    6  502    0 -0.30933126935E+02  0.11375093430E+02 -0.11366924806E+02  0.34863420257E+02  0.00000000000E+00 0. -1.
          1    1    5    5  503    0  0.20699737432E+02 -0.87683524536E+01 -0.33900888488E+01  0.22734463638E+02  0.00000000000E+00 0. -1.
         -1    1    5    5    0  503  0.45077608739E+03  0.24322624749E+02  0.26400712235E+03  0.52296312651E+03  0.00000000000E+00 0.  1.
         -1    1    6    6    0  502 -0.22259517710E+03 -0.12616081611E+03 -0.24853703222E+03  0.35670130470E+03  0.00000000000E+00 0.  1.
<mgrwt>
<rscale>  0 0.11945155E+04</rscale>
<asrwt>0</asrwt>
<pdfrwt beam="1">  1        4 0.91819079E-01 0.11945155E+04</pdfrwt>
<pdfrwt beam="2">  1       -4 0.91952582E-01 0.11945155E+04</pdfrwt>
<totfact> 0.20010818E+00</totfact>
</mgrwt>
</event>
<event>
12    1  0.4820219E-008  0.2515309E+04  0.7818608E-02  0.8397552E-01
          2   -1    0    0  501    0  0.00000000000E+00  0.00000000000E+00  0.94566579775E+03  0.94566579775E+03  0.00000000000E+00 0. -1.
         -2   -1    0    0    0  501 -0.00000000000E+00 -0.00000000000E+00 -0.16725731109E+04  0.16725731109E+04  0.00000000000E+00 0.  1.
         23    2    1    2    0    0  0.79066975577E+03  0.42272315609E+03 -0.96464214263E+03  0.13204262302E+04  0.95589939555E+02 0.  0.
        254    2    1    2    0    0 -0.79066975577E+03 -0.42272315609E+03  0.23773482952E+03  0.12978126785E+04  0.90771491659E+03 0.  0.
         23    2    4    4    0    0 -0.94597361253E+03 -0.50273765816E+03  0.16566757447E+03  0.10878912385E+04  0.91925911134E+02 0.  0.
         23    2    4    4    0    0  0.15530385676E+03  0.80014502068E+02  0.72067255051E+02  0.20992143991E+03  0.91387708245E+02 0.  0.
         13    1    3    3    0    0  0.28992482720E+03  0.16390891605E+03 -0.29294920105E+03  0.44355582804E+03  0.00000000000E+00 0. -1.
        -13    1    3    3    0    0  0.50074492857E+03  0.25881424004E+03 -0.67169294158E+03  0.87687040211E+03  0.00000000000E+00 0.  1.
          3    1    5    5  502    0 -0.46604391629E+03 -0.23832636055E+03  0.35216796996E+02  0.52462997325E+03  0.00000000000E+00 0. -1.
          3    1    6    6  503    0 -0.56334475106E+01  0.20920316600E+01 -0.11172881330E+02  0.12686433878E+02  0.00000000000E+00 0. -1.
         -3    1    5    5    0  502 -0.47992969625E+03 -0.26441129761E+03  0.13045077747E+03  0.56326126530E+03  0.00000000000E+00 0.  1.
         -3    1    6    6    0  503  0.16093730427E+03  0.77922470408E+02  0.83240136381E+02  0.19723500603E+03  0.00000000000E+00 0.  1.
<mgrwt>
<rscale>  0 0.25153093E+04</rscale>
<asrwt>0</asrwt>
<pdfrwt beam="1">  1        2 0.14548705E+00 0.25153093E+04</pdfrwt>
<pdfrwt beam="2">  1       -2 0.25731894E+00 0.25153093E+04</pdfrwt>
<totfact> 0.14104169E+00</totfact>
</mgrwt>
</event>
<event>
12    1  0.4820219E-008  0.1152513E+04  0.7818608E-02  0.9155469E-01
         -2   -1    0    0    0  501 -0.00000000000E+00  0.00000000000E+00  0.22085878332E+03  0.22085878332E+03  0.00000000000E+00 0.  1.
          2   -1    0    0  501    0  0.00000000000E+00 -0.00000000000E+00 -0.15035462010E+04  0.15035462010E+04  0.00000000000E+00 0. -1.
         23    2    1    2    0    0  0.14130600717E+03 -0.45026357610E+02 -0.46168666112E+03  0.49360297812E+03  0.92165972128E+02 0.  0.
        254    2    1    2    0    0 -0.14130600717E+03  0.45026357610E+02 -0.82100075652E+03  0.12308020062E+04  0.90489589214E+03 0.  0.
         23    2    4    4    0    0  0.25377726247E+03  0.31687793580E+03 -0.27864025819E+03  0.50113010452E+03  0.93147533711E+02 0.  0.
         23    2    4    4    0    0 -0.39508326964E+03 -0.27185157819E+03 -0.54236049834E+03  0.72967190164E+03  0.90951104293E+02 0.  0.
         11    1    3    3    0    0  0.19923463011E+02 -0.34949133350E+02 -0.21211028431E+03  0.21589154456E+03  0.00000000000E+00 0. -1.
        -11    1    3    3    0    0  0.12138254416E+03 -0.10077224260E+02 -0.24957637680E+03  0.27771143357E+03  0.00000000000E+00 0.  1.
          4    1    5    5  502    0  0.18809374321E+02  0.68594945866E+02 -0.74373251354E+02  0.10290986191E+03  0.00000000000E+00 0. -1.
          3    1    6    6  503    0  0.32550778648E+01 -0.76548431830E+01 -0.26557622857E+01  0.87318514291E+01  0.00000000000E+00 0. -1.
         -4    1    5    5    0  502  0.23496788815E+03  0.24828298993E+03 -0.20426700683E+03  0.39822024262E+03  0.00000000000E+00 0.  1.
         -3    1    6    6    0  503 -0.39833834750E+03 -0.26419673500E+03 -0.53970473605E+03  0.72094005021E+03  0.00000000000E+00 0.  1.
<mgrwt>
<rscale>  0 0.11525127E+04</rscale>
<asrwt>0</asrwt>
<pdfrwt beam="1">  1        2 0.23131480E+00 0.11525127E+04</pdfrwt>
<pdfrwt beam="2">  1       -2 0.33978275E-01 0.11525127E+04</pdfrwt>
<totfact> 0.10131535E+02</totfact>
</mgrwt>
</event>
<event>
12    1  0.4820219E-008  0.1845294E+04  0.7818608E-02  0.8682577E-01
         -2   -1    0    0    0  501 -0.00000000000E+00  0.00000000000E+00  0.84641604208E+03  0.84641604208E+03  0.00000000000E+00 0.  1.
          2   -1    0    0  501    0  0.00000000000E+00 -0.00000000000E+00 -0.10057437079E+04  0.10057437079E+04  0.00000000000E+00 0. -1.
         23    2    1    2    0    0  0.26652371421E+03 -0.12176092596E+03 -0.69297596819E+03  0.75801409060E+03  0.92244543093E+02 0.  0.
        254    2    1    2    0    0 -0.26652371421E+03  0.12176092596E+03  0.53364830239E+03  0.10941456594E+04  0.90912793374E+03 0.  0.
         23    2    4    4    0    0 -0.13707869642E+03  0.80008424493E+02 -0.24082003806E+03  0.30257446639E+03  0.91460920509E+02 0.  0.
         23    2    4    4    0    0 -0.12944501779E+03  0.41752501465E+02  0.77446834045E+03  0.79157119296E+03  0.91019004387E+02 0.  0.
         11    1    3    3    0    0  0.11165331516E+02 -0.34145720557E+02 -0.10619051210E+03  0.11210271951E+03  0.00000000000E+00 0.  1.
        -11    1    3    3    0    0  0.25535838269E+03 -0.87615205400E+02 -0.58678545609E+03  0.64591137109E+03  0.00000000000E+00 0. -1.
          4    1    5    5  502    0 -0.54606514952E+02 -0.15216489306E+02 -0.85590542969E+02  0.10266038217E+03  0.00000000000E+00 0. -1.
          1    1    6    6  503    0 -0.33963476545E+02 -0.28484902853E+02  0.17773041608E+03  0.18317480239E+03  0.00000000000E+00 0. -1.
         -4    1    5    5    0  502 -0.82472181466E+02  0.95224913798E+02 -0.15522949509E+03  0.19991408422E+03  0.00000000000E+00 0.  1.
         -1    1    6    6    0  503 -0.95481541248E+02  0.70237404318E+02  0.59673792437E+03  0.60839639058E+03  0.00000000000E+00 0.  1.
<mgrwt>
<rscale>  0 0.18452941E+04</rscale>
<asrwt>0</asrwt>
<pdfrwt beam="1">  1        2 0.15472980E+00 0.18452941E+04</pdfrwt>
<pdfrwt beam="2">  1       -2 0.13021785E+00 0.18452941E+04</pdfrwt>
<totfact> 0.10160016E+01</totfact>
</mgrwt>
</event>
<event>
12    1  0.4820219E-008  0.1519004E+04  0.7818608E-02  0.8871913E-01
         -2   -1    0    0    0  501 -0.00000000000E+00  0.00000000000E+00  0.58584305523E+03  0.58584305523E+03  0.00000000000E+00 0.  1.
          2   -1    0    0  501    0  0.00000000000E+00 -0.00000000000E+00 -0.98463804192E+03  0.98463804192E+03  0.00000000000E+00 0. -1.
         23    2    1    2    0    0  0.27913690887E+03  0.32706327562E+03 -0.37302059203E+03  0.57698775933E+03  0.94248141545E+02 0.  0.
        254    2    1    2    0    0 -0.27913690887E+03 -0.32706327562E+03 -0.25774394652E+02  0.99349333782E+03  0.89525241844E+03 0.  0.
         23    2    4    4    0    0  0.94598149518E+02 -0.33953801706E+03  0.31358388569E+03  0.48062770333E+03  0.91832787846E+02 0.  0.
         23    2    4    4    0    0 -0.37373505838E+03  0.12474741440E+02 -0.33935828035E+03  0.51286563448E+03  0.89630371844E+02 0.  0.
         11    1    3    3    0    0  0.57362700599E+01 -0.36800811493E+01  0.19901926087E+01  0.70999054983E+01  0.00000000000E+00 0.  1.
        -11    1    3    3    0    0  0.27340063881E+03  0.33074335677E+03 -0.37501078464E+03  0.56988785383E+03  0.00000000000E+00 0. -1.
          1    1    6    6  502    0 -0.48558335915E+01  0.14863819520E+02 -0.13039856606E+02  0.20360503699E+02  0.00000000000E+00 0. -1.
          1    1    5    5  503    0 -0.12420440208E+02 -0.17069060883E+02  0.51062906383E+01  0.21718526158E+02  0.00000000000E+00 0. -1.
         -1    1    5    5    0  503  0.10701858973E+03 -0.32246895618E+03  0.30847759505E+03  0.45890917717E+03  0.00000000000E+00 0.  1.
         -1    1    6    6    0  502 -0.36887922479E+03 -0.23890780805E+01 -0.32631842374E+03  0.49250513079E+03  0.00000000000E+00 0.  1.
<mgrwt>
<rscale>  0 0.15190041E+04</rscale>
<asrwt>0</asrwt>
<pdfrwt beam="1">  1        2 0.15148278E+00 0.15190041E+04</pdfrwt>
<pdfrwt beam="2">  1       -2 0.90129700E-01 0.15190041E+04</pdfrwt>
<totfact> 0.26195527E+01</totfact>
</mgrwt>
</event>
<event>
12    1  0.4820219E-008  0.1484422E+04  0.7818608E-02  0.8894879E-01
          4   -1    0    0  501    0  0.00000000000E+00  0.00000000000E+00  0.12788801388E+04  0.12788801388E+04  0.00000000000E+00 0. -1.
         -4   -1    0    0    0  501 -0.00000000000E+00 -0.00000000000E+00 -0.43074959108E+03  0.43074959108E+03  0.00000000000E+00 0.  1.
         23    2    1    2    0    0  0.57335234564E+02  0.82536556433E+02  0.78111763135E+03  0.79362642904E+03  0.97972152205E+02 0.  0.
        254    2    1    2    0    0 -0.57335234564E+02 -0.82536556433E+02  0.67012916419E+02  0.91600330088E+03  0.90800424227E+03 0.  0.
         23    2    4    4    0    0 -0.37745977142E+03 -0.18540820050E+03 -0.20330159642E+03  0.47635767293E+03  0.93450594398E+02 0.  0.
         23    2    4    4    0    0  0.32012453686E+03  0.10287164407E+03  0.27031451283E+03  0.43964562795E+03  0.84593428089E+02 0.  0.
         11    1    3    3    0    0  0.18572905328E+00 -0.35971705062E+01 -0.17215083760E+01  0.39922076625E+01  0.00000000000E+00 0.  1.
        -11    1    3    3    0    0  0.57149505511E+02  0.86133726940E+02  0.78283913972E+03  0.78963422138E+03  0.00000000000E+00 0. -1.
          4    1    6    6  502    0  0.19064410566E+03  0.41574034425E+02  0.10749458697E+03  0.22277491239E+03  0.00000000000E+00 0. -1.
          4    1    5    5  503    0 -0.10266984584E+02  0.36115009196E+01 -0.23557535193E+02  0.25950171015E+02  0.00000000000E+00 0. -1.
         -4    1    5    5    0  503 -0.36719278684E+03 -0.18901970142E+03 -0.17974406122E+03  0.45040750191E+03  0.00000000000E+00 0.  1.
         -4    1    6    6    0  502  0.12948043120E+03  0.61297609646E+02  0.16281992586E+03  0.21687071556E+03  0.00000000000E+00 0.  1.
<mgrwt>
<rscale>  0 0.14844219E+04</rscale>
<asrwt>0</asrwt>
<pdfrwt beam="1">  1        4 0.19675079E+00 0.14844219E+04</pdfrwt>
<pdfrwt beam="2">  1       -4 0.66269168E-01 0.14844219E+04</pdfrwt>
<totfact> 0.56516140E-01</totfact>
</mgrwt>
</event>
<event>
12    1  0.4820219E-008  0.1750989E+04  0.7818608E-02  0.8732806E-01
          2   -1    0    0  501    0  0.00000000000E+00  0.00000000000E+00  0.24287966370E+04  0.24287966370E+04  0.00000000000E+00 0. -1.
         -2   -1    0    0    0  501 -0.00000000000E+00 -0.00000000000E+00 -0.31558438164E+03  0.31558438164E+03  0.00000000000E+00 0.  1.
         23    2    1    2    0    0  0.59832999094E+03  0.20512069012E+03  0.85399000681E+03  0.10665519892E+04  0.90337911982E+02 0.  0.
        254    2    1    2    0    0 -0.59832999094E+03 -0.20512069012E+03  0.12592222486E+04  0.16778290295E+04  0.91071197709E+03 0.  0.
         23    2    4    4    0    0  0.84762127623E+02  0.68469180768E+01 -0.86012006508E+02  0.15124917736E+03  0.90811617218E+02 0.  0.
         23    2    4    4    0    0 -0.68309211857E+03 -0.21196760819E+03  0.13452342551E+04  0.15265798521E+04  0.96154742124E+02 0.  0.
         11    1    3    3    0    0  0.27780113802E+03  0.81595656034E+02  0.46323454723E+03  0.54627609239E+03  0.00000000000E+00 0. -1.
        -11    1    3    3    0    0  0.32052885292E+03  0.12352503408E+03  0.39075545957E+03  0.52027589680E+03  0.00000000000E+00 0.  1.
          4    1    5    5  502    0  0.87468257371E+02 -0.13130071698E+02 -0.94447164097E+02  0.12939614228E+03  0.00000000000E+00 0. -1.
          3    1    6    6  503    0 -0.62300394485E+03 -0.20127663086E+03  0.12768669354E+04  0.14349339246E+04  0.00000000000E+00 0. -1.
         -4    1    5    5    0  502 -0.27061297482E+01  0.19976989775E+02  0.84351575888E+01  0.21853035081E+02  0.00000000000E+00 0.  1.
         -3    1    6    6    0  503 -0.60088173715E+02 -0.10690977330E+02  0.68367319709E+02  0.91645927465E+02  0.00000000000E+00 0.  1.
<mgrwt>
<rscale>  0 0.17509886E+04</rscale>
<asrwt>0</asrwt>
<pdfrwt beam="1">  1        2 0.37366101E+00 0.17509886E+04</pdfrwt>
<pdfrwt beam="2">  1       -2 0.48551445E-01 0.17509886E+04</pdfrwt>
<totfact> 0.14588731E+01</totfact>
</mgrwt>
</event>
<event>
12    1  0.4820219E-008  0.2088210E+04  0.7818608E-02  0.8566455E-01
          1   -1    0    0  501    0  0.00000000000E+00  0.00000000000E+00  0.15660831599E+04  0.15660831599E+04  0.00000000000E+00 0. -1.
         -1   -1    0    0    0  501 -0.00000000000E+00 -0.00000000000E+00 -0.69610295824E+03  0.69610295824E+03  0.00000000000E+00 0.  1.
         23    2    1    2    0    0 -0.30753615436E+03 -0.46953445645E+03  0.10594778268E+04  0.12025746243E+04  0.93012737999E+02 0.  0.
        254    2    1    2    0    0  0.30753615436E+03  0.46953445645E+03 -0.18949762515E+03  0.10596114939E+04  0.87853632592E+03 0.  0.
         23    2    4    4    0    0 -0.56371631705E+02 -0.26879981512E+02  0.26591057455E+03  0.28820577991E+03  0.91944785850E+02 0.  0.
         23    2    4    4    0    0  0.36390778607E+03  0.49641443796E+03 -0.45540819970E+03  0.77140571396E+03  0.93882779019E+02 0.  0.
         11    1    3    3    0    0 -0.93847935839E+02 -0.15521739921E+03  0.25610391120E+03  0.31382971404E+03  0.00000000000E+00 0.  1.
        -11    1    3    3    0    0 -0.21368821853E+03 -0.31431705724E+03  0.80337391564E+03  0.88874491028E+03  0.00000000000E+00 0. -1.
          4    1    5    5  502    0 -0.64057545002E+02 -0.37422485073E+02  0.11577981622E+03  0.13750918989E+03  0.00000000000E+00 0. -1.
          3    1    6    6  503    0  0.20591682006E+03  0.25430337019E+03 -0.18682042819E+03  0.37679412583E+03  0.00000000000E+00 0. -1.
         -4    1    5    5    0  502  0.76859132968E+01  0.10542503560E+02  0.15013075833E+03  0.15069659001E+03  0.00000000000E+00 0.  1.
         -3    1    6    6    0  503  0.15799096601E+03  0.24211106777E+03 -0.26858777151E+03  0.39461158813E+03  0.00000000000E+00 0.  1.
<mgrwt>
<rscale>  0 0.20882099E+04</rscale>
<asrwt>0</asrwt>
<pdfrwt beam="1">  1        1 0.24093587E+00 0.20882099E+04</pdfrwt>
<pdfrwt beam="2">  1       -1 0.10709276E+00 0.20882099E+04</pdfrwt>
<totfact> 0.44065687E+00</totfact>
</mgrwt>
</event>
<event>
12    1  0.4820219E-008  0.1442276E+04  0.7818608E-02  0.8923773E-01
         -2   -1    0    0    0  501 -0.00000000000E+00  0.00000000000E+00  0.44020904115E+03  0.44020904115E+03  0.00000000000E+00 0.  1.
          2   -1    0    0  501    0  0.00000000000E+00 -0.00000000000E+00 -0.11813477288E+04  0.11813477288E+04  0.00000000000E+00 0. -1.
         23    2    1    2    0    0 -0.12741749993E+02  0.43046975835E+03 -0.29827191621E+03  0.53253126357E+03  0.95691408345E+02 0.  0.
        254    2    1    2    0    0  0.12741749993E+02 -0.43046975835E+03 -0.44286677142E+03  0.10890255064E+04  0.89687179197E+03 0.  0.
         23    2    4    4    0    0 -0.31530859788E+03  0.10238232353E+03 -0.58835224532E+02  0.34871039347E+03  0.90750773019E+02 0.  0.
         23    2    4    4    0    0  0.32805034787E+03 -0.53285208188E+03 -0.38403154689E+03  0.74031511289E+03  0.95067688859E+02 0.  0.
         11    1    3    3    0    0 -0.13620592997E+02  0.20537698560E+03 -0.19975200308E+03  0.28682065738E+03  0.00000000000E+00 0. -1.
        -11    1    3    3    0    0  0.87884300361E+00  0.22509277275E+03 -0.98519913138E+02  0.24571060619E+03  0.00000000000E+00 0.  1.
          4    1    5    5  502    0 -0.30894960505E+03  0.11375104967E+03 -0.62658350233E+02  0.33513464252E+03  0.00000000000E+00 0. -1.
          3    1    6    6  503    0  0.26408161394E+03 -0.42229012028E+03 -0.25820208235E+03  0.56101368953E+03  0.00000000000E+00 0. -1.
         -4    1    5    5    0  502 -0.63589928283E+01 -0.11368726142E+02  0.38231257011E+01  0.13575750956E+02  0.00000000000E+00 0.  1.
         -3    1    6    6    0  503  0.63968733932E+02 -0.11056196160E+03 -0.12582946454E+03  0.17930142336E+03  0.00000000000E+00 0.  1.
<mgrwt>
<rscale>  0 0.14422759E+04</rscale>
<asrwt>0</asrwt>
<pdfrwt beam="1">  1        2 0.18174580E+00 0.14422759E+04</pdfrwt>
<pdfrwt beam="2">  1       -2 0.67724468E-01 0.14422759E+04</pdfrwt>
<totfact> 0.37677405E+01</totfact>
</mgrwt>
</event>
<event>
12    1  0.4820219E-008  0.1126401E+04  0.7818608E-02  0.9179835E-01
          2   -1    0    0  501    0  0.00000000000E+00  0.00000000000E+00  0.58263759707E+03  0.58263759707E+03  0.00000000000E+00 0. -1.
         -2   -1    0    0    0  501 -0.00000000000E+00 -0.00000000000E+00 -0.54441211640E+03  0.54441211640E+03  0.00000000000E+00 0.  1.
         23    2    1    2    0    0  0.18460001203E+03  0.47359616409E+02 -0.43062445815E+01  0.20929900790E+03  0.86414311661E+02 0.  0.
        254    2    1    2    0    0 -0.18460001203E+03 -0.47359616409E+02  0.42531725258E+02  0.91775070557E+03  0.89673703626E+03 0.  0.
         23    2    4    4    0    0  0.31296864392E+03 -0.57179739183E+02 -0.16582744562E+03  0.37043205300E+03  0.92207751946E+02 0.  0.
         23    2    4    4    0    0 -0.49756865595E+03  0.98201227743E+01  0.20835917088E+03  0.54731865257E+03  0.92049775482E+02 0.  0.
         13    1    3    3    0    0  0.77222288642E+02  0.77894419187E+01  0.39100055689E+02  0.86906683422E+02  0.00000000000E+00 0. -1.
        -13    1    3    3    0    0  0.10737772339E+03  0.39570174490E+02 -0.43406300271E+02  0.12239232448E+03  0.00000000000E+00 0.  1.
          4    1    5    5  502    0  0.31397803354E+03 -0.48645093515E+02 -0.17057198931E+03  0.36061524400E+03  0.00000000000E+00 0. -1.
          3    1    6    6  503    0 -0.37957693218E+03  0.22701712227E+02  0.19652460969E+03  0.42803730841E+03  0.00000000000E+00 0. -1.
         -4    1    5    5    0  502 -0.10093896239E+01 -0.85346456687E+01  0.47445436863E+01  0.98168089976E+01  0.00000000000E+00 0.  1.
         -3    1    6    6    0  503 -0.11799172377E+03 -0.12881589453E+02  0.11834561191E+02  0.11928134415E+03  0.00000000000E+00 0.  1.
<mgrwt>
<rscale>  0 0.11264013E+04</rscale>
<asrwt>0</asrwt>
<pdfrwt beam="1">  1        2 0.89636554E-01 0.11264013E+04</pdfrwt>
<pdfrwt beam="2">  1       -2 0.83755710E-01 0.11264013E+04</pdfrwt>
<totfact> 0.63508188E+01</totfact>
</mgrwt>
</event>
<event>
12    1  0.4820219E-008  0.2572362E+04  0.7818608E-02  0.8377650E-01
         -2   -1    0    0    0  501 -0.00000000000E+00  0.00000000000E+00  0.62640472961E+03  0.62640472961E+03  0.00000000000E+00 0.  1.
          2   -1    0    0  501    0  0.00000000000E+00 -0.00000000000E+00 -0.26408836849E+04  0.26408836849E+04  0.00000000000E+00 0. -1.
         23    2    1    2    0    0 -0.10306744539E+04  0.33254156164E+03 -0.50829198137E+03  0.11997002712E+04  0.89701070754E+02 0.  0.
        254    2    1    2    0    0  0.10306744539E+04 -0.33254156164E+03 -0.15061869739E+04  0.20675881433E+04  0.91293362842E+03 0.  0.
         23    2    4    4    0    0  0.68882914718E+03  0.24467469804E+03 -0.84990157059E+03  0.11248879585E+04  0.93214470819E+02 0.  0.
         23    2    4    4    0    0  0.34184530675E+03 -0.57721625968E+03 -0.65628540332E+03  0.94270018486E+03  0.89085822323E+02 0.  0.
         11    1    3    3    0    0 -0.90880126786E+03  0.29185946770E+03 -0.47881257640E+03  0.10678778847E+04  0.00000000000E+00 0.  1.
        -11    1    3    3    0    0 -0.12187318607E+03  0.40682093948E+02 -0.29479404973E+02  0.13182238644E+03  0.00000000000E+00 0. -1.
          4    1    5    5  502    0  0.33276793154E+03  0.16732639247E+03 -0.43784110608E+03  0.57483689169E+03  0.00000000000E+00 0. -1.
          1    1    6    6  503    0  0.24527682734E+03 -0.32998464854E+03 -0.38886845774E+03  0.56592337620E+03  0.00000000000E+00 0. -1.
         -4    1    5    5    0  502  0.35606121564E+03  0.77348305568E+02 -0.41206046451E+03  0.55005106678E+03  0.00000000000E+00 0.  1.
         -1    1    6    6    0  503  0.96568479412E+02 -0.24723161115E+03 -0.26741694558E+03  0.37677680866E+03  0.00000000000E+00 0.  1.
<mgrwt>
<rscale>  0 0.25723624E+04</rscale>
<asrwt>0</asrwt>
<pdfrwt beam="1">  1        2 0.40628980E+00 0.25723624E+04</pdfrwt>
<pdfrwt beam="2">  1       -2 0.96369959E-01 0.25723624E+04</pdfrwt>
<totfact> 0.22999476E+00</totfact>
</mgrwt>
</event>
<event>
12    1  0.4820219E-008  0.1140404E+04  0.7818608E-02  0.9166682E-01
          1   -1    0    0  501    0  0.00000000000E+00  0.00000000000E+00  0.25335846776E+04  0.25335846776E+04  0.00000000000E+00 0. -1.
         -1   -1    0    0    0  501 -0.00000000000E+00 -0.00000000000E+00 -0.12832812127E+03  0.12832812127E+03  0.00000000000E+00 0.  1.
         23    2    1    2    0    0 -0.53011892487E+02  0.99170705256E+02  0.79840936941E+02  0.16710595809E+03  0.94364911330E+02 0.  0.
        254    2    1    2    0    0  0.53011892487E+02 -0.99170705256E+02  0.23254156194E+04  0.24948068408E+04  0.89658144102E+03 0.  0.
         23    2    4    4    0    0  0.33274633233E+03 -0.36666627426E+03  0.12122560321E+04  0.13127746919E+04  0.92996913426E+02 0.  0.
         23    2    4    4    0    0 -0.27973443984E+03  0.26749556900E+03  0.11131595873E+04  0.11820321489E+04  0.90942278433E+02 0.  0.
         11    1    3    3    0    0 -0.75837377560E+02  0.85488089989E+02  0.43979524281E+02  0.12244884614E+03  0.00000000000E+00 0.  1.
        -11    1    3    3    0    0  0.22825485073E+02  0.13682615267E+02  0.35861412660E+02  0.44657111946E+02  0.00000000000E+00 0. -1.
          1    1    5    5  502    0  0.36962317944E+02 -0.20778287273E+02  0.56510621769E+02  0.70649844603E+02  0.00000000000E+00 0. -1.
          3    1    6    6  503    0 -0.75716381913E+02  0.12664762917E+03  0.47578220393E+03  0.49813783036E+03  0.00000000000E+00 0. -1.
         -1    1    5    5    0  502  0.29578401439E+03 -0.34588798699E+03  0.11557454104E+04  0.12421248473E+04  0.00000000000E+00 0.  1.
         -3    1    6    6    0  503 -0.20401805793E+03  0.14084793983E+03  0.63737738336E+03  0.68389431854E+03  0.00000000000E+00 0.  1.
<mgrwt>
<rscale>  0 0.11404037E+04</rscale>
<asrwt>0</asrwt>
<pdfrwt beam="1">  1        1 0.38978222E+00 0.11404037E+04</pdfrwt>
<pdfrwt beam="2">  1       -1 0.19742790E-01 0.11404037E+04</pdfrwt>
<totfact> 0.26889419E+01</totfact>
</mgrwt>
</event>
<event>
12    1  0.4820219E-008  0.2376804E+04  0.7818608E-02  0.8448239E-01
         -2   -1    0    0    0  501 -0.00000000000E+00  0.00000000000E+00  0.12513551409E+04  0.12513551409E+04  0.00000000000E+00 0.  1.
          2   -1    0    0  501    0  0.00000000000E+00 -0.00000000000E+00 -0.11286154732E+04  0.11286154732E+04  0.00000000000E+00 0. -1.
         23    2    1    2    0    0  0.93427625964E+03  0.29085641561E+03  0.33680165637E+03  0.10374110435E+04  0.72915935856E+02 0.  0.
        254    2    1    2    0    0 -0.93427625964E+03 -0.29085641561E+03 -0.21406198866E+03  0.13425595706E+04  0.89396536940E+03 0.  0.
         23    2    4    4    0    0 -0.13481880249E+03 -0.36129889931E+03 -0.34199218553E+03  0.52490384410E+03  0.99259188193E+02 0.  0.
         23    2    4    4    0    0 -0.79945745715E+03  0.70442483702E+02  0.12793019687E+03  0.81765572646E+03  0.90002124646E+02 0.  0.
         13    1    3    3    0    0  0.86334132150E+03  0.25891915542E+03  0.32784725682E+03  0.95910436880E+03  0.00000000000E+00 0.  1.
        -13    1    3    3    0    0  0.70934938147E+02  0.31937260186E+02  0.89543995457E+01  0.78306674743E+02  0.00000000000E+00 0. -1.
          2    1    5    5  502    0 -0.12973823937E+03 -0.32620744219E+03 -0.26405997908E+03  0.43928462145E+03  0.00000000000E+00 0. -1.
          4    1    6    6  503    0 -0.70486589852E+03  0.56816307756E+02  0.14137830451E+03  0.72114620758E+03  0.00000000000E+00 0. -1.
         -2    1    5    5    0  502 -0.50805631198E+01 -0.35091457123E+02 -0.77932206450E+02  0.85619222648E+02  0.00000000000E+00 0.  1.
         -4    1    6    6    0  503 -0.94591558635E+02  0.13626175945E+02 -0.13448107644E+02  0.96509518883E+02  0.00000000000E+00 0.  1.
<mgrwt>
<rscale>  0 0.23768035E+04</rscale>
<asrwt>0</asrwt>
<pdfrwt beam="1">  1        2 0.17363315E+00 0.23768035E+04</pdfrwt>
<pdfrwt beam="2">  1       -2 0.19251618E+00 0.23768035E+04</pdfrwt>
<totfact> 0.28101017E+00</totfact>
</mgrwt>
</event>
<event>
12    1  0.4820219E-008  0.1328669E+04  0.7818608E-02  0.9007134E-01
          2   -1    0    0  501    0  0.00000000000E+00  0.00000000000E+00  0.10446211690E+04  0.10446211690E+04  0.00000000000E+00 0. -1.
         -2   -1    0    0    0  501 -0.00000000000E+00 -0.00000000000E+00 -0.42248851572E+03  0.42248851572E+03  0.00000000000E+00 0.  1.
         23    2    1    2    0    0 -0.28483975477E+01 -0.33476357291E+02 -0.23149526803E+03  0.25060843201E+03  0.89920782964E+02 0.  0.
        254    2    1    2    0    0  0.28483975477E+01  0.33476357291E+02  0.85362792130E+03  0.12165012527E+04  0.86606344451E+03 0.  0.
         23    2    4    4    0    0  0.36090381375E+03  0.19111530749E+03  0.23897784231E+03  0.48201027083E+03  0.91906847025E+02 0.  0.
         23    2    4    4    0    0 -0.35805541620E+03 -0.15763895020E+03  0.61465007899E+03  0.73449098187E+03  0.92890059461E+02 0.  0.
         11    1    3    3    0    0  0.25444113105E+02 -0.13851940778E+02 -0.20532714970E+03  0.20736083902E+03  0.00000000000E+00 0.  1.
        -11    1    3    3    0    0 -0.28292510653E+02 -0.19624416512E+02 -0.26168118325E+02  0.43247592987E+02  0.00000000000E+00 0. -1.
          2    1    5    5  502    0  0.31919816395E+03  0.19652573134E+03  0.22724434237E+03  0.43834897295E+03  0.00000000000E+00 0. -1.
          2    1    6    6  503    0 -0.21498643463E+03 -0.11336170588E+03  0.45331731532E+03  0.51436041042E+03  0.00000000000E+00 0. -1.
         -2    1    5    5    0  502  0.41705649798E+02 -0.54104238477E+01  0.11733499941E+02  0.43661297875E+02  0.00000000000E+00 0.  1.
         -2    1    6    6    0  503 -0.14306898157E+03 -0.44277244314E+02  0.16133276367E+03  0.22013057144E+03  0.00000000000E+00 0.  1.
<mgrwt>
<rscale>  0 0.13286692E+04</rscale>
<asrwt>0</asrwt>
<pdfrwt beam="1">  1        2 0.16071095E+00 0.13286692E+04</pdfrwt>
<pdfrwt beam="2">  1       -2 0.64998233E-01 0.13286692E+04</pdfrwt>
<totfact> 0.50394641E+01</totfact>
</mgrwt>
</event>
<event>
12    1  0.4820219E-008  0.1354613E+04  0.7818608E-02  0.8987344E-01
         -2   -1    0    0    0  501 -0.00000000000E+00  0.00000000000E+00  0.31731940007E+03  0.31731940007E+03  0.00000000000E+00 0.  1.
          2   -1    0    0  501    0  0.00000000000E+00 -0.00000000000E+00 -0.14456850128E+04  0.14456850128E+04  0.00000000000E+00 0. -1.
         23    2    1    2    0    0  0.10185984524E+03  0.55914616219E+02 -0.77308525331E+03  0.78690327736E+03  0.89744563373E+02 0.  0.
        254    2    1    2    0    0 -0.10185984524E+03 -0.55914616219E+02 -0.35528035942E+03  0.97610113551E+03  0.90169142203E+03 0.  0.
         23    2    4    4    0    0  0.33061859816E+01 -0.21634710288E+03  0.24496876360E+03  0.33941440221E+03  0.91517438217E+02 0.  0.
         23    2    4    4    0    0 -0.10516603122E+03  0.16043248666E+03 -0.60024912302E+03  0.63668673330E+03  0.90953338456E+02 0.  0.
         13    1    3    3    0    0  0.15575468432E+02  0.35599669883E+02 -0.89189929941E+02  0.97287076817E+02  0.00000000000E+00 0.  1.
        -13    1    3    3    0    0  0.86284376808E+02  0.20314946337E+02 -0.68389532336E+03  0.68961620054E+03  0.00000000000E+00 0. -1.
          2    1    5    5  502    0 -0.23104104514E+01 -0.14432355063E+03  0.94565362214E+02  0.17256080955E+03  0.00000000000E+00 0. -1.
          3    1    6    6  503    0 -0.33891654520E+02 -0.28020648511E+01 -0.87069401349E+02  0.93475004492E+02  0.00000000000E+00 0. -1.
         -2    1    5    5    0  502  0.56165964330E+01 -0.72023552247E+02  0.15040340138E+03  0.16685359265E+03  0.00000000000E+00 0.  1.
         -3    1    6    6    0  503 -0.71274376702E+02  0.16323455151E+03 -0.51317972167E+03  0.54321172881E+03  0.00000000000E+00 0.  1.
<mgrwt>
<rscale>  0 0.13546127E+04</rscale>
<asrwt>0</asrwt>
<pdfrwt beam="1">  1        2 0.22241308E+00 0.13546127E+04</pdfrwt>
<pdfrwt beam="2">  1       -2 0.48818368E-01 0.13546127E+04</pdfrwt>
<totfact> 0.52855106E+01</totfact>
</mgrwt>
</event>
<event>
12    1  0.4820219E-008  0.3017874E+04  0.7818608E-02  0.8238645E-01
          2   -1    0    0  501    0  0.00000000000E+00  0.00000000000E+00  0.23634652253E+04  0.23634652253E+04  0.00000000000E+00 0.  1.
         -2   -1    0    0    0  501 -0.00000000000E+00 -0.00000000000E+00 -0.96336941914E+03  0.96336941914E+03  0.00000000000E+00 0. -1.
         23    2    1    2    0    0  0.74822589304E+03 -0.82219765800E+03  0.15049886060E+04  0.18732698460E+04  0.91094654715E+02 0.  0.
        254    2    1    2    0    0 -0.74822589304E+03  0.82219765800E+03 -0.10489279978E+03  0.14535647984E+04  0.93058967755E+03 0.  0.
         23    2    4    4    0    0 -0.22489118963E+03  0.16661813875E+03 -0.45327590133E+03  0.54069783126E+03  0.92506489854E+02 0.  0.
         23    2    4    4    0    0 -0.52333470341E+03  0.65557951925E+03  0.34838310155E+03  0.91286696718E+03  0.91058203731E+02 0.  0.
         13    1    3    3    0    0  0.65971443588E+02 -0.10791642787E+03  0.19932412541E+03  0.23606840904E+03  0.00000000000E+00 0. -1.
        -13    1    3    3    0    0  0.68225444945E+03 -0.71428123014E+03  0.13056644806E+04  0.16372014370E+04  0.00000000000E+00 0.  1.
          4    1    5    5  502    0 -0.99158138115E+02  0.10393768221E+03 -0.15700819627E+03  0.21280731152E+03  0.00000000000E+00 0.  1.
          3    1    6    6  503    0 -0.86417660060E+02  0.88014156691E+02  0.20153365924E+02  0.12498264642E+03  0.00000000000E+00 0. -1.
         -4    1    5    5    0  502 -0.12573305151E+03  0.62680456537E+02 -0.29626770506E+03  0.32789051974E+03  0.00000000000E+00 0. -1.
         -3    1    6    6    0  503 -0.43691704335E+03  0.56756536256E+03  0.32822973563E+03  0.78788432076E+03  0.00000000000E+00 0.  1.
<mgrwt>
<rscale>  0 0.30178735E+04</rscale>
<asrwt>0</asrwt>
<pdfrwt beam="1">  1        2 0.36361003E+00 0.30178735E+04</pdfrwt>
<pdfrwt beam="2">  1       -2 0.14821068E+00 0.30178735E+04</pdfrwt>
<totfact> 0.11027347E+00</totfact>
</mgrwt>
</event>
<event>
12    1  0.4820219E-008  0.2295483E+04  0.7818608E-02  0.8479704E-01
         -1   -1    0    0    0  501 -0.00000000000E+00  0.00000000000E+00  0.49309826868E+03  0.49309826868E+03  0.00000000000E+00 0.  1.
          1   -1    0    0  501    0  0.00000000000E+00 -0.00000000000E+00 -0.26714959120E+04  0.26714959120E+04  0.00000000000E+00 0. -1.
         23    2    1    2    0    0 -0.36612453073E+03 -0.61698073460E+03 -0.18801774299E+04  0.20144497573E+04  0.90709745671E+02 0.  0.
        254    2    1    2    0    0  0.36612453073E+03  0.61698073460E+03 -0.29822021341E+03  0.11501444234E+04  0.84804746331E+03 0.  0.
         23    2    4    4    0    0  0.15917069446E+03 -0.40290688322E+02 -0.40528653025E+03  0.44677290567E+03  0.91598079093E+02 0.  0.
         23    2    4    4    0    0  0.20695383626E+03  0.65727142292E+03  0.10706631684E+03  0.70337151769E+03  0.91829635524E+02 0.  0.
         13    1    3    3    0    0 -0.31872348136E+03 -0.46403460041E+03 -0.14756185719E+04  0.15793552285E+04  0.00000000000E+00 0. -1.
        -13    1    3    3    0    0 -0.47401049365E+02 -0.15294613419E+03 -0.40455885804E+03  0.43509452888E+03  0.00000000000E+00 0.  1.
          2    1    5    5  502    0  0.13721589016E+03  0.17141121770E+01 -0.26062109025E+03  0.29454115396E+03  0.00000000000E+00 0. -1.
          1    1    6    6  503    0  0.20245513191E+03  0.52800494417E+03  0.78516857551E+02  0.57091347718E+03  0.00000000000E+00 0. -1.
         -2    1    5    5    0  502  0.21954804303E+02 -0.42004800499E+02 -0.14466544000E+03  0.15223175171E+03  0.00000000000E+00 0.  1.
         -1    1    6    6    0  503  0.44987043495E+01  0.12926647876E+03  0.28549459287E+02  0.13245804051E+03  0.00000000000E+00 0.  1.
<mgrwt>
<rscale>  0 0.22954825E+04</rscale>
<asrwt>0</asrwt>
<pdfrwt beam="1">  1        1 0.41099937E+00 0.22954825E+04</pdfrwt>
<pdfrwt beam="2">  1       -1 0.75861272E-01 0.22954825E+04</pdfrwt>
<totfact> 0.16225101E+00</totfact>
</mgrwt>
</event>
<event>
12    1  0.4820219E-008  0.1483087E+04  0.7818608E-02  0.8895778E-01
         -2   -1    0    0    0  501 -0.00000000000E+00  0.00000000000E+00  0.10610095622E+04  0.10610095622E+04  0.00000000000E+00 0.  1.
          2   -1    0    0  501    0  0.00000000000E+00 -0.00000000000E+00 -0.51826781461E+03  0.51826781461E+03  0.00000000000E+00 0. -1.
         23    2    1    2    0    0 -0.30600302409E+03 -0.28105488682E+03 -0.27242391715E+02  0.42517647544E+03  0.86041775926E+02 0.  0.
        254    2    1    2    0    0  0.30600302409E+03  0.28105488682E+03  0.56998413933E+03  0.11541009014E+04  0.91347538082E+03 0.  0.
         23    2    4    4    0    0 -0.28364215017E+03  0.17432940030E+03  0.38831787735E+02  0.34810891475E+03  0.93959031641E+02 0.  0.
         23    2    4    4    0    0  0.58964517426E+03  0.10672548652E+03  0.53115235160E+03  0.80599198665E+03  0.91806867549E+02 0.  0.
         13    1    3    3    0    0 -0.12009295372E+02 -0.37661059764E+02  0.12458005321E+02  0.41446115553E+02  0.00000000000E+00 0.  1.
        -13    1    3    3    0    0 -0.29399372872E+03 -0.24339382706E+03 -0.39700397035E+02  0.38373035989E+03  0.00000000000E+00 0. -1.
          4    1    5    5  502    0 -0.13670138755E+02  0.73516446047E+01 -0.19948008127E+02  0.25275331852E+02  0.00000000000E+00 0. -1.
          3    1    6    6  503    0  0.95901607641E+02  0.52886658873E+02  0.92887829500E+02  0.14360454695E+03  0.00000000000E+00 0. -1.
         -4    1    5    5    0  502 -0.26997201142E+03  0.16697775570E+03  0.58779795863E+02  0.32283358290E+03  0.00000000000E+00 0.  1.
         -3    1    6    6    0  503  0.49374356662E+03  0.53838827642E+02  0.43826452210E+03  0.66238743970E+03  0.00000000000E+00 0.  1.
<mgrwt>
<rscale>  0 0.14830875E+04</rscale>
<asrwt>0</asrwt>
<pdfrwt beam="1">  1        2 0.79733510E-01 0.14830875E+04</pdfrwt>
<pdfrwt beam="2">  1       -2 0.16323224E+00 0.14830875E+04</pdfrwt>
<totfact> 0.13609821E+01</totfact>
</mgrwt>
</event>
<event>
12    1  0.4820219E-008  0.1372376E+04  0.7818608E-02  0.8974060E-01
         -1   -1    0    0    0  501 -0.00000000000E+00  0.00000000000E+00  0.10346841199E+03  0.10346841199E+03  0.00000000000E+00 0.  1.
          1   -1    0    0  501    0  0.00000000000E+00 -0.00000000000E+00 -0.45507057087E+04  0.45507057087E+04  0.00000000000E+00 0. -1.
         23    2    1    2    0    0 -0.43398038901E+02  0.17202371849E+03 -0.24404599394E+04  0.24487095283E+04  0.94117417872E+02 0.  0.
        254    2    1    2    0    0  0.43398038901E+02 -0.17202371849E+03 -0.20067773572E+04  0.22054645924E+04  0.89746485015E+03 0.  0.
         23    2    4    4    0    0  0.78050424554E+02  0.47896101655E+02  0.46329140526E+02  0.13831241172E+03  0.92725555526E+02 0.  0.
         23    2    4    4    0    0 -0.34652385653E+02 -0.21991982014E+03 -0.20531064978E+04  0.20671521807E+04  0.91139079183E+02 0.  0.
         11    1    3    3    0    0 -0.30245144437E+01 -0.10626617933E+01 -0.52774230223E+03  0.52775203884E+03  0.00000000000E+00 0.  1.
        -11    1    3    3    0    0 -0.40373524457E+02  0.17308638028E+03 -0.19127176372E+04  0.19209574894E+04  0.00000000000E+00 0. -1.
          1    1    5    5  502    0 -0.20649093772E+02  0.15459530132E+02  0.38936812466E+01  0.26087217161E+02  0.00000000000E+00 0. -1.
          3    1    6    6  503    0  0.13904635493E+02  0.33642272018E+00 -0.17481413425E+03  0.17536656923E+03  0.00000000000E+00 0. -1.
         -1    1    5    5    0  502  0.98699518326E+02  0.32436571523E+02  0.42435459279E+02  0.11222519456E+03  0.00000000000E+00 0.  1.
         -3    1    6    6    0  503 -0.48557021146E+02 -0.22025624286E+03 -0.18782923635E+04  0.18917856115E+04  0.00000000000E+00 0.  1.
<mgrwt>
<rscale>  0 0.13723765E+04</rscale>
<asrwt>0</asrwt>
<pdfrwt beam="1">  1        1 0.70010848E+00 0.13723765E+04</pdfrwt>
<pdfrwt beam="2">  1       -1 0.15918219E-01 0.13723765E+04</pdfrwt>
<totfact> 0.86556285E-01</totfact>
</mgrwt>
</event>
<event>
12    1  0.4820219E-008  0.1865239E+04  0.7818608E-02  0.8672355E-01
         -2   -1    0    0    0  501 -0.00000000000E+00  0.00000000000E+00  0.81703741897E+03  0.81703741897E+03  0.00000000000E+00 0.  1.
          2   -1    0    0  501    0  0.00000000000E+00 -0.00000000000E+00 -0.10645522867E+04  0.10645522867E+04  0.00000000000E+00 0. -1.
         23    2    1    2    0    0  0.62976242629E+03 -0.32440028087E+03 -0.31762211278E+02  0.71517687881E+03  0.92913261258E+02 0.  0.
        254    2    1    2    0    0 -0.62976242629E+03  0.32440028087E+03 -0.21575265640E+03  0.11664128268E+04  0.90118445283E+03 0.  0.
         23    2    4    4    0    0 -0.83324757502E+02  0.34477534599E+03 -0.43575231593E+03  0.56973655341E+03  0.94374811490E+02 0.  0.
         23    2    4    4    0    0 -0.54643766879E+03 -0.20375065117E+02  0.21999965952E+03  0.59667627341E+03  0.92808705989E+02 0.  0.
         11    1    3    3    0    0  0.43017332764E+03 -0.23536611884E+03 -0.63091789427E+02  0.49439546479E+03  0.00000000000E+00 0.  1.
        -11    1    3    3    0    0  0.19958909865E+03 -0.89034162036E+02  0.31329578149E+02  0.22078141402E+03  0.00000000000E+00 0. -1.
          2    1    5    5  502    0 -0.84119469479E+02  0.16687327118E+03 -0.19160445233E+03  0.26764723039E+03  0.00000000000E+00 0. -1.
          2    1    6    6  503    0 -0.18854625485E+03 -0.49299967430E+02  0.63228624027E+02  0.20488542140E+03  0.00000000000E+00 0. -1.
         -2    1    5    5    0  502  0.79471197736E+00  0.17790207481E+03 -0.24414786360E+03  0.30208932303E+03  0.00000000000E+00 0.  1.
         -2    1    6    6    0  503 -0.35789141394E+03  0.28924902313E+02  0.15677103550E+03  0.39179085201E+03  0.00000000000E+00 0.  1.
<mgrwt>
<rscale>  0 0.18652389E+04</rscale>
<asrwt>0</asrwt>
<pdfrwt beam="1">  1        2 0.16377727E+00 0.18652389E+04</pdfrwt>
<pdfrwt beam="2">  1       -2 0.12569806E+00 0.18652389E+04</pdfrwt>
<totfact> 0.10178896E+01</totfact>
</mgrwt>
</event>
<event>
12    1  0.4820219E-008  0.2927685E+04  0.7818608E-02  0.8264688E-01
         -1   -1    0    0    0  501 -0.00000000000E+00  0.00000000000E+00  0.15772925374E+04  0.15772925374E+04  0.00000000000E+00 0.  1.
          1   -1    0    0  501    0  0.00000000000E+00 -0.00000000000E+00 -0.13585525146E+04  0.13585525146E+04  0.00000000000E+00 0. -1.
         23    2    1    2    0    0  0.28732756659E+03 -0.47480803943E+03 -0.11057854762E+04  0.12409774690E+04  0.96248399047E+02 0.  0.
        254    2    1    2    0    0 -0.28732756659E+03  0.47480803943E+03  0.13245254990E+04  0.16948675831E+04  0.90011583798E+03 0.  0.
         23    2    4    4    0    0 -0.96813529172E+02  0.65268114418E+03  0.52332025563E+03  0.84733907521E+03  0.93562188020E+02 0.  0.
         23    2    4    4    0    0 -0.19051403742E+03 -0.17787310475E+03  0.80120524338E+03  0.84752850786E+03  0.91871049661E+02 0.  0.
         13    1    3    3    0    0  0.25934788308E+03 -0.40546597107E+03 -0.87854988712E+03  0.10017554004E+04  0.00000000000E+00 0. -1.
        -13    1    3    3    0    0  0.27979683511E+02 -0.69342068367E+02 -0.22723558907E+03  0.23922206854E+03  0.00000000000E+00 0.  1.
          2    1    5    5  502    0 -0.21079217693E+02  0.19099545582E+03  0.20782740882E+03  0.28304739783E+03  0.00000000000E+00 0. -1.
          3    1    6    6  503    0 -0.24120110939E+02 -0.48955207990E+02  0.84827619708E+02  0.10086682907E+03  0.00000000000E+00 0. -1.
         -2    1    5    5    0  502 -0.75734311480E+02  0.46168568836E+03  0.31549284681E+03  0.56429167738E+03  0.00000000000E+00 0.  1.
         -3    1    6    6    0  503 -0.16639392648E+03 -0.12891789676E+03  0.71637762368E+03  0.74666167879E+03  0.00000000000E+00 0.  1.
<mgrwt>
<rscale>  0 0.29276849E+04</rscale>
<asrwt>0</asrwt>
<pdfrwt beam="1">  1        1 0.20900808E+00 0.29276849E+04</pdfrwt>
<pdfrwt beam="2">  1       -1 0.24266039E+00 0.29276849E+04</pdfrwt>
<totfact> 0.54803931E-01</totfact>
</mgrwt>
</event>
<event>
12    1  0.4820219E-008  0.2511453E+04  0.7818608E-02  0.8398917E-01
          1   -1    0    0  501    0  0.00000000000E+00  0.00000000000E+00  0.98528942952E+03  0.98528942952E+03  0.00000000000E+00 0. -1.
         -1   -1    0    0    0  501 -0.00000000000E+00 -0.00000000000E+00 -0.16003919634E+04  0.16003919634E+04  0.00000000000E+00 0.  1.
         23    2    1    2    0    0 -0.56459535193E+03  0.87662431151E+03  0.66908772077E+02  0.10482485053E+04  0.84321113616E+02 0.  0.
        254    2    1    2    0    0  0.56459535193E+03 -0.87662431151E+03 -0.68201130600E+03  0.15374328876E+04  0.90073434901E+03 0.  0.
         23    2    4    4    0    0  0.37181175765E+03 -0.88167047501E+03 -0.83665092822E+03  0.12743119947E+04  0.91101451698E+02 0.  0.
         23    2    4    4    0    0  0.19278359428E+03  0.50461635001E+01  0.15463962221E+03  0.26312089294E+03  0.90156605707E+02 0.  0.
         11    1    3    3    0    0 -0.51763915521E+03  0.80984312876E+03  0.38863817185E+02  0.96192857557E+03  0.00000000000E+00 0.  1.
        -11    1    3    3    0    0 -0.46956196726E+02  0.66781182745E+02  0.28044954892E+02  0.86319929766E+02  0.00000000000E+00 0. -1.
          2    1    5    5  502    0  0.33226303206E+03 -0.70540576877E+03 -0.69919311855E+03  0.10473142022E+04  0.00000000000E+00 0. -1.
          1    1    6    6  503    0  0.12745757901E+03 -0.30841851703E+02  0.12991321792E+03  0.18459170743E+03  0.00000000000E+00 0. -1.
         -2    1    5    5    0  502  0.39548725591E+02 -0.17626470624E+03 -0.13745780967E+03  0.22699779250E+03  0.00000000000E+00 0.  1.
         -1    1    6    6    0  503  0.65326015274E+02  0.35888015203E+02  0.24726404291E+02  0.78529185504E+02  0.00000000000E+00 0.  1.
<mgrwt>
<rscale>  0 0.25114532E+04</rscale>
<asrwt>0</asrwt>
<pdfrwt beam="1">  1        1 0.15158299E+00 0.25114532E+04</pdfrwt>
<pdfrwt beam="2">  1       -1 0.24621415E+00 0.25114532E+04</pdfrwt>
<totfact> 0.10178924E+00</totfact>
</mgrwt>
</event>
<event>
12    1  0.4820219E-008  0.2781022E+04  0.7818608E-02  0.8309185E-01
         -2   -1    0    0    0  501 -0.00000000000E+00  0.00000000000E+00  0.68057743611E+03  0.68057743611E+03  0.00000000000E+00 0.  1.
          2   -1    0    0  501    0  0.00000000000E+00 -0.00000000000E+00 -0.28410004525E+04  0.28410004525E+04  0.00000000000E+00 0. -1.
         23    2    1    2    0    0  0.77568842536E+03  0.84272102019E+03 -0.15703444336E+04  0.19457973003E+04  0.90962863112E+02 0.  0.
        254    2    1    2    0    0 -0.77568842536E+03 -0.84272102019E+03 -0.59007858277E+03  0.15757805883E+04  0.90720476057E+03 0.  0.
         23    2    4    4    0    0  0.24937440473E+02 -0.87753738654E+02 -0.44313534812E+03  0.46175255853E+03  0.92324936868E+02 0.  0.
         23    2    4    4    0    0 -0.80062586583E+03 -0.75496728154E+03 -0.14694323465E+03  0.11140280298E+04  0.92134487252E+02 0.  0.
         11    1    3    3    0    0  0.75978156318E+03  0.83746328491E+03 -0.15575005252E+04  0.19246871599E+04  0.00000000000E+00 0. -1.
        -11    1    3    3    0    0  0.15906862179E+02  0.52577352780E+01 -0.12843908366E+02  0.21110140377E+02  0.00000000000E+00 0.  1.
          1    1    5    5  502    0  0.39900631380E+02 -0.47576565379E+02 -0.38240606470E+03  0.38741449157E+03  0.00000000000E+00 0. -1.
          3    1    6    6  503    0 -0.44379160644E+03 -0.37915706383E+03 -0.11413714399E+03  0.59475907445E+03  0.00000000000E+00 0. -1.
         -1    1    5    5    0  502 -0.14963190907E+02 -0.40177173275E+02 -0.60729283423E+02  0.74338066962E+02  0.00000000000E+00 0.  1.
         -3    1    6    6    0  503 -0.35683425939E+03 -0.37581021771E+03 -0.32806090657E+02  0.51926895535E+03  0.00000000000E+00 0.  1.
<mgrwt>
<rscale>  0 0.27810220E+04</rscale>
<asrwt>0</asrwt>
<pdfrwt beam="1">  1        2 0.43707699E+00 0.27810220E+04</pdfrwt>
<pdfrwt beam="2">  1       -2 0.10470422E+00 0.27810220E+04</pdfrwt>
<totfact> 0.14077884E+00</totfact>
</mgrwt>
</event>
<event>
12    1  0.4820219E-008  0.4741205E+04  0.7818608E-02  0.7869718E-01
         -1   -1    0    0    0  501 -0.00000000000E+00  0.00000000000E+00  0.12126079590E+04  0.12126079590E+04  0.00000000000E+00 0.  1.
          1   -1    0    0  501    0  0.00000000000E+00 -0.00000000000E+00 -0.46344374600E+04  0.46344374600E+04  0.00000000000E+00 0. -1.
         23    2    1    2    0    0 -0.12427585692E+04 -0.61760089555E+02  0.71181570321E+03  0.14364907348E+04  0.92524947299E+02 0.  0.
        254    2    1    2    0    0  0.12427585692E+04  0.61760089555E+02 -0.41336452042E+04  0.44105546843E+04  0.90427140750E+03 0.  0.
         23    2    4    4    0    0  0.85685495706E+03  0.45971775706E+03 -0.26191324932E+04  0.27952735934E+04  0.90325032038E+02 0.  0.
         23    2    4    4    0    0  0.38590361214E+03 -0.39795766751E+03 -0.15145127110E+04  0.16152810908E+04  0.89957476817E+02 0.  0.
         13    1    3    3    0    0 -0.41161269348E+02  0.81635343081E+01  0.40440928134E+02  0.58278315479E+02  0.00000000000E+00 0. -1.
        -13    1    3    3    0    0 -0.12015972999E+04 -0.69923623863E+02  0.67137477508E+03  0.13782124193E+04  0.00000000000E+00 0.  1.
          4    1    5    5  502    0  0.59323078038E+03  0.32816219277E+03 -0.17052377331E+04  0.18350610099E+04  0.00000000000E+00 0. -1.
          1    1    6    6  503    0  0.28973564701E+03 -0.34910323145E+03 -0.12321089002E+04  0.13129783522E+04  0.00000000000E+00 0. -1.
         -4    1    5    5    0  502  0.26362417668E+03  0.13155556429E+03 -0.91389476015E+03  0.96021258358E+03  0.00000000000E+00 0.  1.
         -1    1    6    6    0  503  0.96167965132E+02 -0.48854436057E+02 -0.28240381083E+03  0.30230273867E+03  0.00000000000E+00 0.  1.
<mgrwt>
<rscale>  0 0.47412048E+04</rscale>
<asrwt>0</asrwt>
<pdfrwt beam="1">  1        1 0.71299036E+00 0.47412048E+04</pdfrwt>
<pdfrwt beam="2">  1       -1 0.18655508E+00 0.47412048E+04</pdfrwt>
<totfact> 0.31727964E-03</totfact>
</mgrwt>
</event>
<event>
12    1  0.4820219E-008  0.1709062E+04  0.7818608E-02  0.8756213E-01
         -2   -1    0    0    0  501 -0.00000000000E+00  0.00000000000E+00  0.37679086415E+03  0.37679086415E+03  0.00000000000E+00 0.  1.
          2   -1    0    0  501    0  0.00000000000E+00 -0.00000000000E+00 -0.19380068364E+04  0.19380068364E+04  0.00000000000E+00 0. -1.
         23    2    1    2    0    0 -0.19303733160E+03 -0.20715638666E+03  0.17081255892E+03  0.34195162977E+03  0.87044855655E+02 0.  0.
        254    2    1    2    0    0  0.19303733160E+03  0.20715638666E+03 -0.17320285312E+04  0.19728460708E+04  0.90112241473E+03 0.  0.
         23    2    4    4    0    0  0.64509175686E+02  0.10660388466E+03  0.63833707344E+02  0.16730172320E+03  0.91593135232E+02 0.  0.
         23    2    4    4    0    0  0.12852815592E+03  0.10055250200E+03 -0.17958622385E+04  0.18055443476E+04  0.90768490510E+02 0.  0.
         11    1    3    3    0    0 -0.14867356034E+03 -0.19389613473E+03  0.11682532926E+03  0.27082779799E+03  0.00000000000E+00 0. -1.
        -11    1    3    3    0    0 -0.44363771262E+02 -0.13260251931E+02  0.53987229658E+02  0.71123831787E+02  0.00000000000E+00 0.  1.
          4    1    5    5  502    0 -0.17526024079E+02  0.65401817327E+00  0.19347024244E+02  0.26113150076E+02  0.00000000000E+00 0.  1.
          3    1    6    6  503    0  0.18665352695E+02  0.75188390112E+01 -0.69719334012E+03  0.69748367855E+03  0.00000000000E+00 0. -1.
         -4    1    5    5    0  502  0.82035199765E+02  0.10594986648E+03  0.44486683100E+02  0.14118857313E+03  0.00000000000E+00 0. -1.
         -3    1    6    6    0  503  0.10986280322E+03  0.93033662989E+02 -0.10986688984E+04  0.11080606690E+04  0.00000000000E+00 0.  1.
<mgrwt>
<rscale>  0 0.17090620E+04</rscale>
<asrwt>0</asrwt>
<pdfrwt beam="1">  1        2 0.29815489E+00 0.17090620E+04</pdfrwt>
<pdfrwt beam="2">  1       -2 0.57967827E-01 0.17090620E+04</pdfrwt>
<totfact> 0.19156717E+01</totfact>
</mgrwt>
</event>
<event>
12    1  0.4820219E-008  0.1509818E+04  0.7818608E-02  0.8877950E-01
         -1   -1    0    0    0  501 -0.00000000000E+00  0.00000000000E+00  0.89603448816E+03  0.89603448816E+03  0.00000000000E+00 0.  1.
          1   -1    0    0  501    0  0.00000000000E+00 -0.00000000000E+00 -0.63601078179E+03  0.63601078179E+03  0.00000000000E+00 0. -1.
         23    2    1    2    0    0 -0.46385339970E+03  0.81289726446E+02  0.95999797988E+01  0.47968284258E+03  0.90749511335E+02 0.  0.
        254    2    1    2    0    0  0.46385339970E+03 -0.81289726446E+02  0.25042372657E+03  0.10523624274E+04  0.90718611082E+03 0.  0.
         23    2    4    4    0    0  0.27575412285E+03  0.11722389988E+03  0.55236079132E+03  0.63498933177E+03  0.91253650340E+02 0.  0.
         23    2    4    4    0    0  0.18809927685E+03 -0.19851362633E+03 -0.30193706474E+03  0.41737309560E+03  0.90803700789E+02 0.  0.
         11    1    3    3    0    0 -0.26107128114E+03  0.59027928413E+02  0.48464168474E+02  0.27201339268E+03  0.00000000000E+00 0.  1.
        -11    1    3    3    0    0 -0.20278211856E+03  0.22261798032E+02 -0.38864188675E+02  0.20766944990E+03  0.00000000000E+00 0. -1.
          2    1    5    5  502    0  0.21269613359E+03  0.63287952226E+02  0.46062404422E+03  0.51129201075E+03  0.00000000000E+00 0. -1.
          1    1    6    6  503    0  0.82283387376E+02 -0.83598335662E+02 -0.19669601426E+03  0.22901650506E+03  0.00000000000E+00 0. -1.
         -2    1    5    5    0  502  0.63057989260E+02  0.53935947656E+02  0.91736747093E+02  0.12369732101E+03  0.00000000000E+00 0.  1.
         -1    1    6    6    0  503  0.10581588947E+03 -0.11491529067E+03 -0.10524105048E+03  0.18835659054E+03  0.00000000000E+00 0.  1.
<mgrwt>
<rscale>  0 0.15098180E+04</rscale>
<asrwt>0</asrwt>
<pdfrwt beam="1">  1        1 0.97847812E-01 0.15098180E+04</pdfrwt>
<pdfrwt beam="2">  1       -1 0.13785146E+00 0.15098180E+04</pdfrwt>
<totfact> 0.13270549E+01</totfact>
</mgrwt>
</event>
<event>
12    1  0.4820219E-008  0.2515587E+04  0.7818608E-02  0.8397454E-01
          1   -1    0    0  501    0  0.00000000000E+00  0.00000000000E+00  0.11299038021E+04  0.11299038021E+04  0.00000000000E+00 0. -1.
         -1   -1    0    0    0  501 -0.00000000000E+00 -0.00000000000E+00 -0.14001585557E+04  0.14001585557E+04  0.00000000000E+00 0.  1.
         23    2    1    2    0    0  0.84386682038E+03 -0.38453415054E+03 -0.70313911088E+03  0.11683873433E+04  0.10366605660E+03 0.  0.
        254    2    1    2    0    0 -0.84386682038E+03  0.38453415054E+03  0.43288435725E+03  0.13616750145E+04  0.89821615161E+03 0.  0.
         23    2    4    4    0    0 -0.96153345326E+03  0.19222942406E+03  0.16141763063E+03  0.99775590425E+03  0.89232616097E+02 0.  0.
         23    2    4    4    0    0  0.11766663288E+03  0.19230472648E+03  0.27146672661E+03  0.36391911029E+03  0.88974102185E+02 0.  0.
         13    1    3    3    0    0  0.44220459245E+03 -0.16145705520E+03 -0.30966996894E+03  0.56347916724E+03  0.00000000000E+00 0. -1.
        -13    1    3    3    0    0  0.40166222793E+03 -0.22307709534E+03 -0.39346914194E+03  0.60490817607E+03  0.00000000000E+00 0.  1.
          4    1    5    5  502    0 -0.46355140962E+03  0.13813368929E+03  0.80979813180E+02  0.49042691160E+03  0.00000000000E+00 0. -1.
          3    1    6    6  503    0  0.43771552399E+02  0.90879382847E+01  0.54367834306E+02  0.70387504777E+02  0.00000000000E+00 0. -1.
         -4    1    5    5    0  502 -0.49798204364E+03  0.54095734764E+02  0.80437817454E+02  0.50732899265E+03  0.00000000000E+00 0.  1.
         -3    1    6    6    0  503  0.73895080477E+02  0.18321678820E+03  0.21709889231E+03  0.29353160552E+03  0.00000000000E+00 0.  1.
<mgrwt>
<rscale>  0 0.25155870E+04</rscale>
<asrwt>0</asrwt>
<pdfrwt beam="1">  1        1 0.17383135E+00 0.25155870E+04</pdfrwt>
<pdfrwt beam="2">  1       -1 0.21540901E+00 0.25155870E+04</pdfrwt>
<totfact> 0.12621882E+00</totfact>
</mgrwt>
</event>
<event>
12    1  0.4820219E-008  0.1249593E+04  0.7818608E-02  0.9070522E-01
          2   -1    0    0  501    0  0.00000000000E+00  0.00000000000E+00  0.27596565403E+04  0.27596565403E+04  0.00000000000E+00 0. -1.
         -2   -1    0    0    0  501 -0.00000000000E+00 -0.00000000000E+00 -0.14145621760E+03  0.14145621760E+03  0.00000000000E+00 0.  1.
         23    2    1    2    0    0 -0.18709052337E+03 -0.83914807388E+02  0.15886321995E+03  0.27472590710E+03  0.90511007863E+02 0.  0.
        254    2    1    2    0    0  0.18709052337E+03  0.83914807388E+02  0.24593371028E+04  0.26263868508E+04  0.89862358429E+03 0.  0.
         23    2    4    4    0    0  0.12848399209E+03  0.35669740230E+03  0.44828085750E+03  0.59404890560E+03  0.90538400728E+02 0.  0.
         23    2    4    4    0    0  0.58606531284E+02 -0.27278259492E+03  0.20110562453E+04  0.20323379452E+04  0.90582737579E+02 0.  0.
         13    1    3    3    0    0 -0.22579983827E+02 -0.24152917275E+02  0.72212735129E+02  0.79422277714E+02  0.00000000000E+00 0. -1.
        -13    1    3    3    0    0 -0.16451053955E+03 -0.59761890113E+02  0.86650484820E+02  0.19530362939E+03  0.00000000000E+00 0.  1.
          1    1    5    5  502    0  0.94417692201E+02  0.19225748337E+03  0.30843762871E+03  0.37551486165E+03  0.00000000000E+00 0. -1.
          3    1    6    6  503    0 -0.13554600292E+02 -0.18929473078E+02  0.79599767774E+02  0.82934764543E+02  0.00000000000E+00 0. -1.
         -1    1    5    5    0  502  0.34066299889E+02  0.16443991894E+03  0.13984322879E+03  0.21853404395E+03  0.00000000000E+00 0.  1.
         -3    1    6    6    0  503  0.72161131576E+02 -0.25385312184E+03  0.19314564775E+04  0.19494031807E+04  0.00000000000E+00 0.  1.
<mgrwt>
<rscale>  0 0.12495929E+04</rscale>
<asrwt>0</asrwt>
<pdfrwt beam="1">  1        2 0.42456250E+00 0.12495929E+04</pdfrwt>
<pdfrwt beam="2">  1       -2 0.21762497E-01 0.12495929E+04</pdfrwt>
<totfact> 0.44678804E+01</totfact>
</mgrwt>
</event>
<event>
12    1  0.4820219E-008  0.2868115E+04  0.7818608E-02  0.8282428E-01
         -1   -1    0    0    0  501 -0.00000000000E+00  0.00000000000E+00  0.97056480162E+03  0.97056480162E+03  0.00000000000E+00 0.  1.
          1   -1    0    0  501    0  0.00000000000E+00 -0.00000000000E+00 -0.21188902105E+04  0.21188902105E+04  0.00000000000E+00 0. -1.
         23    2    1    2    0    0  0.49346208041E+03  0.67066110260E+03 -0.15796936960E+04  0.17879927779E+04  0.90525474698E+02 0.  0.
        254    2    1    2    0    0 -0.49346208041E+03 -0.67066110260E+03  0.43136828709E+03  0.13014622342E+04  0.90246008695E+03 0.  0.
         23    2    4    4    0    0  0.19809225723E+03 -0.31942849175E+03 -0.40699231116E+02  0.38896665007E+03  0.91452303064E+02 0.  0.
         23    2    4    4    0    0 -0.69155433763E+03 -0.35123261084E+03  0.47206751821E+03  0.91249558410E+03  0.90491438531E+02 0.  0.
         13    1    3    3    0    0  0.83931490828E+02  0.16863926337E+03 -0.31552615037E+03  0.36747849988E+03  0.00000000000E+00 0.  1.
        -13    1    3    3    0    0  0.40953058958E+03  0.50202183922E+03 -0.12641675456E+04  0.14205142781E+04  0.00000000000E+00 0. -1.
          3    1    6    6  502    0 -0.25358287906E+03 -0.11673211972E+03  0.21986111775E+03  0.35534430547E+03  0.00000000000E+00 0. -1.
          3    1    5    5  503    0  0.98111773646E+01 -0.83934957518E+01  0.16458139924E+02  0.20918421116E+02  0.00000000000E+00 0. -1.
         -3    1    5    5    0  503  0.18828107986E+03 -0.31103499600E+03 -0.57157371040E+02  0.36804822895E+03  0.00000000000E+00 0.  1.
         -3    1    6    6    0  502 -0.43797145857E+03 -0.23450049112E+03  0.25220640045E+03  0.55715127864E+03  0.00000000000E+00 0.  1.
<mgrwt>
<rscale>  0 0.28681145E+04</rscale>
<asrwt>0</asrwt>
<pdfrwt beam="1">  1        1 0.32598311E+00 0.28681145E+04</pdfrwt>
<pdfrwt beam="2">  1       -1 0.14931766E+00 0.28681145E+04</pdfrwt>
<totfact> 0.75206901E-01</totfact>
</mgrwt>
</event>
<event>
12    1  0.4820219E-008  0.1169379E+04  0.7818608E-02  0.9140089E-01
         -2   -1    0    0    0  501 -0.00000000000E+00  0.00000000000E+00  0.86417018206E+02  0.86417018206E+02  0.00000000000E+00 0.  1.
          2   -1    0    0  501    0  0.00000000000E+00 -0.00000000000E+00 -0.39559573144E+04  0.39559573144E+04  0.00000000000E+00 0. -1.
         23    2    1    2    0    0  0.11489657496E+03 -0.15663753548E+03 -0.47762373168E+03  0.52186544296E+03  0.80514415058E+02 0.  0.
        254    2    1    2    0    0 -0.11489657496E+03  0.15663753548E+03 -0.33919165645E+04  0.35205088896E+04  0.92257700004E+03 0.  0.
         23    2    4    4    0    0 -0.27451173028E+03 -0.46786130538E+01 -0.29424972691E+03  0.41332320873E+03  0.94205061478E+02 0.  0.
         23    2    4    4    0    0  0.15961515532E+03  0.16131614853E+03 -0.30976668376E+04  0.31071856809E+04  0.86966207745E+02 0.  0.
         11    1    3    3    0    0  0.67537504043E+02 -0.11603924365E+03 -0.40203545377E+03  0.42386191927E+03  0.00000000000E+00 0. -1.
        -11    1    3    3    0    0  0.47359070921E+02 -0.40598291830E+02 -0.75588277904E+02  0.98003523684E+02  0.00000000000E+00 0.  1.
          2    1    5    5  502    0 -0.25795663163E+03  0.21933803302E+02 -0.26443797189E+03  0.37006777285E+03  0.00000000000E+00 0.  1.
          3    1    6    6  503    0 -0.74594160321E+01  0.24036400851E+02 -0.44997290951E+03  0.45067617060E+03  0.00000000000E+00 0. -1.
         -2    1    5    5    0  502 -0.16555098658E+02 -0.26612416356E+02 -0.29811755019E+02  0.43255435881E+02  0.00000000000E+00 0. -1.
         -3    1    6    6    0  503  0.16707457135E+03  0.13727974768E+03 -0.26476939281E+04  0.26565095103E+04  0.00000000000E+00 0.  1.
<mgrwt>
<rscale>  0 0.11693794E+04</rscale>
<asrwt>0</asrwt>
<pdfrwt beam="1">  1        2 0.60860881E+00 0.11693794E+04</pdfrwt>
<pdfrwt beam="2">  1       -2 0.13294926E-01 0.11693794E+04</pdfrwt>
<totfact> 0.16451258E+01</totfact>
</mgrwt>
</event>
<event>
12    1  0.4820219E-008  0.1325118E+04  0.7818608E-02  0.9009880E-01
          1   -1    0    0  501    0  0.00000000000E+00  0.00000000000E+00  0.20594369218E+04  0.20594369218E+04  0.00000000000E+00 0. -1.
         -1   -1    0    0    0  501 -0.00000000000E+00 -0.00000000000E+00 -0.21315744631E+03  0.21315744631E+03  0.00000000000E+00 0.  1.
         23    2    1    2    0    0 -0.12231182379E+03  0.32378105046E+03  0.41321393460E+03  0.54726991687E+03  0.94679751234E+02 0.  0.
        254    2    1    2    0    0  0.12231182379E+03 -0.32378105046E+03  0.14330655409E+04  0.17253244512E+04  0.89625513480E+03 0.  0.
         23    2    4    4    0    0 -0.23030770120E+03  0.18747162387E+03  0.65679497722E+03  0.72684907102E+03  0.93502315245E+02 0.  0.
         23    2    4    4    0    0  0.35261952498E+03 -0.51125267433E+03  0.77627056366E+03  0.99847538020E+03  0.92936916520E+02 0.  0.
         13    1    3    3    0    0  0.15554625125E+02  0.22572443792E+02  0.27444266766E+02  0.38789810000E+02  0.00000000000E+00 0.  1.
        -13    1    3    3    0    0 -0.13786644891E+03  0.30120860667E+03  0.38576966783E+03  0.50848010687E+03  0.00000000000E+00 0. -1.
          1    1    5    5  502    0 -0.19505977712E+03  0.17280723164E+03  0.62504820363E+03  0.67719710043E+03  0.00000000000E+00 0. -1.
          3    1    6    6  503    0  0.18246983590E+03 -0.28625559806E+03  0.35231629847E+03  0.48924869198E+03  0.00000000000E+00 0. -1.
         -1    1    5    5    0  502 -0.35247924074E+02  0.14664392227E+02  0.31746773587E+02  0.49651970596E+02  0.00000000000E+00 0.  1.
         -3    1    6    6    0  503  0.17014968908E+03 -0.22499707626E+03  0.42395426519E+03  0.50922668822E+03  0.00000000000E+00 0.  1.
<mgrwt>
<rscale>  0 0.13251178E+04</rscale>
<asrwt>0</asrwt>
<pdfrwt beam="1">  1        1 0.31683644E+00 0.13251178E+04</pdfrwt>
<pdfrwt beam="2">  1       -1 0.32793455E-01 0.13251178E+04</pdfrwt>
<totfact> 0.23248864E+01</totfact>
</mgrwt>
</event>
<event>
12    1  0.4820219E-008  0.1818568E+04  0.7818608E-02  0.8696487E-01
          1   -1    0    0  501    0  0.00000000000E+00  0.00000000000E+00  0.46590061913E+03  0.46590061913E+03  0.00000000000E+00 0. -1.
         -1   -1    0    0    0  501 -0.00000000000E+00 -0.00000000000E+00 -0.17746216456E+04  0.17746216456E+04  0.00000000000E+00 0.  1.
         23    2    1    2    0    0 -0.12358534900E+03  0.56048197092E+03 -0.95397038451E+03  0.11181155599E+04  0.10348687157E+03 0.  0.
        254    2    1    2    0    0  0.12358534900E+03 -0.56048197092E+03 -0.35475064191E+03  0.11224067048E+04  0.89695898164E+03 0.  0.
         23    2    4    4    0    0 -0.24378017158E+03 -0.13301283472E+03 -0.45556507055E+03  0.54249020647E+03  0.98157548622E+02 0.  0.
         23    2    4    4    0    0  0.36736552058E+03 -0.42746913620E+03  0.10081442864E+03  0.57991649830E+03  0.91936433810E+02 0.  0.
         13    1    3    3    0    0 -0.64140754341E+01  0.15758169485E+01 -0.39054503657E+02  0.39609062330E+02  0.00000000000E+00 0. -1.
        -13    1    3    3    0    0 -0.11717127356E+03  0.55890615397E+03 -0.91491588086E+03  0.10785064976E+04  0.00000000000E+00 0.  1.
          4    1    6    6  502    0  0.24206375512E+03 -0.29574085268E+03  0.25169166370E+02  0.38300261151E+03  0.00000000000E+00 0.  1.
          4    1    5    5  503    0 -0.22474227837E+03 -0.98344177313E+02 -0.43101611452E+03  0.49593906871E+03  0.00000000000E+00 0. -1.
         -4    1    5    5    0  503 -0.19037893205E+02 -0.34668657406E+02 -0.24548956032E+02  0.46551137755E+02  0.00000000000E+00 0.  1.
         -4    1    6    6    0  502  0.12530176545E+03 -0.13172828352E+03  0.75645262272E+02  0.19691388679E+03  0.00000000000E+00 0. -1.
<mgrwt>
<rscale>  0 0.18185679E+04</rscale>
<asrwt>0</asrwt>
<pdfrwt beam="1">  1        1 0.71677017E-01 0.18185679E+04</pdfrwt>
<pdfrwt beam="2">  1       -1 0.27301872E+00 0.18185679E+04</pdfrwt>
<totfact> 0.22737416E+00</totfact>
</mgrwt>
</event>
<event>
12    1  0.4820219E-008  0.1945635E+04  0.7818608E-02  0.8632469E-01
         -2   -1    0    0    0  501 -0.00000000000E+00  0.00000000000E+00  0.25796953592E+03  0.25796953592E+03  0.00000000000E+00 0. -1.
          2   -1    0    0  501    0  0.00000000000E+00 -0.00000000000E+00 -0.36685478437E+04  0.36685478437E+04  0.00000000000E+00 0.  1.
         23    2    1    2    0    0  0.12481054137E+03  0.28140835420E+03  0.60747331205E+02  0.32683335170E+03  0.91441065643E+02 0.  0.
        254    2    1    2    0    0 -0.12481054137E+03 -0.28140835420E+03 -0.34713256390E+04  0.35996840279E+04  0.90158475805E+03 0.  0.
         23    2    4    4    0    0 -0.27690230116E+03  0.20548398445E+03 -0.76249122894E+03  0.84171070537E+03  0.90473670640E+02 0.  0.
         23    2    4    4    0    0  0.15209175979E+03 -0.48689233865E+03 -0.27088344101E+04  0.27579733226E+04  0.91852784367E+02 0.  0.
         13    1    3    3    0    0  0.99623158130E+02  0.16636500373E+03 -0.88077465202E+00  0.19391457878E+03  0.00000000000E+00 0. -1.
        -13    1    3    3    0    0  0.25187383236E+02  0.11504335048E+03  0.61628105857E+02  0.13291877292E+03  0.00000000000E+00 0.  1.
          2    1    5    5  502    0 -0.11905246635E+03  0.58279199546E+02 -0.38093156474E+03  0.40333461525E+03  0.00000000000E+00 0. -1.
          3    1    6    6  503    0  0.13142297042E+03 -0.43311230843E+03 -0.22136089546E+04  0.22594076376E+04  0.00000000000E+00 0. -1.
         -2    1    5    5    0  502 -0.15784983481E+03  0.14720478490E+03 -0.38155966420E+03  0.43837609012E+03  0.00000000000E+00 0.  1.
         -3    1    6    6    0  503  0.20668789371E+02 -0.53780030221E+02 -0.49522545547E+03  0.49856568499E+03  0.00000000000E+00 0.  1.
<mgrwt>
<rscale>  0 0.19456347E+04</rscale>
<asrwt>0</asrwt>
<pdfrwt beam="1">  1        2 0.56439192E+00 0.19456347E+04</pdfrwt>
<pdfrwt beam="2">  1       -2 0.39687625E-01 0.19456347E+04</pdfrwt>
<totfact> 0.34775254E+00</totfact>
</mgrwt>
</event>
<event>
12    1  0.4820219E-008  0.1981248E+04  0.7818608E-02  0.8615438E-01
          2   -1    0    0  501    0  0.00000000000E+00  0.00000000000E+00  0.17049181541E+04  0.17049181541E+04  0.00000000000E+00 0.  1.
         -2   -1    0    0    0  501 -0.00000000000E+00 -0.00000000000E+00 -0.57559145917E+03  0.57559145917E+03  0.00000000000E+00 0. -1.
         23    2    1    2    0    0 -0.44915729260E+03  0.63147516266E+03  0.32420300695E+03  0.84708999905E+03  0.10931935883E+03 0.  0.
        254    2    1    2    0    0  0.44915729260E+03 -0.63147516266E+03  0.80512368801E+03  0.14334196143E+04  0.89775524671E+03 0.  0.
         23    2    4    4    0    0  0.11459401119E+03 -0.51667295076E+03  0.90638758214E+03  0.10538722578E+04  0.95002954443E+02 0.  0.
         23    2    4    4    0    0  0.33456328141E+03 -0.11480221191E+03 -0.10126389412E+03  0.37954735642E+03  0.93218465904E+02 0.  0.
         13    1    3    3    0    0 -0.27456675256E+02  0.82521316048E+02  0.12291597736E+02  0.87833478773E+02  0.00000000000E+00 0. -1.
        -13    1    3    3    0    0 -0.42170061734E+03  0.54895384662E+03  0.31191140921E+03  0.75925652027E+03  0.00000000000E+00 0.  1.
          1    1    5    5  502    0  0.15146061496E+02 -0.12588417006E+02  0.14078808751E+02  0.24209177545E+02  0.00000000000E+00 0. -1.
          3    1    6    6  503    0  0.22995931597E+03 -0.39948546374E+02 -0.38989021761E+02  0.23663752276E+03  0.00000000000E+00 0. -1.
         -1    1    5    5    0  502  0.99447949694E+02 -0.50408453375E+03  0.89230877339E+03  0.10296630803E+04  0.00000000000E+00 0.  1.
         -3    1    6    6    0  503  0.10460396544E+03 -0.74853665536E+02 -0.62274872362E+02  0.14290983366E+03  0.00000000000E+00 0.  1.
<mgrwt>
<rscale>  0 0.19812484E+04</rscale>
<asrwt>0</asrwt>
<pdfrwt beam="1">  1        2 0.26229510E+00 0.19812484E+04</pdfrwt>
<pdfrwt beam="2">  1       -2 0.88552533E-01 0.19812484E+04</pdfrwt>
<totfact> 0.99476035E+00</totfact>
</mgrwt>
</event>
<event>
12    1  0.4820219E-008  0.1474522E+04  0.7818608E-02  0.8901574E-01
          2   -1    0    0  501    0  0.00000000000E+00  0.00000000000E+00  0.98781180305E+03  0.98781180305E+03  0.00000000000E+00 0. -1.
         -2   -1    0    0    0  501 -0.00000000000E+00 -0.00000000000E+00 -0.55026065120E+03  0.55026065120E+03  0.00000000000E+00 0.  1.
         23    2    1    2    0    0  0.23219100872E+03 -0.46915528144E+01  0.59083712840E+03  0.64122222958E+03  0.90237244063E+02 0.  0.
        254    2    1    2    0    0 -0.23219100872E+03  0.46915528144E+01 -0.15328597655E+03  0.89685022466E+03  0.85258961973E+03 0.  0.
         23    2    4    4    0    0  0.16926239845E+03  0.18527954060E+03 -0.31979148947E+03  0.41684390451E+03  0.92271210519E+02 0.  0.
         23    2    4    4    0    0 -0.40145340717E+03 -0.18058798778E+03  0.16650551292E+03  0.48000632015E+03  0.94366954468E+02 0.  0.
         11    1    3    3    0    0 -0.51414366311E+01  0.23927629451E+01  0.53041921480E+02  0.53344213552E+02  0.00000000000E+00 0.  1.
        -11    1    3    3    0    0  0.23733244535E+03 -0.70843157595E+01  0.53779520692E+03  0.58787801603E+03  0.00000000000E+00 0. -1.
          1    1    6    6  502    0 -0.23013539733E+03 -0.84630171253E+02  0.45599551128E+02  0.24940706897E+03  0.00000000000E+00 0. -1.
          1    1    5    5  503    0  0.19097338562E+02 -0.92094730766E+01 -0.32534547177E+02  0.38833226682E+02  0.00000000000E+00 0. -1.
         -1    1    5    5    0  503  0.15016505989E+03  0.19448901368E+03 -0.28725694229E+03  0.37801067782E+03  0.00000000000E+00 0.  1.
         -1    1    6    6    0  502 -0.17131800984E+03 -0.95957816531E+02  0.12090596179E+03  0.23059925118E+03  0.00000000000E+00 0.  1.
<mgrwt>
<rscale>  0 0.14745222E+04</rscale>
<asrwt>0</asrwt>
<pdfrwt beam="1">  1        2 0.15197105E+00 0.14745222E+04</pdfrwt>
<pdfrwt beam="2">  1       -2 0.84655485E-01 0.14745222E+04</pdfrwt>
<totfact> 0.30202283E+01</totfact>
</mgrwt>
</event>
<event>
12    1  0.4820219E-008  0.2916755E+04  0.7818608E-02  0.8267910E-01
          2   -1    0    0  501    0  0.00000000000E+00  0.00000000000E+00  0.67642893125E+03  0.67642893125E+03  0.00000000000E+00 0.  1.
         -2   -1    0    0    0  501 -0.00000000000E+00 -0.00000000000E+00 -0.31442541076E+04  0.31442541076E+04  0.00000000000E+00 0. -1.
         23    2    1    2    0    0 -0.80222415181E+02  0.53899627383E+03 -0.26805103916E+04  0.27368696357E+04  0.91470346851E+02 0.  0.
        254    2    1    2    0    0  0.80222415181E+02 -0.53899627383E+03  0.21268521519E+03  0.10838134032E+04  0.91239458191E+03 0.  0.
         23    2    4    4    0    0 -0.10882985533E+03 -0.75021389661E+03  0.17101223913E+03  0.78243157315E+03  0.91044783739E+02 0.  0.
         23    2    4    4    0    0  0.18905227051E+03  0.21121762278E+03  0.41672976054E+02  0.30138183005E+03  0.93491846691E+02 0.  0.
         13    1    3    3    0    0  0.64461968147E+01  0.23934225992E+03 -0.10756953053E+04  0.11020193559E+04  0.00000000000E+00 0. -1.
        -13    1    3    3    0    0 -0.86668611996E+02  0.29965401391E+03 -0.16048150862E+04  0.16348502798E+04  0.00000000000E+00 0.  1.
          2    1    5    5  502    0 -0.37610673105E+02 -0.10080878032E+03  0.19578946772E+01  0.10761415461E+03  0.00000000000E+00 0. -1.
          3    1    6    6  503    0  0.28705918588E+02  0.12680049006E+01  0.22526408663E+02  0.36511322705E+02  0.00000000000E+00 0. -1.
         -2    1    5    5    0  502 -0.71219182221E+02 -0.64940511629E+03  0.16905434445E+03  0.67481741853E+03  0.00000000000E+00 0.  1.
         -3    1    6    6    0  503  0.16034635192E+03  0.20994961788E+03  0.19146567392E+02  0.26487050735E+03  0.00000000000E+00 0.  1.
<mgrwt>
<rscale>  0 0.29167547E+04</rscale>
<asrwt>0</asrwt>
<pdfrwt beam="1">  1        2 0.10406599E+00 0.29167547E+04</pdfrwt>
<pdfrwt beam="2">  1       -2 0.48373140E+00 0.29167547E+04</pdfrwt>
<totfact> 0.76852288E-02</totfact>
</mgrwt>
</event>
<event>
12    1  0.4820219E-008  0.1745744E+04  0.7818608E-02  0.8735697E-01
          2   -1    0    0  501    0  0.00000000000E+00  0.00000000000E+00  0.42503544517E+03  0.42503544517E+03  0.00000000000E+00 0.  1.
         -2   -1    0    0    0  501 -0.00000000000E+00 -0.00000000000E+00 -0.17925689709E+04  0.17925689709E+04  0.00000000000E+00 0. -1.
         23    2    1    2    0    0 -0.63852191807E+03  0.35472065055E+02 -0.42356524017E+03  0.77256924737E+03  0.92126120358E+02 0.  0.
        254    2    1    2    0    0  0.63852191807E+03 -0.35472065055E+02 -0.94396828558E+03  0.14450351687E+04  0.88773983094E+03 0.  0.
         23    2    4    4    0    0 -0.10698423010E+03  0.24824858467E+03 -0.20646675449E+03  0.35475990053E+03  0.10076249817E+03 0.  0.
         23    2    4    4    0    0  0.74550614816E+03 -0.28372064972E+03 -0.73750153109E+03  0.10902752682E+04  0.92275825903E+02 0.  0.
         13    1    3    3    0    0 -0.32167945646E+03  0.27005451921E+02 -0.26766908384E+03  0.41934914520E+03  0.00000000000E+00 0. -1.
        -13    1    3    3    0    0 -0.31684246161E+03  0.84666131343E+01 -0.15589615633E+03  0.35322010217E+03  0.00000000000E+00 0.  1.
          4    1    5    5  502    0 -0.11921514500E+03  0.23040440150E+03 -0.20878715062E+03  0.33300227220E+03  0.00000000000E+00 0. -1.
          4    1    6    6  503    0  0.13943940688E+03 -0.30558001428E+02 -0.95053532498E+02  0.17150018567E+03  0.00000000000E+00 0.  1.
         -4    1    5    5    0  502  0.12230914907E+02  0.17844183168E+02  0.23203961290E+01  0.21757628331E+02  0.00000000000E+00 0.  1.
         -4    1    6    6    0  503  0.60606674128E+03 -0.25316264830E+03 -0.64244799860E+03  0.91877508253E+03  0.00000000000E+00 0. -1.
<mgrwt>
<rscale>  0 0.17457438E+04</rscale>
<asrwt>0</asrwt>
<pdfrwt beam="1">  1        2 0.65390069E-01 0.17457438E+04</pdfrwt>
<pdfrwt beam="2">  1       -2 0.27577984E+00 0.17457438E+04</pdfrwt>
<totfact> 0.31478572E+00</totfact>
</mgrwt>
</event>
<event>
12    1  0.4820219E-008  0.2034985E+04  0.7818608E-02  0.8590437E-01
          1   -1    0    0  501    0  0.00000000000E+00  0.00000000000E+00  0.76663639222E+03  0.76663639222E+03  0.00000000000E+00 0. -1.
         -1   -1    0    0    0  501 -0.00000000000E+00 -0.00000000000E+00 -0.13504326224E+04  0.13504326224E+04  0.00000000000E+00 0.  1.
         23    2    1    2    0    0 -0.57742869429E+03 -0.11164973138E+03  0.35091399050E+03  0.69077245808E+03  0.90201998901E+02 0.  0.
        254    2    1    2    0    0  0.57742869429E+03  0.11164973138E+03 -0.93471022070E+03  0.14262965566E+04  0.90263453904E+03 0.  0.
         23    2    4    4    0    0  0.23758242948E+03 -0.38739454244E+03 -0.46044158112E+03  0.65322518610E+03  0.90425393674E+02 0.  0.
         23    2    4    4    0    0  0.33984626480E+03  0.49904427383E+03 -0.47426863959E+03  0.77307137046E+03  0.90376603104E+02 0.  0.
         11    1    3    3    0    0 -0.31239141099E+03 -0.53878486461E+02  0.13712021901E+03  0.34538853401E+03  0.00000000000E+00 0. -1.
        -11    1    3    3    0    0 -0.26503728330E+03 -0.57771244922E+02  0.21379377149E+03  0.34538392407E+03  0.00000000000E+00 0.  1.
          1    1    5    5  502    0  0.12273871458E+03 -0.28053064834E+03 -0.29372205749E+03  0.42430517764E+03  0.00000000000E+00 0. -1.
          3    1    6    6  503    0  0.20634391908E+03  0.24779591489E+03 -0.29317803177E+03  0.43581416531E+03  0.00000000000E+00 0. -1.
         -1    1    5    5    0  502  0.11484371491E+03 -0.10686389411E+03 -0.16671952363E+03  0.22892000847E+03  0.00000000000E+00 0.  1.
         -3    1    6    6    0  503  0.13350234573E+03  0.25124835894E+03 -0.18109060782E+03  0.33725720514E+03  0.00000000000E+00 0.  1.
<mgrwt>
<rscale>  0 0.20349848E+04</rscale>
<asrwt>0</asrwt>
<pdfrwt beam="1">  1        1 0.11794406E+00 0.20349848E+04</pdfrwt>
<pdfrwt beam="2">  1       -1 0.20775886E+00 0.20349848E+04</pdfrwt>
<totfact> 0.29136293E+00</totfact>
</mgrwt>
</event>
<event>
12    1  0.4820219E-008  0.1679027E+04  0.7818608E-02  0.8773417E-01
         -2   -1    0    0    0  501 -0.00000000000E+00  0.00000000000E+00  0.64732599936E+03  0.64732599936E+03  0.00000000000E+00 0. -1.
          2   -1    0    0  501    0  0.00000000000E+00 -0.00000000000E+00 -0.10887607284E+04  0.10887607284E+04  0.00000000000E+00 0.  1.
         23    2    1    2    0    0 -0.53884439121E+03  0.23555822423E+03 -0.89508729142E+02  0.60228302018E+03  0.94297767004E+02 0.  0.
        254    2    1    2    0    0  0.53884439121E+03 -0.23555822423E+03 -0.35192599991E+03  0.11338037076E+04  0.90322642954E+03 0.  0.
         23    2    4    4    0    0  0.30826873034E+03 -0.55201607113E+03 -0.69486740325E+02  0.64233288907E+03  0.89508549378E+02 0.  0.
         23    2    4    4    0    0  0.23057566087E+03  0.31645784690E+03 -0.28243925958E+03  0.49147081852E+03  0.91983291188E+02 0.  0.
         13    1    3    3    0    0 -0.58501101052E+02  0.42010731730E+02 -0.39133534282E+02  0.81967761408E+02  0.00000000000E+00 0. -1.
        -13    1    3    3    0    0 -0.48034329015E+03  0.19354749250E+03 -0.50375194860E+02  0.52031525877E+03  0.00000000000E+00 0.  1.
          4    1    5    5  502    0  0.41855830632E+02 -0.29116459786E+02  0.26741505362E+01  0.51057123592E+02  0.00000000000E+00 0. -1.
          3    1    6    6  503    0  0.79234871230E+02  0.11775869853E+03 -0.15809551497E+03  0.21246050869E+03  0.00000000000E+00 0. -1.
         -4    1    5    5    0  502  0.26641289971E+03 -0.52289961135E+03 -0.72160890861E+02  0.59127576548E+03  0.00000000000E+00 0.  1.
         -3    1    6    6    0  503  0.15134078964E+03  0.19869914837E+03 -0.12434374461E+03  0.27901030984E+03  0.00000000000E+00 0.  1.
<mgrwt>
<rscale>  0 0.16790273E+04</rscale>
<asrwt>0</asrwt>
<pdfrwt beam="1">  1        2 0.16750165E+00 0.16790273E+04</pdfrwt>
<pdfrwt beam="2">  1       -2 0.99588615E-01 0.16790273E+04</pdfrwt>
<totfact> 0.17603132E+01</totfact>
</mgrwt>
</event>
<event>
12    1  0.5519031E-008  0.1930116E+04  0.7818608E-02  0.8640009E-01
          2   -1    0    0  501    0  0.00000000000E+00  0.00000000000E+00  0.20844544069E+04  0.20844544069E+04  0.00000000000E+00 0. -1.
         -2   -1    0    0    0  501 -0.00000000000E+00 -0.00000000000E+00 -0.44680131920E+03  0.44680131920E+03  0.00000000000E+00 0.  1.
         23    2    1    2    0    0 -0.42928019788E+03 -0.83995154953E+02 -0.15993204214E+03  0.47415345227E+03  0.88918861049E+02 0.  0.
        254    2    1    2    0    0  0.42928019788E+03  0.83995154953E+02  0.17975851298E+04  0.20571022738E+04  0.89945583081E+03 0.  0.
         23    2    4    4    0    0  0.24218663106E+02 -0.37146081697E+03  0.65665740724E+03  0.76024529397E+03  0.90577449348E+02 0.  0.
         23    2    4    4    0    0  0.40506153477E+03  0.45545597192E+03  0.11409277226E+04  0.12968569799E+04  0.92773749979E+02 0.  0.
         13    1    3    3    0    0 -0.80419717130E+01  0.10215363268E+02  0.19595144596E+01  0.13147876355E+02  0.00000000000E+00 0. -1.
        -13    1    3    3    0    0 -0.42123822617E+03 -0.94210518220E+02 -0.16189155660E+03  0.46100557592E+03  0.00000000000E+00 0.  1.
          2    1    5    5  502    0  0.66707870545E+01 -0.17375543392E+02  0.65037057026E+01  0.19715656113E+02  0.00000000000E+00 0. -1.
          3    1    6    6  503    0  0.53191153131E+02  0.72394622515E+02  0.24412647401E+03  0.26013076606E+03  0.00000000000E+00 0. -1.
         -2    1    5    5    0  502  0.17547876052E+02 -0.35408527358E+03  0.65015370154E+03  0.74052963785E+03  0.00000000000E+00 0.  1.
         -3    1    6    6    0  503  0.35187038164E+03  0.38306134941E+03  0.89680124860E+03  0.10367262138E+04  0.00000000000E+00 0.  1.
<mgrwt>
<rscale>  0 0.19301160E+04</rscale>
<asrwt>0</asrwt>
<pdfrwt beam="1">  1        2 0.32068529E+00 0.19301160E+04</pdfrwt>
<pdfrwt beam="2">  1       -2 0.68738666E-01 0.19301160E+04</pdfrwt>
<totfact> 0.10832695E+01</totfact>
</mgrwt>
</event>
<event>
12    1  0.4820219E-008  0.1419412E+04  0.7818608E-02  0.8939886E-01
          2   -1    0    0  501    0  0.00000000000E+00  0.00000000000E+00  0.33786471823E+04  0.33786471823E+04  0.00000000000E+00 0.  1.
         -2   -1    0    0    0  501 -0.00000000000E+00 -0.00000000000E+00 -0.14907817970E+03  0.14907817970E+03  0.00000000000E+00 0. -1.
         23    2    1    2    0    0  0.18133512457E+02 -0.24109586128E+03  0.18264295931E+04  0.18445770409E+04  0.90351329435E+02 0.  0.
        254    2    1    2    0    0 -0.18133512457E+02  0.24109586128E+03  0.14031394096E+04  0.16831483211E+04  0.89762577376E+03 0.  0.
         23    2    4    4    0    0 -0.61575504153E+02  0.55190577120E+03  0.11095757368E+04  0.12440043178E+04  0.89425410020E+02 0.  0.
         23    2    4    4    0    0  0.43441991696E+02 -0.31080990993E+03  0.29356367273E+03  0.43914400335E+03  0.90431294216E+02 0.  0.
         13    1    3    3    0    0  0.69513140902E+01 -0.22437858525E+03  0.17783142341E+04  0.17924272888E+04  0.00000000000E+00 0.  1.
        -13    1    3    3    0    0  0.11182198367E+02 -0.16717276023E+02  0.48115358932E+02  0.52149752091E+02  0.00000000000E+00 0. -1.
          4    1    5    5  502    0 -0.13976762665E+02  0.40265456585E+03  0.85339559408E+03  0.94372140449E+03  0.00000000000E+00 0. -1.
          3    1    6    6  503    0  0.67907801819E+00 -0.19920045927E+03  0.13524275223E+03  0.24077351630E+03  0.00000000000E+00 0. -1.
         -4    1    5    5    0  502 -0.47598741488E+02  0.14925120535E+03  0.25618014275E+03  0.30028291331E+03  0.00000000000E+00 0.  1.
         -3    1    6    6    0  503  0.42762913678E+02 -0.11160945066E+03  0.15832092050E+03  0.19837048705E+03  0.00000000000E+00 0.  1.
<mgrwt>
<rscale>  0 0.14194120E+04</rscale>
<asrwt>0</asrwt>
<pdfrwt beam="1">  1        2 0.51979182E+00 0.14194120E+04</pdfrwt>
<pdfrwt beam="2">  1       -2 0.22935107E-01 0.14194120E+04</pdfrwt>
<totfact> 0.16294464E+01</totfact>
</mgrwt>
</event>
<event>
12    1  0.4820219E-008  0.2716032E+04  0.7818608E-02  0.8329822E-01
         -2   -1    0    0    0  501 -0.00000000000E+00  0.00000000000E+00  0.26538212260E+04  0.26538212260E+04  0.00000000000E+00 0.  1.
          2   -1    0    0  501    0  0.00000000000E+00 -0.00000000000E+00 -0.69492542746E+03  0.69492542746E+03  0.00000000000E+00 0. -1.
         23    2    1    2    0    0 -0.60661679876E+03  0.53181528206E+03 -0.24506199441E+03  0.84780511682E+03  0.88919627954E+02 0.  0.
        254    2    1    2    0    0  0.60661679876E+03 -0.53181528206E+03  0.22039577929E+04  0.25009415366E+04  0.86398332266E+03 0.  0.
         23    2    4    4    0    0  0.67124089551E+01 -0.49928950082E+03  0.60753383435E+03  0.79278489327E+03  0.10037661607E+03 0.  0.
         23    2    4    4    0    0  0.59990438980E+03 -0.32525781241E+02  0.15964239586E+04  0.17081566434E+04  0.91029991500E+02 0.  0.
         11    1    3    3    0    0 -0.45135505092E+02  0.38039661542E+02 -0.43726878428E+02  0.73459305518E+02  0.00000000000E+00 0.  1.
        -11    1    3    3    0    0 -0.56148129367E+03  0.49377562052E+03 -0.20133511598E+03  0.77434581131E+03  0.00000000000E+00 0. -1.
          2    1    5    5  502    0 -0.34319500916E+02 -0.37389995997E+03  0.41827290386E+03  0.56207760168E+03  0.00000000000E+00 0. -1.
          1    1    6    6  503    0  0.55242749111E+03 -0.42130638928E+02  0.15183975256E+04  0.16163174718E+04  0.00000000000E+00 0. -1.
         -2    1    5    5    0  502  0.41031909871E+02 -0.12538954086E+03  0.18926093049E+03  0.23070729159E+03  0.00000000000E+00 0.  1.
         -1    1    6    6    0  503  0.47476898690E+02  0.96048576869E+01  0.78026432963E+02  0.91839171606E+02  0.00000000000E+00 0.  1.
<mgrwt>
<rscale>  0 0.27160323E+04</rscale>
<asrwt>0</asrwt>
<pdfrwt beam="1">  1        2 0.10691161E+00 0.27160323E+04</pdfrwt>
<pdfrwt beam="2">  1       -2 0.40828018E+00 0.27160323E+04</pdfrwt>
<totfact> 0.23722241E-01</totfact>
</mgrwt>
</event>
<event>
12    1  0.4820219E-008  0.1214404E+04  0.7818608E-02  0.9100341E-01
         -1   -1    0    0    0  501 -0.00000000000E+00  0.00000000000E+00  0.17805375452E+03  0.17805375452E+03  0.00000000000E+00 0.  1.
          1   -1    0    0  501    0  0.00000000000E+00 -0.00000000000E+00 -0.20706913366E+04  0.20706913366E+04  0.00000000000E+00 0. -1.
         23    2    1    2    0    0  0.17160217789E+03  0.18432104558E+03 -0.30862857663E+03  0.40900519047E+03  0.92801358933E+02 0.  0.
        254    2    1    2    0    0 -0.17160217789E+03 -0.18432104558E+03 -0.15840090055E+04  0.18397399007E+04  0.90118633888E+03 0.  0.
         23    2    4    4    0    0 -0.43965176643E+03 -0.24102325000E+02 -0.13888396638E+04  0.14598282155E+04  0.91368534783E+02 0.  0.
         23    2    4    4    0    0  0.26804958854E+03 -0.16021872058E+03 -0.19516934163E+03  0.37991168516E+03  0.93387345308E+02 0.  0.
         13    1    3    3    0    0  0.14962945600E+03  0.18292031908E+03 -0.30629261386E+03  0.38686429474E+03  0.00000000000E+00 0.  1.
        -13    1    3    3    0    0  0.21972721888E+02  0.14007265004E+01 -0.23359627680E+01  0.22140895735E+02  0.00000000000E+00 0. -1.
          2    1    5    5  502    0 -0.24472834010E+03 -0.28016208056E+02 -0.91177655435E+03  0.94446458559E+03  0.00000000000E+00 0. -1.
          1    1    6    6  503    0  0.48986229331E+02 -0.12588875124E+01 -0.52852752962E+01  0.49286606668E+02  0.00000000000E+00 0. -1.
         -2    1    5    5    0  502 -0.19492342633E+03  0.39138830565E+01 -0.47706310948E+03  0.51536362991E+03  0.00000000000E+00 0.  1.
         -1    1    6    6    0  503  0.21906335921E+03 -0.15895983307E+03 -0.18988406633E+03  0.33062507849E+03  0.00000000000E+00 0.  1.
<mgrwt>
<rscale>  0 0.12144042E+04</rscale>
<asrwt>0</asrwt>
<pdfrwt beam="1">  1        1 0.31856789E+00 0.12144042E+04</pdfrwt>
<pdfrwt beam="2">  1       -1 0.27392886E-01 0.12144042E+04</pdfrwt>
<totfact> 0.31624439E+01</totfact>
</mgrwt>
</event>
<event>
12    1  0.4820219E-008  0.2834250E+04  0.7818608E-02  0.8292713E-01
         -2   -1    0    0    0  501 -0.00000000000E+00  0.00000000000E+00  0.19555841219E+04  0.19555841219E+04  0.00000000000E+00 0.  1.
          2   -1    0    0  501    0  0.00000000000E+00 -0.00000000000E+00 -0.10269276533E+04  0.10269276533E+04  0.00000000000E+00 0. -1.
         23    2    1    2    0    0 -0.41246865362E+03 -0.50090132671E+03  0.15643076065E+04  0.16964577995E+04  0.99389377057E+02 0.  0.
        254    2    1    2    0    0  0.41246865362E+03  0.50090132671E+03 -0.63565113793E+03  0.12860539758E+04  0.91041195634E+03 0.  0.
         23    2    4    4    0    0  0.35048289115E+03  0.23513424967E+03  0.14364031659E+03  0.45528915745E+03  0.92354231041E+02 0.  0.
         23    2    4    4    0    0  0.61985762470E+02  0.26576707704E+03 -0.77929145452E+03  0.83076481836E+03  0.91654996326E+02 0.  0.
         13    1    3    3    0    0 -0.27322338705E+03 -0.32899137478E+03  0.11471032227E+04  0.12242271633E+04  0.00000000000E+00 0.  1.
        -13    1    3    3    0    0 -0.13924526657E+03 -0.17190995193E+03  0.41720438379E+03  0.47223063611E+03  0.00000000000E+00 0. -1.
          2    1    5    5  502    0  0.31493580583E+03  0.23802704213E+03  0.12039638057E+03  0.41271869722E+03  0.00000000000E+00 0. -1.
          1    1    6    6  503    0 -0.27382264245E+01  0.96918325326E+02 -0.38440776764E+03  0.39644670700E+03  0.00000000000E+00 0. -1.
         -2    1    5    5    0  502  0.35547085318E+02 -0.28927924659E+01  0.23243936020E+02  0.42570460234E+02  0.00000000000E+00 0.  1.
         -1    1    6    6    0  503  0.64723988894E+02  0.16884875172E+03 -0.39488368688E+03  0.43431811137E+03  0.00000000000E+00 0.  1.
<mgrwt>
<rscale>  0 0.28342501E+04</rscale>
<asrwt>0</asrwt>
<pdfrwt beam="1">  1        2 0.15798887E+00 0.28342501E+04</pdfrwt>
<pdfrwt beam="2">  1       -2 0.30085910E+00 0.28342501E+04</pdfrwt>
<totfact> 0.65960990E-01</totfact>
</mgrwt>
</event>
<event>
12    1  0.4820219E-008  0.2253880E+04  0.7818608E-02  0.8496331E-01
          2   -1    0    0  501    0  0.00000000000E+00  0.00000000000E+00  0.70873990691E+03  0.70873990691E+03  0.00000000000E+00 0. -1.
         -2   -1    0    0    0  501 -0.00000000000E+00 -0.00000000000E+00 -0.17919030746E+04  0.17919030746E+04  0.00000000000E+00 0.  1.
         23    2    1    2    0    0 -0.78777234706E+03 -0.52752322407E+03 -0.43781991784E+03  0.10479765219E+04  0.87763815054E+02 0.  0.
        254    2    1    2    0    0  0.78777234706E+03  0.52752322407E+03 -0.64534324984E+03  0.14526664596E+04  0.89157496042E+03 0.  0.
         23    2    4    4    0    0  0.86687625012E+03  0.53144692022E+03 -0.26656189817E+03  0.10551376579E+04  0.91378167371E+02 0.  0.
         23    2    4    4    0    0 -0.79103903059E+02 -0.39236961494E+01 -0.37878135167E+03  0.39752880174E+03  0.91000071260E+02 0.  0.
         13    1    3    3    0    0 -0.11230056570E+03 -0.52659675107E+02 -0.32769138465E+02  0.12828980814E+03  0.00000000000E+00 0.  1.
        -13    1    3    3    0    0 -0.67547178136E+03 -0.47486354897E+03 -0.40505077938E+03  0.91968671374E+03  0.00000000000E+00 0. -1.
          4    1    5    5  502    0  0.28440410058E+03  0.12836784147E+03 -0.97362620218E+02  0.32686920162E+03  0.00000000000E+00 0. -1.
          3    1    6    6  503    0 -0.67808948948E+02  0.35372831288E+02 -0.19982774040E+03  0.21396358706E+03  0.00000000000E+00 0. -1.
         -4    1    5    5    0  502  0.58247214953E+03  0.40307907876E+03 -0.16919927795E+03  0.72826845625E+03  0.00000000000E+00 0.  1.
         -3    1    6    6    0  503 -0.11294954110E+02 -0.39296527437E+02 -0.17895361127E+03  0.18356521468E+03  0.00000000000E+00 0.  1.
<mgrwt>
<rscale>  0 0.22538795E+04</rscale>
<asrwt>0</asrwt>
<pdfrwt beam="1">  1        2 0.10903691E+00 0.22538795E+04</pdfrwt>
<pdfrwt beam="2">  1       -2 0.27567740E+00 0.22538795E+04</pdfrwt>
<totfact> 0.16425750E+00</totfact>
</mgrwt>
</event>
<event>
12    1  0.4820219E-008  0.1686168E+04  0.7818608E-02  0.8769293E-01
         -2   -1    0    0    0  501 -0.00000000000E+00  0.00000000000E+00  0.27240155889E+03  0.27240155889E+03  0.00000000000E+00 0.  1.
          2   -1    0    0  501    0  0.00000000000E+00 -0.00000000000E+00 -0.26093488355E+04  0.26093488355E+04  0.00000000000E+00 0. -1.
         23    2    1    2    0    0 -0.23950070038E+03 -0.35452396333E+03 -0.15203066971E+04  0.15820456058E+04  0.92130449762E+02 0.  0.
        254    2    1    2    0    0  0.23950070038E+03  0.35452396333E+03 -0.81664057956E+03  0.12997047886E+04  0.91612383178E+03 0.  0.
         23    2    4    4    0    0  0.33632107738E+03 -0.31491420469E+02  0.40309159778E+02  0.35053488305E+03  0.84535786646E+02 0.  0.
         23    2    4    4    0    0 -0.96820377001E+02  0.38601538380E+03 -0.85694973933E+03  0.94916990550E+03  0.90435567269E+02 0.  0.
         13    1    3    3    0    0 -0.41978908207E+02 -0.39958458462E+02 -0.11923794218E+03  0.13257674755E+03  0.00000000000E+00 0.  1.
        -13    1    3    3    0    0 -0.19752179217E+03 -0.31456550487E+03 -0.14010687549E+04  0.14494688583E+04  0.00000000000E+00 0. -1.
          3    1    5    5  502    0  0.15727795902E+03 -0.19847850249E+02  0.61142868916E+02  0.16990804564E+03  0.00000000000E+00 0. -1.
          3    1    6    6  503    0 -0.56239887271E+02  0.84320608582E+02 -0.17239057934E+03  0.19997850333E+03  0.00000000000E+00 0. -1.
         -3    1    5    5    0  502  0.17904311835E+03 -0.11643570219E+02 -0.20833709138E+02  0.18062683741E+03  0.00000000000E+00 0.  1.
         -3    1    6    6    0  503 -0.40580489730E+02  0.30169477522E+03 -0.68455916000E+03  0.74919140216E+03  0.00000000000E+00 0.  1.
<mgrwt>
<rscale>  0 0.16861681E+04</rscale>
<asrwt>0</asrwt>
<pdfrwt beam="1">  1        2 0.40143828E+00 0.16861681E+04</pdfrwt>
<pdfrwt beam="2">  1       -2 0.41907933E-01 0.16861681E+04</pdfrwt>
<totfact> 0.15480494E+01</totfact>
</mgrwt>
</event>
<event>
12    1  0.4820219E-008  0.1498834E+04  0.7818608E-02  0.8885229E-01
         -2   -1    0    0    0  501 -0.00000000000E+00  0.00000000000E+00  0.34461510724E+03  0.34461510724E+03  0.00000000000E+00 0.  1.
          2   -1    0    0  501    0  0.00000000000E+00 -0.00000000000E+00 -0.16297195203E+04  0.16297195203E+04  0.00000000000E+00 0. -1.
         23    2    1    2    0    0  0.30564757054E+02 -0.14700938311E+03 -0.10469462740E+04  0.10616675678E+04  0.92171367018E+02 0.  0.
        254    2    1    2    0    0 -0.30564757054E+02  0.14700938311E+03 -0.23815813908E+03  0.91266705970E+03  0.86815661004E+03 0.  0.
         23    2    4    4    0    0  0.12323560055E+01  0.45486433681E+03 -0.33809307177E+03  0.57458218160E+03  0.94523407857E+02 0.  0.
         23    2    4    4    0    0 -0.31797113059E+02 -0.30785495369E+03  0.99934932687E+02  0.33808487810E+03  0.92350772167E+02 0.  0.
         11    1    3    3    0    0 -0.77098079044E+01 -0.72790105878E+02 -0.73844570124E+03  0.74206461601E+03  0.00000000000E+00 0.  1.
        -11    1    3    3    0    0  0.38274564958E+02 -0.74219277235E+02 -0.30850057272E+03  0.31960295181E+03  0.00000000000E+00 0. -1.
          1    1    6    6  502    0 -0.26424763165E+02 -0.18391226014E+03  0.12324704443E+02  0.18620925293E+03  0.00000000000E+00 0. -1.
          1    1    5    5  503    0  0.21068408532E+02  0.42395420315E+03 -0.29005968283E+03  0.51411639131E+03  0.00000000000E+00 0. -1.
         -1    1    5    5    0  503 -0.19836052527E+02  0.30910133653E+02 -0.48033388940E+02  0.60465790290E+02  0.00000000000E+00 0.  1.
         -1    1    6    6    0  502 -0.53723498937E+01 -0.12394269355E+03  0.87610228244E+02  0.15187562517E+03  0.00000000000E+00 0.  1.
<mgrwt>
<rscale>  0 0.14988342E+04</rscale>
<asrwt>0</asrwt>
<pdfrwt beam="1">  1        2 0.25072608E+00 0.14988342E+04</pdfrwt>
<pdfrwt beam="2">  1       -2 0.53017709E-01 0.14988342E+04</pdfrwt>
<totfact> 0.34788911E+01</totfact>
</mgrwt>
</event>
<event>
12    1  0.4820219E-008  0.2131437E+04  0.7818608E-02  0.8547520E-01
          4   -1    0    0  501    0  0.00000000000E+00  0.00000000000E+00  0.10621749378E+04  0.10621749378E+04  0.00000000000E+00 0. -1.
         -4   -1    0    0    0  501 -0.00000000000E+00 -0.00000000000E+00 -0.10692741598E+04  0.10692741598E+04  0.00000000000E+00 0.  1.
         23    2    1    2    0    0 -0.28274366333E+03  0.82199024362E+03  0.51026172755E+02  0.87515518994E+03  0.87641294043E+02 0.  0.
        254    2    1    2    0    0  0.28274366333E+03 -0.82199024362E+03 -0.58125394725E+02  0.12562939077E+04  0.90514301701E+03 0.  0.
         23    2    4    4    0    0  0.30425096173E+03 -0.10026487183E+04 -0.50832426164E+02  0.10529988759E+04  0.91376129955E+02 0.  0.
         23    2    4    4    0    0 -0.21507298401E+02  0.18065847464E+03 -0.72929685606E+01  0.20329503182E+03  0.90419213821E+02 0.  0.
         13    1    3    3    0    0 -0.24633020088E+03  0.76582482053E+03  0.63868852058E+02  0.80699780289E+03  0.00000000000E+00 0.  1.
        -13    1    3    3    0    0 -0.36413462451E+02  0.56165423091E+02 -0.12842679304E+02  0.68157387056E+02  0.00000000000E+00 0. -1.
          1    1    5    5  502    0  0.21701016771E+03 -0.72576277177E+03 -0.77528128094E+02  0.76146938508E+03  0.00000000000E+00 0. -1.
          3    1    6    6  503    0 -0.27041772110E+02  0.12652908498E+03  0.35390616997E+02  0.13413934007E+03  0.00000000000E+00 0. -1.
         -1    1    5    5    0  502  0.87240794022E+02 -0.27688594649E+03  0.26695701930E+02  0.29152949080E+03  0.00000000000E+00 0.  1.
         -3    1    6    6    0  503  0.55344737095E+01  0.54129389658E+02 -0.42683585558E+02  0.69155691740E+02  0.00000000000E+00 0.  1.
<mgrwt>
<rscale>  0 0.21314373E+04</rscale>
<asrwt>0</asrwt>
<pdfrwt beam="1">  1        4 0.16341153E+00 0.21314373E+04</pdfrwt>
<pdfrwt beam="2">  1       -4 0.16450372E+00 0.21314373E+04</pdfrwt>
<totfact> 0.10056564E-01</totfact>
</mgrwt>
</event>
<event>
12    1  0.4820219E-008  0.1788429E+04  0.7818608E-02  0.8712477E-01
          2   -1    0    0  501    0  0.00000000000E+00  0.00000000000E+00  0.34867538685E+04  0.34867538685E+04  0.00000000000E+00 0. -1.
         -2   -1    0    0    0  501 -0.00000000000E+00 -0.00000000000E+00 -0.22933074847E+03  0.22933074847E+03  0.00000000000E+00 0.  1.
         23    2    1    2    0    0  0.40118498401E+03 -0.58177324116E+03  0.11949507621E+04  0.13912441950E+04  0.90794222271E+02 0.  0.
        254    2    1    2    0    0 -0.40118498401E+03  0.58177324116E+03  0.20624723579E+04  0.23248404219E+04  0.80726777761E+03 0.  0.
         23    2    4    4    0    0  0.15469921510E+03  0.15164017631E+03  0.13657157644E+03  0.27265196011E+03  0.93598641200E+02 0.  0.
         23    2    4    4    0    0 -0.55588419911E+03  0.43013306484E+03  0.19259007814E+04  0.20521884618E+04  0.91443788596E+02 0.  0.
         11    1    3    3    0    0  0.71826403552E+02 -0.14057381766E+03  0.33191602580E+03  0.36754357380E+03  0.00000000000E+00 0. -1.
        -11    1    3    3    0    0  0.32935858046E+03 -0.44119942349E+03  0.86303473631E+03  0.10237006212E+04  0.00000000000E+00 0.  1.
          1    1    5    5  502    0  0.58380439992E+02  0.25292565751E+02  0.83855202456E+02  0.10526008092E+03  0.00000000000E+00 0. -1.
          3    1    6    6  503    0 -0.14501321042E+03  0.80014130751E+02  0.37231348307E+03  0.40749039497E+03  0.00000000000E+00 0. -1.
         -1    1    5    5    0  502  0.96318775110E+02  0.12634761056E+03  0.52716373987E+02  0.16739187919E+03  0.00000000000E+00 0.  1.
         -3    1    6    6    0  503 -0.41087098869E+03  0.35011893409E+03  0.15535872984E+04  0.16446980668E+04  0.00000000000E+00 0.  1.
<mgrwt>
<rscale>  0 0.17884293E+04</rscale>
<asrwt>0</asrwt>
<pdfrwt beam="1">  1        2 0.53642363E+00 0.17884293E+04</pdfrwt>
<pdfrwt beam="2">  1       -2 0.35281656E-01 0.17884293E+04</pdfrwt>
<totfact> 0.59696985E+00</totfact>
</mgrwt>
</event>
<event>
12    1  0.4820219E-008  0.2795268E+04  0.7818608E-02  0.8304739E-01
          2   -1    0    0  501    0  0.00000000000E+00  0.00000000000E+00  0.21104211910E+04  0.21104211910E+04  0.00000000000E+00 0. -1.
         -2   -1    0    0    0  501 -0.00000000000E+00 -0.00000000000E+00 -0.92558802831E+03  0.92558802831E+03  0.00000000000E+00 0.  1.
         23    2    1    2    0    0  0.52022268918E+03  0.82598423154E+03 -0.31412257270E+03  0.10301121087E+04  0.97858922664E+02 0.  0.
        254    2    1    2    0    0 -0.52022268918E+03 -0.82598423154E+03  0.14989557353E+04  0.20058971105E+04  0.90767467988E+03 0.  0.
         23    2    4    4    0    0 -0.55716244188E+03 -0.47796380105E+03  0.38272379393E+03  0.83274926939E+03  0.90080305761E+02 0.  0.
         23    2    4    4    0    0  0.36939752693E+02 -0.34802043049E+03  0.11162319414E+04  0.11731478412E+04  0.88427059226E+02 0.  0.
         13    1    3    3    0    0  0.44591048013E+02  0.10626998212E+03 -0.11175628091E+02  0.11578672344E+03  0.00000000000E+00 0. -1.
        -13    1    3    3    0    0  0.47563164117E+03  0.71971424942E+03 -0.30294694460E+03  0.91432538527E+03  0.00000000000E+00 0.  1.
          1    1    5    5  502    0 -0.33007755307E+02 -0.33817340802E+02  0.52000677205E+02  0.70265175437E+02  0.00000000000E+00 0. -1.
          3    1    6    6  503    0  0.51043626280E+02 -0.12230090914E+03  0.35056982531E+03  0.37478282589E+03  0.00000000000E+00 0. -1.
         -1    1    5    5    0  502 -0.52415468657E+03 -0.44414646025E+03  0.33072311672E+03  0.76248409396E+03  0.00000000000E+00 0.  1.
         -3    1    6    6    0  503 -0.14103873586E+02 -0.22571952134E+03  0.76566211610E+03  0.79836501526E+03  0.00000000000E+00 0.  1.
<mgrwt>
<rscale>  0 0.27952679E+04</rscale>
<asrwt>0</asrwt>
<pdfrwt beam="1">  1        2 0.32468018E+00 0.27952679E+04</pdfrwt>
<pdfrwt beam="2">  1       -2 0.14239816E+00 0.27952679E+04</pdfrwt>
<totfact> 0.17340664E+00</totfact>
</mgrwt>
</event>
<event>
12    1  0.4820219E-008  0.2446178E+04  0.7818608E-02  0.8422415E-01
         -2   -1    0    0    0  501 -0.00000000000E+00  0.00000000000E+00  0.16925324176E+04  0.16925324176E+04  0.00000000000E+00 0.  1.
          2   -1    0    0  501    0  0.00000000000E+00 -0.00000000000E+00 -0.88385106336E+03  0.88385106336E+03  0.00000000000E+00 0. -1.
         23    2    1    2    0    0 -0.10447365102E+04 -0.35099846124E+03  0.41750982366E+03  0.11816231611E+04  0.85114901116E+02 0.  0.
        254    2    1    2    0    0  0.10447365102E+04  0.35099846124E+03  0.39117153058E+03  0.13947603199E+04  0.76004400395E+03 0.  0.
         23    2    4    4    0    0  0.50862672001E+03  0.25916496217E+03 -0.17566179966E+03  0.60392248824E+03  0.89429782627E+02 0.  0.
         23    2    4    4    0    0  0.53610979021E+03  0.91833499077E+02  0.56683333024E+03  0.79083783162E+03  0.90979958990E+02 0.  0.
         11    1    3    3    0    0 -0.64678516072E+03 -0.20602471193E+03  0.21406698997E+03  0.71175972227E+03  0.00000000000E+00 0. -1.
        -11    1    3    3    0    0 -0.39795134950E+03 -0.14497374931E+03  0.20344283369E+03  0.46986343882E+03  0.00000000000E+00 0.  1.
          2    1    5    5  502    0  0.18904288231E+03  0.78551590867E+02 -0.10508491480E+03  0.23010954587E+03  0.00000000000E+00 0. -1.
          3    1    6    6  503    0  0.50002966362E+03  0.61029686353E+02  0.51055178124E+03  0.71722897909E+03  0.00000000000E+00 0. -1.
         -2    1    5    5    0  502  0.31958383770E+03  0.18061337130E+03 -0.70576884862E+02  0.37381294238E+03  0.00000000000E+00 0.  1.
         -3    1    6    6    0  503  0.36080126588E+02  0.30803812724E+02  0.56281549003E+02  0.73608852532E+02  0.00000000000E+00 0.  1.
<mgrwt>
<rscale>  0 0.24461779E+04</rscale>
<asrwt>0</asrwt>
<pdfrwt beam="1">  1        2 0.13597709E+00 0.24461779E+04</pdfrwt>
<pdfrwt beam="2">  1       -2 0.26038960E+00 0.24461779E+04</pdfrwt>
<totfact> 0.14947373E+00</totfact>
</mgrwt>
</event>
<event>
12    1  0.4820219E-008  0.1775821E+04  0.7818608E-02  0.8719264E-01
          1   -1    0    0  501    0  0.00000000000E+00  0.00000000000E+00  0.91950288478E+03  0.91950288478E+03  0.00000000000E+00 0. -1.
         -1   -1    0    0    0  501 -0.00000000000E+00 -0.00000000000E+00 -0.85740338560E+03  0.85740338560E+03  0.00000000000E+00 0.  1.
         23    2    1    2    0    0  0.61252114509E+03 -0.47810600445E+02  0.23405028772E+03  0.66382512857E+03  0.91740162628E+02 0.  0.
        254    2    1    2    0    0 -0.61252114509E+03  0.47810600445E+02 -0.17195078853E+03  0.11130811418E+04  0.91209349733E+03 0.  0.
         23    2    4    4    0    0 -0.46014637073E+03  0.43614758728E+03  0.27181788165E+02  0.64159939112E+03  0.94612518623E+02 0.  0.
         23    2    4    4    0    0 -0.15237477436E+03 -0.38833698684E+03 -0.19913257670E+03  0.47148175069E+03  0.92830872709E+02 0.  0.
         11    1    3    3    0    0  0.60554141398E+03 -0.58480069060E+02  0.23079614947E+03  0.65066672355E+03  0.00000000000E+00 0. -1.
        -11    1    3    3    0    0  0.69797311085E+01  0.10669468615E+02  0.32541382413E+01  0.13158405016E+02  0.00000000000E+00 0.  1.
          4    1    5    5  502    0 -0.88436259977E+02  0.37990135728E+02  0.62906472272E+00  0.96252886782E+02  0.00000000000E+00 0. -1.
          4    1    6    6  503    0 -0.15207473611E+03 -0.32801490048E+03 -0.19556156203E+03  0.41105331144E+03  0.00000000000E+00 0.  1.
         -4    1    5    5    0  502 -0.37171011076E+03  0.39815745155E+03  0.26552723442E+02  0.54534650433E+03  0.00000000000E+00 0.  1.
         -4    1    6    6    0  503 -0.30003824876E+00 -0.60322086354E+02 -0.35710146712E+01  0.60428439255E+02  0.00000000000E+00 0. -1.
<mgrwt>
<rscale>  0 0.17758208E+04</rscale>
<asrwt>0</asrwt>
<pdfrwt beam="1">  1        1 0.14146198E+00 0.17758208E+04</pdfrwt>
<pdfrwt beam="2">  1       -1 0.13190821E+00 0.17758208E+04</pdfrwt>
<totfact> 0.81074540E+00</totfact>
</mgrwt>
</event>
<event>
12    1  0.4820219E-008  0.1498959E+04  0.7818608E-02  0.8885145E-01
         -2   -1    0    0    0  501 -0.00000000000E+00  0.00000000000E+00  0.34349948298E+03  0.34349948298E+03  0.00000000000E+00 0.  1.
          2   -1    0    0  501    0  0.00000000000E+00 -0.00000000000E+00 -0.16352856506E+04  0.16352856506E+04  0.00000000000E+00 0. -1.
         23    2    1    2    0    0 -0.24466343633E+03 -0.32655478415E+03 -0.72575522646E+03  0.83929529167E+03  0.10581925043E+03 0.  0.
        254    2    1    2    0    0  0.24466343633E+03  0.32655478415E+03 -0.56603094120E+03  0.11394898419E+04  0.90085950590E+03 0.  0.
         23    2    4    4    0    0  0.18023534190E+03  0.56618430544E+03 -0.10758821543E+03  0.61064755043E+03  0.90916228181E+02 0.  0.
         23    2    4    4    0    0  0.64428094429E+02 -0.23962952129E+03 -0.45844272578E+03  0.52884229152E+03  0.89057002301E+02 0.  0.
         11    1    3    3    0    0 -0.20453204815E+03 -0.19715276572E+03 -0.52817642020E+03  0.59972735689E+03  0.00000000000E+00 0. -1.
        -11    1    3    3    0    0 -0.40131388180E+02 -0.12940201843E+03 -0.19757880626E+03  0.23956793478E+03  0.00000000000E+00 0.  1.
          2    1    5    5  502    0  0.61097631823E+02  0.18944932413E+03 -0.80097308922E+02  0.21456827800E+03  0.00000000000E+00 0. -1.
          4    1    6    6  503    0  0.23823920074E+02 -0.13509355691E+03 -0.16425025636E+03  0.21399998832E+03  0.00000000000E+00 0. -1.
         -2    1    5    5    0  502  0.11913771007E+03  0.37673498131E+03 -0.27490906505E+02  0.39607927242E+03  0.00000000000E+00 0.  1.
         -4    1    6    6    0  503  0.40604174356E+02 -0.10453596437E+03 -0.29419246941E+03  0.31484230320E+03  0.00000000000E+00 0.  1.
<mgrwt>
<rscale>  0 0.14989593E+04</rscale>
<asrwt>0</asrwt>
<pdfrwt beam="1">  1        2 0.25158241E+00 0.14989593E+04</pdfrwt>
<pdfrwt beam="2">  1       -2 0.52846074E-01 0.14989593E+04</pdfrwt>
<totfact> 0.34772599E+01</totfact>
</mgrwt>
</event>
<event>
12    1  0.4820219E-008  0.1354315E+04  0.7818608E-02  0.8987568E-01
         -1   -1    0    0    0  501 -0.00000000000E+00  0.00000000000E+00  0.78631841899E+03  0.78631841899E+03  0.00000000000E+00 0.  1.
          1   -1    0    0  501    0  0.00000000000E+00 -0.00000000000E+00 -0.58315072860E+03  0.58315072860E+03  0.00000000000E+00 0. -1.
         23    2    1    2    0    0 -0.17158279162E+03 -0.19694928437E+03  0.36025033136E+03  0.45426275988E+03  0.91349213343E+02 0.  0.
        254    2    1    2    0    0  0.17158279162E+03  0.19694928437E+03 -0.15708264096E+03  0.91520638771E+03  0.86295892198E+03 0.  0.
         23    2    4    4    0    0 -0.13971379738E+03  0.45106501679E+03 -0.22573706279E+02  0.48159028600E+03  0.91869672953E+02 0.  0.
         23    2    4    4    0    0  0.31129658900E+03 -0.25411573242E+03 -0.13450893468E+03  0.43361610171E+03  0.91923328779E+02 0.  0.
         11    1    3    3    0    0 -0.14993463083E+03 -0.17754545585E+03  0.25470131422E+03  0.34478332599E+03  0.00000000000E+00 0.  1.
        -11    1    3    3    0    0 -0.21648160786E+02 -0.19403828523E+02  0.10554901713E+03  0.10947943389E+03  0.00000000000E+00 0. -1.
          2    1    5    5  502    0 -0.89094972492E+02  0.14869110515E+03  0.77429336791E+01  0.17351343434E+03  0.00000000000E+00 0. -1.
          3    1    6    6  503    0  0.86037920698E+02 -0.80876385518E+02  0.25690830790E+01  0.11811059953E+03  0.00000000000E+00 0. -1.
         -2    1    5    5    0  502 -0.50618824885E+02  0.30237391164E+03 -0.30316639958E+02  0.30807685166E+03  0.00000000000E+00 0.  1.
         -3    1    6    6    0  503  0.22525866830E+03 -0.17323934690E+03 -0.13707801776E+03  0.31550550219E+03  0.00000000000E+00 0.  1.
<mgrwt>
<rscale>  0 0.13543148E+04</rscale>
<asrwt>0</asrwt>
<pdfrwt beam="1">  1        1 0.89715497E-01 0.13543148E+04</pdfrwt>
<pdfrwt beam="2">  1       -1 0.12097206E+00 0.13543148E+04</pdfrwt>
<totfact> 0.21200385E+01</totfact>
</mgrwt>
</event>
<event>
12    1  0.4820219E-008  0.1553484E+04  0.7818608E-02  0.8849645E-01
          1   -1    0    0  501    0  0.00000000000E+00  0.00000000000E+00  0.12762489427E+04  0.12762489427E+04  0.00000000000E+00 0. -1.
         -1   -1    0    0    0  501 -0.00000000000E+00 -0.00000000000E+00 -0.47273569280E+03  0.47273569280E+03  0.00000000000E+00 0.  1.
         23    2    1    2    0    0  0.14266051793E+03  0.48355131651E+03  0.35545905251E+03  0.62325153639E+03  0.88980000678E+02 0.  0.
        254    2    1    2    0    0 -0.14266051793E+03 -0.48355131651E+03  0.44805419744E+03  0.11257330992E+04  0.90130380429E+03 0.  0.
         23    2    4    4    0    0 -0.29178656159E+03 -0.51402853962E+02 -0.16876424862E+03  0.35274895014E+03  0.90381410125E+02 0.  0.
         23    2    4    4    0    0  0.14912604366E+03 -0.43214846255E+03  0.61681844606E+03  0.77298414901E+03  0.89714149640E+02 0.  0.
         13    1    3    3    0    0  0.11571726145E+03  0.36026059455E+03  0.21820403533E+03  0.43679649909E+03  0.00000000000E+00 0. -1.
        -13    1    3    3    0    0  0.26943256477E+02  0.12329072196E+03  0.13725501718E+03  0.18645503730E+03  0.00000000000E+00 0.  1.
          1    1    5    5  502    0 -0.13404984501E+03 -0.32341674223E+02 -0.28501797364E+02  0.14081085644E+03  0.00000000000E+00 0. -1.
          3    1    6    6  503    0  0.74723663879E+02 -0.12969865142E+03  0.15091226171E+03  0.21255558534E+03  0.00000000000E+00 0. -1.
         -1    1    5    5    0  502 -0.15773671658E+03 -0.19061179740E+02 -0.14026245126E+03  0.21193809371E+03  0.00000000000E+00 0.  1.
         -3    1    6    6    0  503  0.74402379778E+02 -0.30244981113E+03  0.46590618435E+03  0.56042856367E+03  0.00000000000E+00 0.  1.
<mgrwt>
<rscale>  0 0.15534844E+04</rscale>
<asrwt>0</asrwt>
<pdfrwt beam="1">  1        1 0.19634599E+00 0.15534844E+04</pdfrwt>
<pdfrwt beam="2">  1       -1 0.72728569E-01 0.15534844E+04</pdfrwt>
<totfact> 0.17274574E+01</totfact>
</mgrwt>
</event>
<event>
12    1  0.4820219E-008  0.2018927E+04  0.7818608E-02  0.8597822E-01
         -2   -1    0    0    0  501 -0.00000000000E+00  0.00000000000E+00  0.76778985111E+03  0.76778985111E+03  0.00000000000E+00 0.  1.
          2   -1    0    0  501    0  0.00000000000E+00 -0.00000000000E+00 -0.13272078277E+04  0.13272078277E+04  0.00000000000E+00 0. -1.
         23    2    1    2    0    0  0.35713719476E+03 -0.70421634749E+03 -0.16421615405E+03  0.81328976646E+03  0.10490785967E+03 0.  0.
        254    2    1    2    0    0 -0.35713719476E+03  0.70421634749E+03 -0.39520182251E+03  0.12817079123E+04  0.92904416045E+03 0.  0.
         23    2    4    4    0    0  0.80904088728E+02  0.37811730926E+03 -0.57583137386E+03  0.69940136368E+03  0.89790451931E+02 0.  0.
         23    2    4    4    0    0 -0.43804128348E+03  0.32609903823E+03  0.18062955135E+03  0.58230654865E+03  0.90736613430E+02 0.  0.
         13    1    3    3    0    0  0.19356304320E+03 -0.36890521196E+03 -0.13970652892E+03  0.43940371109E+03  0.00000000000E+00 0. -1.
        -13    1    3    3    0    0  0.16357415156E+03 -0.33531113553E+03 -0.24509625132E+02  0.37388605536E+03  0.00000000000E+00 0.  1.
          1    1    6    6  502    0 -0.13793647918E+03  0.92243963754E+02  0.98867867051E+02  0.19315868159E+03  0.00000000000E+00 0. -1.
          1    1    5    5  503    0  0.13027589314E+02  0.26263010047E+03 -0.38691516884E+03  0.46781153858E+03  0.00000000000E+00 0. -1.
         -1    1    5    5    0  503  0.67876499414E+02  0.11548720879E+03 -0.18891620502E+03  0.23158982510E+03  0.00000000000E+00 0.  1.
         -1    1    6    6    0  502 -0.30010480430E+03  0.23385507447E+03  0.81761684295E+02  0.38914786706E+03  0.00000000000E+00 0.  1.
<mgrwt>
<rscale>  0 0.20189271E+04</rscale>
<asrwt>0</asrwt>
<pdfrwt beam="1">  1        2 0.20418582E+00 0.20189271E+04</pdfrwt>
<pdfrwt beam="2">  1       -2 0.11812152E+00 0.20189271E+04</pdfrwt>
<totfact> 0.81661403E+00</totfact>
</mgrwt>
</event>
<event>
12    1  0.4820219E-008  0.2038618E+04  0.7818608E-02  0.8588776E-01
          2   -1    0    0  501    0  0.00000000000E+00  0.00000000000E+00  0.15701550899E+04  0.15701550899E+04  0.00000000000E+00 0. -1.
         -2   -1    0    0    0  501 -0.00000000000E+00 -0.00000000000E+00 -0.66171197282E+03  0.66171197282E+03  0.00000000000E+00 0.  1.
         23    2    1    2    0    0 -0.29364717609E+03 -0.28095744527E+02 -0.46950674169E+03  0.56063611971E+03  0.82814511666E+02 0.  0.
        254    2    1    2    0    0  0.29364717609E+03  0.28095744527E+02  0.13779498588E+04  0.16712309431E+04  0.89847037608E+03 0.  0.
         23    2    4    4    0    0 -0.31404627078E+03 -0.25140077655E+02  0.51219586830E+03  0.60827647512E+03  0.91643761324E+02 0.  0.
         23    2    4    4    0    0  0.60769344687E+03  0.53235822182E+02  0.86575399052E+03  0.10629544679E+04  0.90646845796E+02 0.  0.
         11    1    3    3    0    0 -0.29257559258E+03 -0.25948271086E+02 -0.42819100865E+03  0.51925073908E+03  0.00000000000E+00 0.  1.
        -11    1    3    3    0    0 -0.10715835177E+01 -0.21474734413E+01 -0.41315733043E+02  0.41385380635E+02  0.00000000000E+00 0. -1.
          2    1    5    5  502    0 -0.60509326088E+02 -0.19220675827E+02  0.17637489501E+03  0.18745377167E+03  0.00000000000E+00 0. -1.
          2    1    6    6  503    0  0.56875713118E+02  0.21187391353E+02  0.12838956116E+03  0.14201278714E+03  0.00000000000E+00 0. -1.
         -2    1    5    5    0  502 -0.25353694469E+03 -0.59194018277E+01  0.33582097329E+03  0.42082270345E+03  0.00000000000E+00 0.  1.
         -2    1    6    6    0  503  0.55081773375E+03  0.32048430829E+02  0.73736442936E+03  0.92094168079E+03  0.00000000000E+00 0.  1.
<mgrwt>
<rscale>  0 0.20386176E+04</rscale>
<asrwt>0</asrwt>
<pdfrwt beam="1">  1        2 0.24156232E+00 0.20386176E+04</pdfrwt>
<pdfrwt beam="2">  1       -2 0.10180184E+00 0.20386176E+04</pdfrwt>
<totfact> 0.84980628E+00</totfact>
</mgrwt>
</event>
<event>
12    1  0.4820219E-008  0.1418025E+04  0.7818608E-02  0.8940874E-01
         -2   -1    0    0    0  501 -0.00000000000E+00  0.00000000000E+00  0.86474119115E+03  0.86474119115E+03  0.00000000000E+00 0.  1.
          2   -1    0    0  501    0  0.00000000000E+00 -0.00000000000E+00 -0.58132832510E+03  0.58132832510E+03  0.00000000000E+00 0. -1.
         23    2    1    2    0    0 -0.34576809633E+03  0.21213983584E+03  0.15647322711E+03  0.44434241909E+03  0.91637482591E+02 0.  0.
        254    2    1    2    0    0  0.34576809633E+03 -0.21213983584E+03  0.12693963894E+03  0.10017270972E+04  0.90707475924E+03 0.  0.
         23    2    4    4    0    0  0.39437764561E+03 -0.52206944779E+03  0.14139739191E+03  0.67469432727E+03  0.84433270294E+02 0.  0.
         23    2    4    4    0    0 -0.48609549277E+02  0.30992961196E+03 -0.14457752975E+02  0.32703276989E+03  0.91225836854E+02 0.  0.
         11    1    3    3    0    0 -0.20145622404E+03  0.96867593110E+02  0.12763033899E+03  0.25740521407E+03  0.00000000000E+00 0.  1.
        -11    1    3    3    0    0 -0.14431187229E+03  0.11527224273E+03  0.28842888119E+02  0.18693720503E+03  0.00000000000E+00 0. -1.
          1    1    5    5  502    0  0.10582477077E+03 -0.12885700253E+03  0.73649123982E+02  0.18228330333E+03  0.00000000000E+00 0. -1.
          3    1    6    6  503    0  0.82465751609E+01  0.19163546860E+03 -0.32511439504E+02  0.19454858655E+03  0.00000000000E+00 0. -1.
         -1    1    5    5    0  502  0.28855287484E+03 -0.39321244526E+03  0.67748267929E+02  0.49241102394E+03  0.00000000000E+00 0.  1.
         -3    1    6    6    0  503 -0.56856124438E+02  0.11829414335E+03  0.18053686529E+02  0.13248418334E+03  0.00000000000E+00 0.  1.
<mgrwt>
<rscale>  0 0.14180248E+04</rscale>
<asrwt>0</asrwt>
<pdfrwt beam="1">  1        2 0.89435127E-01 0.14180248E+04</pdfrwt>
<pdfrwt beam="2">  1       -2 0.13303711E+00 0.14180248E+04</pdfrwt>
<totfact> 0.20502129E+01</totfact>
</mgrwt>
</event>
<event>
12    1  0.4820219E-008  0.1451621E+04  0.7818608E-02  0.8917277E-01
         -2   -1    0    0    0  501 -0.00000000000E+00  0.00000000000E+00  0.57962324018E+03  0.57962324018E+03  0.00000000000E+00 0.  1.
          2   -1    0    0  501    0  0.00000000000E+00 -0.00000000000E+00 -0.90886835262E+03  0.90886835262E+03  0.00000000000E+00 0. -1.
         23    2    1    2    0    0  0.26107014109E+03 -0.21517995890E+03  0.21300454767E+03  0.41010577175E+03  0.91409919678E+02 0.  0.
        254    2    1    2    0    0 -0.26107014109E+03  0.21517995890E+03 -0.54224966012E+03  0.10783858210E+04  0.86857426387E+03 0.  0.
         23    2    4    4    0    0 -0.30452449604E+03  0.20057858949E+03  0.12951755410E+03  0.39888467963E+03  0.96784562691E+02 0.  0.
         23    2    4    4    0    0  0.43454354954E+02  0.14601369414E+02 -0.67176721422E+03  0.67950114142E+03  0.91373574609E+02 0.  0.
         13    1    3    3    0    0  0.12570982949E+03 -0.15418845452E+03  0.95019866837E+02  0.22046726702E+03  0.00000000000E+00 0. -1.
        -13    1    3    3    0    0  0.13536031160E+03 -0.60991504386E+02  0.11798468083E+03  0.18963850473E+03  0.00000000000E+00 0.  1.
          2    1    5    5  502    0 -0.20172756693E+03  0.16621636325E+03  0.54329816674E+02  0.26697119630E+03  0.00000000000E+00 0. -1.
          1    1    6    6  503    0  0.45104043760E+02 -0.10894101103E+01 -0.65472257391E+03  0.65627525503E+03  0.00000000000E+00 0. -1.
         -2    1    5    5    0  502 -0.10279692911E+03  0.34362226238E+02  0.75187737427E+02  0.13191348333E+03  0.00000000000E+00 0.  1.
         -1    1    6    6    0  503 -0.16496888056E+01  0.15690779524E+02 -0.17044640306E+02  0.23225886385E+02  0.00000000000E+00 0.  1.
<mgrwt>
<rscale>  0 0.14516215E+04</rscale>
<asrwt>0</asrwt>
<pdfrwt beam="1">  1        2 0.13982590E+00 0.14516215E+04</pdfrwt>
<pdfrwt beam="2">  1       -2 0.89172806E-01 0.14516215E+04</pdfrwt>
<totfact> 0.30282001E+01</totfact>
</mgrwt>
</event>
<event>
12    1  0.4820219E-008  0.1857192E+04  0.7818608E-02  0.8676463E-01
         -1   -1    0    0    0  501 -0.00000000000E+00  0.00000000000E+00  0.69010390357E+03  0.69010390357E+03  0.00000000000E+00 0.  1.
          1   -1    0    0  501    0  0.00000000000E+00 -0.00000000000E+00 -0.12495079949E+04  0.12495079949E+04  0.00000000000E+00 0. -1.
         23    2    1    2    0    0 -0.25405494065E+03  0.32315355412E+03 -0.81053256475E+03  0.91311537053E+03  0.88569232634E+02 0.  0.
        254    2    1    2    0    0  0.25405494065E+03 -0.32315355412E+03  0.25112847346E+03  0.10264965279E+04  0.90645324160E+03 0.  0.
         23    2    4    4    0    0 -0.12147005946E+03  0.57215277334E+02 -0.24353202895E+03  0.29281368377E+03  0.91670284019E+02 0.  0.
         23    2    4    4    0    0  0.37552500011E+03 -0.38036883145E+03  0.49466050241E+03  0.73368284413E+03  0.88893360139E+02 0.  0.
         11    1    3    3    0    0 -0.25734124600E+03  0.29470266521E+03 -0.76666870345E+03  0.86072938757E+03  0.00000000000E+00 0. -1.
        -11    1    3    3    0    0  0.32863053545E+01  0.28450888908E+02 -0.43863861306E+02  0.52385982965E+02  0.00000000000E+00 0.  1.
          1    1    5    5  502    0 -0.80668987849E+02  0.29871294806E+01 -0.18980268557E+03  0.20625583141E+03  0.00000000000E+00 0. -1.
          3    1    6    6  503    0  0.30191386223E+03 -0.26384054467E+03  0.40081657951E+03  0.56693716021E+03  0.00000000000E+00 0. -1.
         -1    1    5    5    0  502 -0.40801071615E+02  0.54228147853E+02 -0.53729343385E+02  0.86557852360E+02  0.00000000000E+00 0.  1.
         -3    1    6    6    0  503  0.73611137881E+02 -0.11652828678E+03  0.93843922904E+02  0.16674568392E+03  0.00000000000E+00 0.  1.
<mgrwt>
<rscale>  0 0.18571918E+04</rscale>
<asrwt>0</asrwt>
<pdfrwt beam="1">  1        1 0.19223200E+00 0.18571918E+04</pdfrwt>
<pdfrwt beam="2">  1       -1 0.10616983E+00 0.18571918E+04</pdfrwt>
<totfact> 0.76621067E+00</totfact>
</mgrwt>
</event>
<event>
12    1  0.4820219E-008  0.1370646E+04  0.7818608E-02  0.8975345E-01
         -2   -1    0    0    0  501 -0.00000000000E+00  0.00000000000E+00  0.43836453308E+03  0.43836453308E+03  0.00000000000E+00 0.  1.
          2   -1    0    0  501    0  0.00000000000E+00 -0.00000000000E+00 -0.10714086875E+04  0.10714086875E+04  0.00000000000E+00 0. -1.
         23    2    1    2    0    0 -0.31541366325E+03  0.63370531323E+02 -0.41023180160E+03  0.52945313774E+03  0.92351994129E+02 0.  0.
        254    2    1    2    0    0  0.31541366325E+03 -0.63370531323E+02 -0.22281235284E+03  0.98032008285E+03  0.89882173820E+03 0.  0.
         23    2    4    4    0    0 -0.24384630178E+03 -0.11207960026E+03  0.12968239546E+03  0.31144389767E+03  0.90315679788E+02 0.  0.
         23    2    4    4    0    0  0.55925996503E+03  0.48709068934E+02 -0.35249474829E+03  0.66887618519E+03  0.89434454527E+02 0.  0.
         11    1    3    3    0    0 -0.13385327227E+03  0.62419823822E+02 -0.23205086602E+03  0.27506460573E+03  0.00000000000E+00 0. -1.
        -11    1    3    3    0    0 -0.18156039098E+03  0.95070750084E+00 -0.17818093558E+03  0.25438853202E+03  0.00000000000E+00 0.  1.
          4    1    5    5  502    0  0.60659247184E+01  0.10604179511E+01 -0.28406745574E+01  0.67815456100E+01  0.00000000000E+00 0.  1.
          3    1    6    6  503    0  0.49981232917E+03  0.57779044360E+02 -0.34057501206E+03  0.60757067177E+03  0.00000000000E+00 0. -1.
         -4    1    5    5    0  502 -0.24991222650E+03 -0.11314001821E+03  0.13252307001E+03  0.30466235206E+03  0.00000000000E+00 0. -1.
         -3    1    6    6    0  503  0.59447635861E+02 -0.90699754265E+01 -0.11919736236E+02  0.61305513419E+02  0.00000000000E+00 0.  1.
<mgrwt>
<rscale>  0 0.13706459E+04</rscale>
<asrwt>0</asrwt>
<pdfrwt beam="1">  1        2 0.16483211E+00 0.13706459E+04</pdfrwt>
<pdfrwt beam="2">  1       -2 0.67440697E-01 0.13706459E+04</pdfrwt>
<totfact> 0.44633931E+01</totfact>
</mgrwt>
</event>
<event>
12    1  0.4820219E-008  0.1157817E+04  0.7818608E-02  0.9150602E-01
         -2   -1    0    0    0  501 -0.00000000000E+00  0.00000000000E+00  0.11495434827E+03  0.11495434827E+03  0.00000000000E+00 0.  1.
          2   -1    0    0  501    0  0.00000000000E+00 -0.00000000000E+00 -0.29153756837E+04  0.29153756837E+04  0.00000000000E+00 0. -1.
         23    2    1    2    0    0  0.17969812219E+03  0.11126045105E+03 -0.88937308027E+03  0.91868087537E+03  0.91212782999E+02 0.  0.
        254    2    1    2    0    0 -0.17969812219E+03 -0.11126045105E+03 -0.19110482551E+04  0.21116491566E+04  0.87309015796E+03 0.  0.
         23    2    4    4    0    0  0.22225504187E+03  0.13988351379E+03 -0.22581203363E+03  0.35858710365E+03  0.92892062659E+02 0.  0.
         23    2    4    4    0    0 -0.40195316405E+03 -0.25114396485E+03 -0.16852362215E+04  0.17530620529E+04  0.92551617831E+02 0.  0.
         13    1    3    3    0    0  0.17954033096E+03  0.12341617750E+03 -0.83382408688E+03  0.86181720288E+03  0.00000000000E+00 0. -1.
        -13    1    3    3    0    0  0.15779122592E+00 -0.12155726443E+02 -0.55548993386E+02  0.56863672495E+02  0.00000000000E+00 0.  1.
          1    1    5    5  502    0  0.13080440679E+02  0.43339575180E+02 -0.57962585364E+02  0.73546434361E+02  0.00000000000E+00 0. -1.
          3    1    6    6  503    0 -0.31998530991E+02 -0.53760075215E+02 -0.26010119413E+03  0.26751949996E+03  0.00000000000E+00 0. -1.
         -1    1    5    5    0  502  0.20917460119E+03  0.96543938614E+02 -0.16784944827E+03  0.28504066929E+03  0.00000000000E+00 0.  1.
         -3    1    6    6    0  503 -0.36995463306E+03 -0.19738388963E+03 -0.14251350274E+04  0.14855425529E+04  0.00000000000E+00 0.  1.
<mgrwt>
<rscale>  0 0.11578171E+04</rscale>
<asrwt>0</asrwt>
<pdfrwt beam="1">  1        2 0.44851933E+00 0.11578171E+04</pdfrwt>
<pdfrwt beam="2">  1       -2 0.17685285E-01 0.11578171E+04</pdfrwt>
<totfact> 0.52267703E+01</totfact>
</mgrwt>
</event>
<event>
12    1  0.4820219E-008  0.1229815E+04  0.7818608E-02  0.9087152E-01
         -1   -1    0    0    0  501 -0.00000000000E+00  0.00000000000E+00  0.82354442218E+03  0.82354442218E+03  0.00000000000E+00 0. -1.
          1   -1    0    0  501    0  0.00000000000E+00 -0.00000000000E+00 -0.45912683460E+03  0.45912683460E+03  0.00000000000E+00 0.  1.
         23    2    1    2    0    0 -0.49077289772E+02 -0.65354797634E+02  0.35651267543E+03  0.37740755177E+03  0.93034092914E+02 0.  0.
        254    2    1    2    0    0  0.49077289772E+02  0.65354797634E+02  0.79049121476E+01  0.90526370501E+03  0.90153206156E+03 0.  0.
         23    2    4    4    0    0  0.20756858185E+02 -0.40776662867E+03  0.44936078232E+02  0.42081266632E+03  0.91430729991E+02 0.  0.
         23    2    4    4    0    0  0.28320431587E+02  0.47312142631E+03 -0.37031166085E+02  0.48445103869E+03  0.93142743932E+02 0.  0.
         11    1    3    3    0    0 -0.42018725413E+02  0.11687891625E+02  0.92025562402E+02  0.10183753842E+03  0.00000000000E+00 0.  1.
        -11    1    3    3    0    0 -0.70585643589E+01 -0.77042689259E+02  0.26448711303E+03  0.27557001335E+03  0.00000000000E+00 0. -1.
          3    1    5    5  502    0 -0.49613984596E+01 -0.30689494743E+02  0.29014758377E+02  0.42524307942E+02  0.00000000000E+00 0. -1.
          3    1    6    6  503    0  0.21757620767E+02  0.39198932555E+03 -0.65901833804E+02  0.39808551482E+03  0.00000000000E+00 0. -1.
         -3    1    5    5    0  502  0.25718256644E+02 -0.37707713393E+03  0.15921319855E+02  0.37828835838E+03  0.00000000000E+00 0.  1.
         -3    1    6    6    0  503  0.65628108207E+01  0.81132100755E+02  0.28870667720E+02  0.86365523870E+02  0.00000000000E+00 0.  1.
<mgrwt>
<rscale>  0 0.12298152E+04</rscale>
<asrwt>0</asrwt>
<pdfrwt beam="1">  1        1 0.70634898E-01 0.12298152E+04</pdfrwt>
<pdfrwt beam="2">  1       -1 0.12669914E+00 0.12298152E+04</pdfrwt>
<totfact> 0.26633165E+01</totfact>
</mgrwt>
</event>
<event>
12    1  0.4820219E-008  0.2522500E+04  0.7818608E-02  0.8395014E-01
         -2   -1    0    0    0  501 -0.00000000000E+00  0.00000000000E+00  0.13187300404E+04  0.13187300404E+04  0.00000000000E+00 0.  1.
          2   -1    0    0  501    0  0.00000000000E+00 -0.00000000000E+00 -0.12062749135E+04  0.12062749135E+04  0.00000000000E+00 0. -1.
         23    2    1    2    0    0 -0.15435986126E+03  0.47418583543E+03 -0.93582570539E+03  0.10645243297E+04  0.93611560482E+02 0.  0.
        254    2    1    2    0    0  0.15435986126E+03 -0.47418583543E+03  0.10482808323E+04  0.14604806243E+04  0.88624588982E+03 0.  0.
         23    2    4    4    0    0 -0.22029759083E+02 -0.34598393371E+03  0.11507806032E+04  0.12053000682E+04  0.90895900978E+02 0.  0.
         23    2    4    4    0    0  0.17638962034E+03 -0.12820190172E+03 -0.10249977095E+03  0.25518055612E+03  0.84035036783E+02 0.  0.
         13    1    3    3    0    0 -0.45114425306E+02  0.23340370798E+03 -0.51988227439E+03  0.57165564940E+03  0.00000000000E+00 0. -1.
        -13    1    3    3    0    0 -0.10924543596E+03  0.24078212744E+03 -0.41594343100E+03  0.49286868025E+03  0.00000000000E+00 0.  1.
          2    1    5    5  502    0  0.17349929446E+02 -0.14929847167E+02  0.47132954631E+02  0.52396906401E+02  0.00000000000E+00 0. -1.
          1    1    6    6  503    0  0.12431096485E+02 -0.43067648039E+02 -0.40211274191E+02  0.60218776469E+02  0.00000000000E+00 0. -1.
         -2    1    5    5    0  502 -0.39379688529E+02 -0.33105408654E+03  0.11036476486E+04  0.11529031617E+04  0.00000000000E+00 0.  1.
         -1    1    6    6    0  503  0.16395852386E+03 -0.85134253680E+02 -0.62288496756E+02  0.19496177965E+03  0.00000000000E+00 0.  1.
<mgrwt>
<rscale>  0 0.25224995E+04</rscale>
<asrwt>0</asrwt>
<pdfrwt beam="1">  1        2 0.18558076E+00 0.25224995E+04</pdfrwt>
<pdfrwt beam="2">  1       -2 0.20288154E+00 0.25224995E+04</pdfrwt>
<totfact> 0.21286877E+00</totfact>
</mgrwt>
</event>
<event>
12    1  0.4820219E-008  0.2230038E+04  0.7818608E-02  0.8506029E-01
         -1   -1    0    0    0  501 -0.00000000000E+00  0.00000000000E+00  0.13574060759E+04  0.13574060759E+04  0.00000000000E+00 0.  1.
          1   -1    0    0  501    0  0.00000000000E+00 -0.00000000000E+00 -0.91591389896E+03  0.91591389896E+03  0.00000000000E+00 0. -1.
         23    2    1    2    0    0  0.25475577492E+03  0.87532829348E+02 -0.72195708410E+03  0.77623136803E+03  0.93544665071E+02 0.  0.
        254    2    1    2    0    0 -0.25475577492E+03 -0.87532829348E+02  0.11634492610E+04  0.14970886068E+04  0.90282756527E+03 0.  0.
         23    2    4    4    0    0 -0.51194138819E+02  0.27362032650E+03  0.39892420657E+02  0.29627374485E+03  0.93262016579E+02 0.  0.
         23    2    4    4    0    0 -0.20356163610E+03 -0.36115315585E+03  0.11235568404E+04  0.12008148620E+04  0.87791898889E+02 0.  0.
         11    1    3    3    0    0  0.60905424173E+02  0.66445069331E+02 -0.22347059714E+03  0.24096374357E+03  0.00000000000E+00 0. -1.
        -11    1    3    3    0    0  0.19385035074E+03  0.21087760017E+02 -0.49848648696E+03  0.53526762445E+03  0.00000000000E+00 0.  1.
          4    1    5    5  502    0  0.25916468454E+02  0.60072819992E+02 -0.17264274564E+01  0.65447594232E+02  0.00000000000E+00 0. -1.
          3    1    6    6  503    0 -0.19138888865E+02 -0.90880991069E+02  0.18795472748E+03  0.20964882825E+03  0.00000000000E+00 0. -1.
         -4    1    5    5    0  502 -0.77110607273E+02  0.21354750651E+03  0.41618848113E+02  0.23082615062E+03  0.00000000000E+00 0.  1.
         -3    1    6    6    0  503 -0.18442274723E+03 -0.27027216478E+03  0.93560211288E+03  0.99116603371E+03  0.00000000000E+00 0.  1.
<mgrwt>
<rscale>  0 0.22300377E+04</rscale>
<asrwt>0</asrwt>
<pdfrwt beam="1">  1        1 0.14090983E+00 0.22300377E+04</pdfrwt>
<pdfrwt beam="2">  1       -1 0.20883170E+00 0.22300377E+04</pdfrwt>
<totfact> 0.21024117E+00</totfact>
</mgrwt>
</event>
<event>
12    1  0.4820219E-008  0.1784611E+04  0.7818608E-02  0.8714526E-01
         -1   -1    0    0    0  501 -0.00000000000E+00  0.00000000000E+00  0.39621642092E+03  0.39621642092E+03  0.00000000000E+00 0.  1.
          1   -1    0    0  501    0  0.00000000000E+00 -0.00000000000E+00 -0.20095304456E+04  0.20095304456E+04  0.00000000000E+00 0. -1.
         23    2    1    2    0    0  0.48848085005E+02  0.58673941691E+03 -0.17404991199E+03  0.62585354527E+03  0.12144961709E+03 0.  0.
        254    2    1    2    0    0 -0.48848085005E+02 -0.58673941691E+03 -0.14392641127E+04  0.17798933213E+04  0.86596176025E+03 0.  0.
         23    2    4    4    0    0  0.23784989450E+03 -0.58957076511E+03 -0.56539223976E+03  0.85565768139E+03  0.91188944285E+02 0.  0.
         23    2    4    4    0    0 -0.28669797951E+03  0.28313481989E+01 -0.87387187295E+03  0.92423563988E+03  0.91409625919E+02 0.  0.
         13    1    3    3    0    0 -0.98830477087E+01  0.16751285765E+02  0.12647083030E+02  0.23199761119E+02  0.00000000000E+00 0. -1.
        -13    1    3    3    0    0  0.58731132714E+02  0.56998813115E+03 -0.18669699502E+03  0.60265378415E+03  0.00000000000E+00 0.  1.
          1    1    5    5  502    0  0.24215520441E+03 -0.58955749192E+03 -0.55799293080E+03  0.84709697799E+03  0.00000000000E+00 0. -1.
          3    1    6    6  503    0 -0.16995124222E+03 -0.43006855454E+02 -0.52591468866E+03  0.55436384631E+03  0.00000000000E+00 0. -1.
         -1    1    5    5    0  502 -0.43053099116E+01 -0.13273191029E-01 -0.73993089628E+01  0.85607034021E+01  0.00000000000E+00 0.  1.
         -3    1    6    6    0  503 -0.11674673729E+03  0.45838203653E+02 -0.34795718428E+03  0.36987179357E+03  0.00000000000E+00 0.  1.
<mgrwt>
<rscale>  0 0.17846108E+04</rscale>
<asrwt>0</asrwt>
<pdfrwt beam="1">  1        1 0.30915853E+00 0.17846108E+04</pdfrwt>
<pdfrwt beam="2">  1       -1 0.60956372E-01 0.17846108E+04</pdfrwt>
<totfact> 0.75725726E+00</totfact>
</mgrwt>
</event>
<event>
12    1  0.4820219E-008  0.1689246E+04  0.7818608E-02  0.8767522E-01
          1   -1    0    0  501    0  0.00000000000E+00  0.00000000000E+00  0.21654313006E+04  0.21654313006E+04  0.00000000000E+00 0. -1.
         -1   -1    0    0    0  501 -0.00000000000E+00 -0.00000000000E+00 -0.32944389270E+03  0.32944389270E+03  0.00000000000E+00 0.  1.
         23    2    1    2    0    0  0.30937820841E+03 -0.48917101325E+03  0.80719484901E+03  0.99746092475E+03  0.91441872752E+02 0.  0.
        254    2    1    2    0    0 -0.30937820841E+03  0.48917101325E+03  0.10287925589E+04  0.14974142686E+04  0.92132090306E+03 0.  0.
         23    2    4    4    0    0 -0.18818868600E+03  0.25520616092E+03  0.11458102575E+04  0.11923945126E+04  0.91533389342E+02 0.  0.
         23    2    4    4    0    0 -0.12118952241E+03  0.23396485232E+03 -0.11701769861E+03  0.30501975597E+03  0.99586431191E+02 0.  0.
         11    1    3    3    0    0  0.22965127117E+03 -0.33640884635E+03  0.63071612003E+03  0.75080852574E+03  0.00000000000E+00 0.  1.
        -11    1    3    3    0    0  0.79726937240E+02 -0.15276216689E+03  0.17647872898E+03  0.24665239901E+03  0.00000000000E+00 0. -1.
          2    1    5    5  502    0 -0.17075959003E+03  0.23672910180E+03  0.11144350615E+04  0.11520264804E+04  0.00000000000E+00 0. -1.
          1    1    6    6  503    0 -0.73408089566E+02  0.21920652436E+03 -0.89114652486E+02  0.24775324261E+03  0.00000000000E+00 0. -1.
         -2    1    5    5    0  502 -0.17429095962E+02  0.18477059120E+02  0.31375196004E+02  0.40368032205E+02  0.00000000000E+00 0.  1.
         -1    1    6    6    0  503 -0.47781432848E+02  0.14758327963E+02 -0.27903046120E+02  0.57266513357E+02  0.00000000000E+00 0.  1.
<mgrwt>
<rscale>  0 0.16892461E+04</rscale>
<asrwt>0</asrwt>
<pdfrwt beam="1">  1        1 0.33314327E+00 0.16892461E+04</pdfrwt>
<pdfrwt beam="2">  1       -1 0.50683677E-01 0.16892461E+04</pdfrwt>
<totfact> 0.85733106E+00</totfact>
</mgrwt>
</event>
<event>
12    1  0.4820219E-008  0.1345764E+04  0.7818608E-02  0.8994041E-01
          3   -1    0    0  501    0  0.00000000000E+00  0.00000000000E+00  0.18339927810E+03  0.18339927810E+03  0.00000000000E+00 0. -1.
         -3   -1    0    0    0  501 -0.00000000000E+00 -0.00000000000E+00 -0.24687693782E+04  0.24687693782E+04  0.00000000000E+00 0.  1.
         23    2    1    2    0    0 -0.17890985270E+03  0.25902061083E+03 -0.99608434255E+03  0.10482334285E+04  0.86653857056E+02 0.  0.
        254    2    1    2    0    0  0.17890985270E+03 -0.25902061083E+03 -0.12892857575E+04  0.16039352278E+04  0.90069419786E+03 0.  0.
         23    2    4    4    0    0  0.42618349497E+03 -0.41792563270E+03 -0.61054990418E+03  0.85867743536E+03  0.90893050628E+02 0.  0.
         23    2    4    4    0    0 -0.24727364227E+03  0.15890502187E+03 -0.67873585335E+03  0.74525779240E+03  0.91278466068E+02 0.  0.
         11    1    3    3    0    0  0.13573017652E+01  0.75297191969E+00  0.14708747295E+01  0.21383889411E+01  0.00000000000E+00 0. -1.
        -11    1    3    3    0    0 -0.18026715447E+03  0.25826763891E+03 -0.99755521728E+03  0.10460950396E+04  0.00000000000E+00 0.  1.
          4    1    5    5  502    0  0.36324497854E+03 -0.36799779528E+03 -0.56671101946E+03  0.76715752707E+03  0.00000000000E+00 0. -1.
          1    1    6    6  503    0 -0.19078556804E+03  0.12756948294E+03 -0.42038736603E+03  0.47895578446E+03  0.00000000000E+00 0. -1.
         -4    1    5    5    0  502  0.62938516429E+02 -0.49927837426E+02 -0.43838884720E+02  0.91519908292E+02  0.00000000000E+00 0.  1.
         -1    1    6    6    0  503 -0.56488074230E+02  0.31335538933E+02 -0.25834848733E+03  0.26630200794E+03  0.00000000000E+00 0.  1.
<mgrwt>
<rscale>  0 0.13457645E+04</rscale>
<asrwt>0</asrwt>
<pdfrwt beam="1">  1        3 0.28215273E-01 0.13457645E+04</pdfrwt>
<pdfrwt beam="2">  1       -3 0.37981069E+00 0.13457645E+04</pdfrwt>
<totfact> 0.43230627E-01</totfact>
</mgrwt>
</event>
<event>
12    1  0.4820219E-008  0.1870340E+04  0.7818608E-02  0.8669763E-01
          2   -1    0    0  501    0  0.00000000000E+00  0.00000000000E+00  0.13067592293E+04  0.13067592293E+04  0.00000000000E+00 0.  1.
         -2   -1    0    0    0  501 -0.00000000000E+00 -0.00000000000E+00 -0.66924556793E+03  0.66924556793E+03  0.00000000000E+00 0. -1.
         23    2    1    2    0    0 -0.27334195909E+03 -0.21286371914E+03  0.90943345099E+03  0.97752316583E+03  0.91954056149E+02 0.  0.
        254    2    1    2    0    0  0.27334195909E+03  0.21286371914E+03 -0.27191978960E+03  0.99848163142E+03  0.89610178372E+03 0.  0.
         23    2    4    4    0    0 -0.29495657842E+03 -0.23710602885E+02  0.20722977031E+02  0.31068595658E+03  0.92383689037E+02 0.  0.
         23    2    4    4    0    0  0.56829853751E+03  0.23657432202E+03 -0.29264276663E+03  0.68779567484E+03  0.92154565222E+02 0.  0.
         13    1    3    3    0    0 -0.19366411294E+02 -0.51122377218E+02  0.10116359371E+03  0.11498968663E+03  0.00000000000E+00 0. -1.
        -13    1    3    3    0    0 -0.25397554780E+03 -0.16174134192E+03  0.80826985728E+03  0.86253347921E+03  0.00000000000E+00 0.  1.
          1    1    5    5  502    0 -0.27466703459E+02 -0.23653987079E+02 -0.17891603648E+02  0.40423265389E+02  0.00000000000E+00 0. -1.
          3    1    6    6  503    0  0.26869383446E+02  0.34986995138E+02 -0.13355828026E+02  0.46091558205E+02  0.00000000000E+00 0. -1.
         -1    1    5    5    0  502 -0.26748987496E+03 -0.56615806413E-01  0.38614580679E+02  0.27026269119E+03  0.00000000000E+00 0.  1.
         -3    1    6    6    0  503  0.54142915406E+03  0.20158732688E+03 -0.27928693861E+03  0.64170411663E+03  0.00000000000E+00 0.  1.
<mgrwt>
<rscale>  0 0.18703399E+04</rscale>
<asrwt>0</asrwt>
<pdfrwt beam="1">  1        2 0.20103988E+00 0.18703399E+04</pdfrwt>
<pdfrwt beam="2">  1       -2 0.10296086E+00 0.18703399E+04</pdfrwt>
<totfact> 0.11851243E+01</totfact>
</mgrwt>
</event>
<event>
12    1  0.4820219E-008  0.2369474E+04  0.7818608E-02  0.8451021E-01
         -2   -1    0    0    0  501 -0.00000000000E+00  0.00000000000E+00  0.97337545703E+03  0.97337545703E+03  0.00000000000E+00 0.  1.
          2   -1    0    0  501    0  0.00000000000E+00 -0.00000000000E+00 -0.14419938479E+04  0.14419938479E+04  0.00000000000E+00 0. -1.
         23    2    1    2    0    0  0.41193541553E+01  0.99680331701E+03 -0.38054804606E+03  0.10708343608E+04  0.90750157304E+02 0.  0.
        254    2    1    2    0    0 -0.41193541553E+01 -0.99680331701E+03 -0.88070344763E+02  0.13445349441E+04  0.89798886871E+03 0.  0.
         23    2    4    4    0    0 -0.10879404540E+03 -0.54836751999E+03 -0.47260624091E+03  0.73760275363E+03  0.90322100993E+02 0.  0.
         23    2    4    4    0    0  0.10467469125E+03 -0.44843579703E+03  0.38453589614E+03  0.60693219045E+03  0.91909593265E+02 0.  0.
         11    1    3    3    0    0  0.15145182611E+02  0.38505105097E+03 -0.19238258575E+03  0.43070262097E+03  0.00000000000E+00 0.  1.
        -11    1    3    3    0    0 -0.11025828456E+02  0.61175226604E+03 -0.18816546031E+03  0.64013173985E+03  0.00000000000E+00 0. -1.
          1    1    5    5  502    0 -0.75755573201E+02 -0.45058048125E+03 -0.33982993145E+03  0.56942607884E+03  0.00000000000E+00 0. -1.
          3    1    6    6  503    0  0.30479438082E+02 -0.14665974864E+03  0.18322099444E+03  0.23666011667E+03  0.00000000000E+00 0. -1.
         -1    1    5    5    0  502 -0.33038472202E+02 -0.97787038739E+02 -0.13277630946E+03  0.16817667479E+03  0.00000000000E+00 0.  1.
         -3    1    6    6    0  503  0.74195253165E+02 -0.30177604839E+03  0.20131490170E+03  0.37027207378E+03  0.00000000000E+00 0.  1.
<mgrwt>
<rscale>  0 0.23694737E+04</rscale>
<asrwt>0</asrwt>
<pdfrwt beam="1">  1        2 0.22184521E+00 0.23694737E+04</pdfrwt>
<pdfrwt beam="2">  1       -2 0.14975007E+00 0.23694737E+04</pdfrwt>
<totfact> 0.37155021E+00</totfact>
</mgrwt>
</event>
<event>
12    1  0.4820219E-008  0.1832549E+04  0.7818608E-02  0.8689179E-01
         -2   -1    0    0    0  501 -0.00000000000E+00  0.00000000000E+00  0.38102247280E+03  0.38102247280E+03  0.00000000000E+00 0.  1.
          2   -1    0    0  501    0  0.00000000000E+00 -0.00000000000E+00 -0.22034367403E+04  0.22034367403E+04  0.00000000000E+00 0. -1.
         23    2    1    2    0    0  0.64545142099E+03 -0.21302213260E+03 -0.84033549352E+03  0.10848074646E+04  0.93045836428E+02 0.  0.
        254    2    1    2    0    0 -0.64545142099E+03  0.21302213260E+03 -0.98207877402E+03  0.14996517486E+04  0.90691272061E+03 0.  0.
         23    2    4    4    0    0  0.98818631585E+02  0.23312823068E+03 -0.59781613598E+03  0.65690694075E+03  0.10014340955E+03 0.  0.
         23    2    4    4    0    0 -0.74427005257E+03 -0.20106098086E+02 -0.38426263804E+03  0.84274480783E+03  0.90657982529E+02 0.  0.
         13    1    3    3    0    0  0.63881855806E+02 -0.36272922726E+02 -0.55239370436E+02  0.91913026664E+02  0.00000000000E+00 0.  1.
        -13    1    3    3    0    0  0.58156956518E+03 -0.17674920987E+03 -0.78509612308E+03  0.99289443790E+03  0.00000000000E+00 0. -1.
          4    1    5    5  502    0  0.11035725176E+03  0.21001913885E+03 -0.46975162361E+03  0.52626357425E+03  0.00000000000E+00 0. -1.
          1    1    6    6  503    0 -0.57799467653E+03 -0.33075853678E+02 -0.33483284071E+03  0.66879360749E+03  0.00000000000E+00 0. -1.
         -4    1    5    5    0  502 -0.11538620178E+02  0.23109091829E+02 -0.12806451237E+03  0.13064336650E+03  0.00000000000E+00 0.  1.
         -1    1    6    6    0  503 -0.16627537604E+03  0.12969755593E+02 -0.49429797331E+02  0.17395120035E+03  0.00000000000E+00 0.  1.
<mgrwt>
<rscale>  0 0.18325490E+04</rscale>
<asrwt>0</asrwt>
<pdfrwt beam="1">  1        2 0.33899027E+00 0.18325490E+04</pdfrwt>
<pdfrwt beam="2">  1       -2 0.58618841E-01 0.18325490E+04</pdfrwt>
<totfact> 0.13172383E+01</totfact>
</mgrwt>
</event>
<event>
12    1  0.4820219E-008  0.1367342E+04  0.7818608E-02  0.8977803E-01
         -2   -1    0    0    0  501 -0.00000000000E+00  0.00000000000E+00  0.80934059064E+03  0.80934059064E+03  0.00000000000E+00 0.  1.
          2   -1    0    0  501    0  0.00000000000E+00 -0.00000000000E+00 -0.57751494069E+03  0.57751494069E+03  0.00000000000E+00 0. -1.
         23    2    1    2    0    0 -0.55947259995E+02 -0.34120849765E+03 -0.95646992029E+02  0.37013568012E+03  0.91097419507E+02 0.  0.
        254    2    1    2    0    0  0.55947259995E+02  0.34120849765E+03  0.32747264197E+03  0.10167198512E+04  0.89829148378E+03 0.  0.
         23    2    4    4    0    0  0.69421243463E+02 -0.25188415966E+03 -0.83883378469E+02  0.28896758461E+03  0.90558847399E+02 0.  0.
         23    2    4    4    0    0 -0.13473983468E+02  0.59309265731E+03  0.41135602044E+03  0.72775226660E+03  0.92027917552E+02 0.  0.
         13    1    3    3    0    0 -0.68810895195E+02 -0.30476411219E+03 -0.10633814197E+03  0.33003621591E+03  0.00000000000E+00 0. -1.
        -13    1    3    3    0    0  0.12863635200E+02 -0.36444385466E+02  0.10691149944E+02  0.40099464207E+02  0.00000000000E+00 0.  1.
          1    1    5    5  502    0  0.66203211511E+02 -0.96188546157E+02 -0.60439429903E+02  0.13148393937E+03  0.00000000000E+00 0. -1.
          3    1    6    6  503    0 -0.19681667476E+02  0.25519309931E+03  0.23051502615E+03  0.34445328167E+03  0.00000000000E+00 0. -1.
         -1    1    5    5    0  502  0.32180319518E+01 -0.15569561350E+03 -0.23443948566E+02  0.15748364524E+03  0.00000000000E+00 0.  1.
         -3    1    6    6    0  503  0.62076840078E+01  0.33789955800E+03  0.18084099429E+03  0.38329898494E+03  0.00000000000E+00 0.  1.
<mgrwt>
<rscale>  0 0.13673424E+04</rscale>
<asrwt>0</asrwt>
<pdfrwt beam="1">  1        2 0.88848453E-01 0.13673424E+04</pdfrwt>
<pdfrwt beam="2">  1       -2 0.12451394E+00 0.13673424E+04</pdfrwt>
<totfact> 0.24524674E+01</totfact>
</mgrwt>
</event>
<event>
12    1  0.4820219E-008  0.1997930E+04  0.7818608E-02  0.8607589E-01
          2   -1    0    0  501    0  0.00000000000E+00  0.00000000000E+00  0.14091072593E+04  0.14091072593E+04  0.00000000000E+00 0. -1.
         -2   -1    0    0    0  501 -0.00000000000E+00 -0.00000000000E+00 -0.70820073821E+03  0.70820073821E+03  0.00000000000E+00 0.  1.
         23    2    1    2    0    0 -0.31145386045E+03  0.62091680628E+03 -0.12310746825E+03  0.71254044064E+03  0.10008617939E+03 0.  0.
        254    2    1    2    0    0  0.31145386045E+03 -0.62091680628E+03  0.82401398935E+03  0.14047675569E+04  0.90101700691E+03 0.  0.
         23    2    4    4    0    0 -0.29241297568E+02  0.15935816025E+03  0.41664452337E+03  0.45660589358E+03  0.92984979827E+02 0.  0.
         23    2    4    4    0    0  0.34069515802E+03 -0.78027496653E+03  0.40736946597E+03  0.94816166331E+03  0.90324104598E+02 0.  0.
         13    1    3    3    0    0 -0.11749237010E+03  0.31458782223E+03 -0.24009604638E+02  0.33666959477E+03  0.00000000000E+00 0. -1.
        -13    1    3    3    0    0 -0.19396149035E+03  0.30632898405E+03 -0.99097863608E+02  0.37587084587E+03  0.00000000000E+00 0.  1.
          1    1    5    5  502    0 -0.23118824207E+02  0.13280640265E+03  0.40522914080E+03  0.42706284921E+03  0.00000000000E+00 0. -1.
          1    1    6    6  503    0  0.22679341121E+03 -0.44091456914E+03  0.27140468211E+03  0.56524455780E+03  0.00000000000E+00 0. -1.
         -1    1    5    5    0  502 -0.61224733611E+01  0.26551757598E+02  0.11415382573E+02  0.29543044375E+02  0.00000000000E+00 0.  1.
         -1    1    6    6    0  503  0.11390174681E+03 -0.33936039738E+03  0.13596478386E+03  0.38291710550E+03  0.00000000000E+00 0.  1.
<mgrwt>
<rscale>  0 0.19979297E+04</rscale>
<asrwt>0</asrwt>
<pdfrwt beam="1">  1        2 0.21678573E+00 0.19979297E+04</pdfrwt>
<pdfrwt beam="2">  1       -2 0.10895396E+00 0.19979297E+04</pdfrwt>
<totfact> 0.89348242E+00</totfact>
</mgrwt>
</event>
<event>
12    1  0.4820219E-008  0.1524832E+04  0.7818608E-02  0.8868106E-01
         -2   -1    0    0    0  501 -0.00000000000E+00  0.00000000000E+00  0.35220127427E+03  0.35220127427E+03  0.00000000000E+00 0.  1.
          2   -1    0    0  501    0  0.00000000000E+00 -0.00000000000E+00 -0.16504155437E+04  0.16504155437E+04  0.00000000000E+00 0. -1.
         23    2    1    2    0    0 -0.45634162176E+02 -0.14086550969E+03  0.18790267165E+03  0.25424397396E+03  0.86064020966E+02 0.  0.
        254    2    1    2    0    0  0.45634162176E+02  0.14086550969E+03 -0.14861169411E+04  0.17483728440E+04  0.90903161140E+03 0.  0.
         23    2    4    4    0    0 -0.35907279544E+03  0.29177670667E+03 -0.64954013263E+03  0.80248832573E+03  0.89544458509E+02 0.  0.
         23    2    4    4    0    0  0.40470695761E+03 -0.15091119698E+03 -0.83657680846E+03  0.94588451829E+03  0.90966227671E+02 0.  0.
         13    1    3    3    0    0 -0.15321577906E+02 -0.15907210715E+02 -0.47802790241E+01  0.22597370861E+02  0.00000000000E+00 0. -1.
        -13    1    3    3    0    0 -0.30312584269E+02 -0.12495829898E+03  0.19268295067E+03  0.23164660310E+03  0.00000000000E+00 0.  1.
          2    1    5    5  502    0 -0.25986988563E+03  0.25333895252E+03 -0.53139486878E+03  0.64350096262E+03  0.00000000000E+00 0. -1.
          1    1    6    6  503    0  0.34115166686E+03 -0.14563143165E+03 -0.76387670911E+03  0.84917642478E+03  0.00000000000E+00 0. -1.
         -2    1    5    5    0  502 -0.99202909806E+02  0.38437754148E+02 -0.11814526385E+03  0.15898736311E+03  0.00000000000E+00 0.  1.
         -1    1    6    6    0  503  0.63555290752E+02 -0.52797653264E+01 -0.72700099350E+02  0.96708093508E+02  0.00000000000E+00 0.  1.
<mgrwt>
<rscale>  0 0.15248324E+04</rscale>
<asrwt>0</asrwt>
<pdfrwt beam="1">  1        2 0.25391008E+00 0.15248324E+04</pdfrwt>
<pdfrwt beam="2">  1       -2 0.54184812E-01 0.15248324E+04</pdfrwt>
<totfact> 0.32318810E+01</totfact>
</mgrwt>
</event>
<event>
12    1  0.4820219E-008  0.3096681E+04  0.7818608E-02  0.8216649E-01
         -2   -1    0    0    0  501 -0.00000000000E+00  0.00000000000E+00  0.72269671128E+03  0.72269671128E+03  0.00000000000E+00 0.  1.
          2   -1    0    0  501    0  0.00000000000E+00 -0.00000000000E+00 -0.33172396608E+04  0.33172396608E+04  0.00000000000E+00 0. -1.
         23    2    1    2    0    0 -0.66308766644E+03 -0.51756418894E+03  0.29936325552E+03  0.89736271104E+03  0.89908472157E+02 0.  0.
        254    2    1    2    0    0  0.66308766644E+03  0.51756418894E+03 -0.28939062050E+04  0.31425736610E+04  0.89079635633E+03 0.  0.
         23    2    4    4    0    0  0.20085399059E+03  0.46031890920E+03 -0.54755860738E+03  0.74838849817E+03  0.89605200637E+02 0.  0.
         23    2    4    4    0    0  0.46223367585E+03  0.57245279737E+02 -0.23463475976E+04  0.23941851629E+04  0.99189474818E+02 0.  0.
         13    1    3    3    0    0 -0.63168555091E+03 -0.49815352864E+03  0.26519640597E+03  0.84706121801E+03  0.00000000000E+00 0.  1.
        -13    1    3    3    0    0 -0.31402115529E+02 -0.19410660296E+02  0.34166849552E+02  0.50301493031E+02  0.00000000000E+00 0. -1.
          1    1    5    5  502    0  0.75613008230E+02  0.28353062457E+03 -0.30899507600E+03  0.42612779665E+03  0.00000000000E+00 0. -1.
          1    1    6    6  503    0  0.40697214616E+03  0.35630000236E+02 -0.21700425300E+04  0.22081622239E+04  0.00000000000E+00 0. -1.
         -1    1    5    5    0  502  0.12524098236E+03  0.17678828463E+03 -0.23856353138E+03  0.32226070153E+03  0.00000000000E+00 0.  1.
         -1    1    6    6    0  503  0.55261529689E+02  0.21615279501E+02 -0.17630506760E+03  0.18602293899E+03  0.00000000000E+00 0.  1.
<mgrwt>
<rscale>  0 0.30966809E+04</rscale>
<asrwt>0</asrwt>
<pdfrwt beam="1">  1        2 0.51034456E+00 0.30966809E+04</pdfrwt>
<pdfrwt beam="2">  1       -2 0.11118411E+00 0.30966809E+04</pdfrwt>
<totfact> 0.58913871E-01</totfact>
</mgrwt>
</event>
<event>
12    1  0.4820219E-008  0.1611611E+04  0.7818608E-02  0.8813447E-01
          2   -1    0    0  501    0  0.00000000000E+00  0.00000000000E+00  0.34643151464E+04  0.34643151464E+04  0.00000000000E+00 0. -1.
         -2   -1    0    0    0  501 -0.00000000000E+00 -0.00000000000E+00 -0.18743162420E+03  0.18743162420E+03  0.00000000000E+00 0.  1.
         23    2    1    2    0    0  0.26831502982E+03 -0.22445292878E+03  0.21025998345E+04  0.21339068688E+04  0.10129357557E+03 0.  0.
        254    2    1    2    0    0 -0.26831502982E+03  0.22445292878E+03  0.11742836877E+04  0.15178399017E+04  0.89583688005E+03 0.  0.
         23    2    4    4    0    0  0.24646722973E+03  0.27994009687E+03  0.74766678156E+03  0.84057300905E+03  0.91895669787E+02 0.  0.
         23    2    4    4    0    0 -0.51478225955E+03 -0.55487168086E+02  0.42661690612E+03  0.67726689268E+03  0.92783935917E+02 0.  0.
         11    1    3    3    0    0  0.10785784496E+01 -0.13912161435E+01 -0.77432486174E+00  0.19231205946E+01  0.00000000000E+00 0.  1.
        -11    1    3    3    0    0  0.26723645137E+03 -0.22306171264E+03  0.21033741593E+04  0.21319837482E+04  0.00000000000E+00 0. -1.
          1    1    5    5  502    0  0.98232401932E+02  0.13896981582E+03  0.24922397821E+03  0.30178602653E+03  0.00000000000E+00 0. -1.
          3    1    6    6  503    0 -0.35264263649E+02 -0.47755328186E+01  0.66566667930E+02  0.75481754641E+02  0.00000000000E+00 0. -1.
         -1    1    5    5    0  502  0.14823482780E+03  0.14097028105E+03  0.49844280335E+03  0.53878698251E+03  0.00000000000E+00 0.  1.
         -3    1    6    6    0  503 -0.47951799590E+03 -0.50711635267E+02  0.36005023819E+03  0.60178513804E+03  0.00000000000E+00 0.  1.
<mgrwt>
<rscale>  0 0.16116106E+04</rscale>
<asrwt>0</asrwt>
<pdfrwt beam="1">  1        2 0.53297151E+00 0.16116106E+04</pdfrwt>
<pdfrwt beam="2">  1       -2 0.28835637E-01 0.16116106E+04</pdfrwt>
<totfact> 0.92076382E+00</totfact>
</mgrwt>
</event>
<event>
12    1  0.4820219E-008  0.1409723E+04  0.7818608E-02  0.8946811E-01
         -2   -1    0    0    0  501 -0.00000000000E+00  0.00000000000E+00  0.92944466101E+03  0.92944466101E+03  0.00000000000E+00 0.  1.
          2   -1    0    0  501    0  0.00000000000E+00 -0.00000000000E+00 -0.53454451069E+03  0.53454451069E+03  0.00000000000E+00 0. -1.
         23    2    1    2    0    0 -0.68476067910E+02 -0.35885656466E+02  0.53198541078E+03  0.54559729315E+03  0.93226481210E+02 0.  0.
        254    2    1    2    0    0  0.68476067910E+02  0.35885656466E+02 -0.13708526046E+03  0.91839187855E+03  0.90480634488E+03 0.  0.
         23    2    4    4    0    0 -0.12771259081E+03 -0.12252195929E+03 -0.45820667613E+03  0.49948650737E+03  0.90616094818E+02 0.  0.
         23    2    4    4    0    0  0.19618865872E+03  0.15840761575E+03  0.32112141567E+03  0.41890537118E+03  0.93700500840E+02 0.  0.
         13    1    3    3    0    0 -0.42757904112E+02 -0.20635723839E+02  0.83015309813E+02  0.95632699040E+02  0.00000000000E+00 0. -1.
        -13    1    3    3    0    0 -0.25718163797E+02 -0.15249932628E+02  0.44897010097E+03  0.44996459411E+03  0.00000000000E+00 0.  1.
          2    1    6    6  502    0  0.51847669862E+02  0.89506986949E+02  0.16918557670E+03  0.19830138917E+03  0.00000000000E+00 0. -1.
          2    1    5    5  503    0 -0.93007725746E+02 -0.13268438893E+03 -0.35827664558E+03  0.39321462191E+03  0.00000000000E+00 0.  1.
         -2    1    5    5    0  503 -0.34704865060E+02  0.10162429639E+02 -0.99930030546E+02  0.10627188546E+03  0.00000000000E+00 0. -1.
         -2    1    6    6    0  502  0.14434098885E+03  0.68900628803E+02  0.15193583898E+03  0.22060398201E+03  0.00000000000E+00 0.  1.
<mgrwt>
<rscale>  0 0.14097227E+04</rscale>
<asrwt>0</asrwt>
<pdfrwt beam="1">  1        2 0.82237617E-01 0.14097227E+04</pdfrwt>
<pdfrwt beam="2">  1       -2 0.14299149E+00 0.14097227E+04</pdfrwt>
<totfact> 0.18809656E+01</totfact>
</mgrwt>
</event>
<event>
12    1  0.4820219E-008  0.1274449E+04  0.7818608E-02  0.9050076E-01
          1   -1    0    0  501    0  0.00000000000E+00  0.00000000000E+00  0.15038556337E+04  0.15038556337E+04  0.00000000000E+00 0. -1.
         -1   -1    0    0    0  501 -0.00000000000E+00 -0.00000000000E+00 -0.27000933812E+03  0.27000933812E+03  0.00000000000E+00 0.  1.
         23    2    1    2    0    0 -0.19597402133E+03 -0.16706792329E+03  0.61592811360E+02  0.27971877118E+03  0.90174322903E+02 0.  0.
        254    2    1    2    0    0  0.19597402133E+03  0.16706792329E+03  0.11722534842E+04  0.14941462006E+04  0.88993096900E+03 0.  0.
         23    2    4    4    0    0  0.87301821195E+02  0.13300428397E+03 -0.10331767515E+03  0.21028048955E+03  0.90728136477E+02 0.  0.
         23    2    4    4    0    0  0.10867220013E+03  0.34063639319E+02  0.12755711593E+04  0.12838657111E+04  0.90881257206E+02 0.  0.
         13    1    3    3    0    0 -0.55525077822E+02 -0.76948237083E+02 -0.15064892646E+02  0.96078178832E+02  0.00000000000E+00 0. -1.
        -13    1    3    3    0    0 -0.14044894350E+03 -0.90119686205E+02  0.76657704007E+02  0.18364059234E+03  0.00000000000E+00 0.  1.
          2    1    5    5  502    0 -0.16408374979E+02  0.70530754409E+01 -0.20896251583E+02  0.27488797225E+02  0.00000000000E+00 0.  1.
          3    1    6    6  503    0  0.20120486406E+02 -0.25274212861E+02  0.49455818461E+03  0.49561216467E+03  0.00000000000E+00 0. -1.
         -2    1    5    5    0  502  0.10371019617E+03  0.12595120853E+03 -0.82421423563E+02  0.18279169232E+03  0.00000000000E+00 0. -1.
         -3    1    6    6    0  503  0.88551713724E+02  0.59337852180E+02  0.78101297473E+03  0.78825354639E+03  0.00000000000E+00 0.  1.
<mgrwt>
<rscale>  0 0.12744490E+04</rscale>
<asrwt>0</asrwt>
<pdfrwt beam="1">  1        1 0.23136240E+00 0.12744490E+04</pdfrwt>
<pdfrwt beam="2">  1       -1 0.41539899E-01 0.12744490E+04</pdfrwt>
<totfact> 0.36359298E+01</totfact>
</mgrwt>
</event>
<event>
12    1  0.4820219E-008  0.1919691E+04  0.7818608E-02  0.8645116E-01
         -2   -1    0    0    0  501 -0.00000000000E+00  0.00000000000E+00  0.33981972089E+03  0.33981972089E+03  0.00000000000E+00 0.  1.
          2   -1    0    0  501    0  0.00000000000E+00 -0.00000000000E+00 -0.27111540983E+04  0.27111540983E+04  0.00000000000E+00 0. -1.
         23    2    1    2    0    0  0.74966660300E+03  0.29372371697E+02 -0.93003043710E+03  0.11970801635E+04  0.71982998626E+02 0.  0.
        254    2    1    2    0    0 -0.74966660300E+03 -0.29372371697E+02 -0.14413039403E+04  0.18538936556E+04  0.89258158522E+03 0.  0.
         23    2    4    4    0    0 -0.27411313443E+03  0.39368775981E+03 -0.40435350494E+03  0.63375300012E+03  0.89515616104E+02 0.  0.
         23    2    4    4    0    0 -0.47555346857E+03 -0.42306013150E+03 -0.10369504353E+04  0.12201406555E+04  0.91356650254E+02 0.  0.
         11    1    3    3    0    0  0.10914436793E+03 -0.18352849493E+02 -0.11887516350E+03  0.16242113358E+03  0.00000000000E+00 0.  1.
        -11    1    3    3    0    0  0.64052223507E+03  0.47725221190E+02 -0.81115527360E+03  0.10346590299E+04  0.00000000000E+00 0. -1.
          4    1    5    5  502    0 -0.12193429193E+03  0.15275516622E+03 -0.22033899089E+03  0.29453587771E+03  0.00000000000E+00 0. -1.
          1    1    6    6  503    0 -0.15373690839E+03 -0.18710234941E+03 -0.34798603935E+03  0.42395354668E+03  0.00000000000E+00 0. -1.
         -4    1    5    5    0  502 -0.15217884250E+03  0.24093259359E+03 -0.18401451405E+03  0.33921712242E+03  0.00000000000E+00 0.  1.
         -1    1    6    6    0  503 -0.32181656018E+03 -0.23595778209E+03 -0.68896439597E+03  0.79618710882E+03  0.00000000000E+00 0.  1.
<mgrwt>
<rscale>  0 0.19196913E+04</rscale>
<asrwt>0</asrwt>
<pdfrwt beam="1">  1        2 0.41710064E+00 0.19196913E+04</pdfrwt>
<pdfrwt beam="2">  1       -2 0.52279956E-01 0.19196913E+04</pdfrwt>
<totfact> 0.84575593E+00</totfact>
</mgrwt>
</event>
<event>
12    1  0.4820219E-008  0.1311053E+04  0.7818608E-02  0.9020846E-01
          2   -1    0    0  501    0  0.00000000000E+00  0.00000000000E+00  0.14997329802E+04  0.14997329802E+04  0.00000000000E+00 0.  1.
         -2   -1    0    0    0  501 -0.00000000000E+00 -0.00000000000E+00 -0.28652746516E+03  0.28652746516E+03  0.00000000000E+00 0. -1.
         23    2    1    2    0    0  0.13302588480E+03  0.62417446115E+02  0.72699422251E+03  0.74722931152E+03  0.90770153820E+02 0.  0.
        254    2    1    2    0    0 -0.13302588480E+03 -0.62417446115E+02  0.48621129251E+03  0.10390311338E+04  0.90641737211E+03 0.  0.
         23    2    4    4    0    0  0.14569202786E+03 -0.30226439204E+03  0.55473636369E+03  0.65403166959E+03  0.86226805301E+02 0.  0.
         23    2    4    4    0    0 -0.27871791266E+03  0.23984694592E+03 -0.68525071185E+02  0.38499946422E+03  0.91206741871E+02 0.  0.
         13    1    3    3    0    0  0.73620401573E+02  0.30770064405E+02  0.58114922623E+03  0.58660138386E+03  0.00000000000E+00 0.  1.
        -13    1    3    3    0    0  0.59405483224E+02  0.31647381710E+02  0.14584499628E+03  0.16062792767E+03  0.00000000000E+00 0. -1.
          4    1    5    5  502    0  0.13547400281E+03 -0.22732212779E+03  0.37443638073E+03  0.45850971466E+03  0.00000000000E+00 0. -1.
          4    1    6    6  503    0 -0.56273912126E+02  0.76668106625E+02  0.16049722214E+02  0.96448666879E+02  0.00000000000E+00 0. -1.
         -4    1    5    5    0  502  0.10218025054E+02 -0.74942264248E+02  0.18029998296E+03  0.19552195493E+03  0.00000000000E+00 0.  1.
         -4    1    6    6    0  503 -0.22244400053E+03  0.16317883930E+03 -0.84574793399E+02  0.28855079734E+03  0.00000000000E+00 0.  1.
<mgrwt>
<rscale>  0 0.13110525E+04</rscale>
<asrwt>0</asrwt>
<pdfrwt beam="1">  1        2 0.23072815E+00 0.13110525E+04</pdfrwt>
<pdfrwt beam="2">  1       -2 0.44081150E-01 0.13110525E+04</pdfrwt>
<totfact> 0.60675734E+01</totfact>
</mgrwt>
</event>
<event>
12    1  0.4820219E-008  0.1795608E+04  0.7818608E-02  0.8708639E-01
         -1   -1    0    0    0  501 -0.00000000000E+00  0.00000000000E+00  0.16099414828E+04  0.16099414828E+04  0.00000000000E+00 0.  1.
          1   -1    0    0  501    0  0.00000000000E+00 -0.00000000000E+00 -0.50067165838E+03  0.50067165838E+03  0.00000000000E+00 0. -1.
         23    2    1    2    0    0 -0.42413805810E+02  0.34929235507E+03 -0.25317888501E+03  0.44281669419E+03  0.90459917125E+02 0.  0.
        254    2    1    2    0    0  0.42413805810E+02 -0.34929235507E+03  0.13624487094E+04  0.16677964470E+04  0.89525103881E+03 0.  0.
         23    2    4    4    0    0 -0.35802082202E+03  0.16469919622E+02  0.31667360074E+03  0.48629523511E+03  0.88038168026E+02 0.  0.
         23    2    4    4    0    0  0.40043462783E+03 -0.36576227469E+03  0.10457751087E+04  0.11815012119E+04  0.90385855858E+02 0.  0.
         13    1    3    3    0    0 -0.25459292716E+02  0.27808696127E+03 -0.24048324296E+03  0.36852777882E+03  0.00000000000E+00 0. -1.
        -13    1    3    3    0    0 -0.16954513094E+02  0.71205393801E+02 -0.12695642046E+02  0.74288915375E+02  0.00000000000E+00 0.  1.
          2    1    5    5  502    0 -0.14405356205E+02 -0.52306040334E+01  0.45551428485E+02  0.48060442601E+02  0.00000000000E+00 0. -1.
          4    1    6    6  503    0  0.13742054412E+03 -0.16777154630E+03  0.48414694817E+03  0.53049973149E+03  0.00000000000E+00 0. -1.
         -2    1    5    5    0  502 -0.34361546582E+03  0.21700523656E+02  0.27112217226E+03  0.43823479251E+03  0.00000000000E+00 0.  1.
         -4    1    6    6    0  503  0.26301408371E+03 -0.19799072840E+03  0.56162816051E+03  0.65100148037E+03  0.00000000000E+00 0.  1.
<mgrwt>
<rscale>  0 0.17956081E+04</rscale>
<asrwt>0</asrwt>
<pdfrwt beam="1">  1        1 0.77026410E-01 0.17956081E+04</pdfrwt>
<pdfrwt beam="2">  1       -1 0.24768330E+00 0.17956081E+04</pdfrwt>
<totfact> 0.30151908E+00</totfact>
</mgrwt>
</event>
<event>
12    1  0.4820219E-008  0.1050624E+04  0.7818608E-02  0.9254700E-01
          2   -1    0    0  501    0  0.00000000000E+00  0.00000000000E+00  0.45862243107E+03  0.45862243107E+03  0.00000000000E+00 0. -1.
         -2   -1    0    0    0  501 -0.00000000000E+00 -0.00000000000E+00 -0.60169917105E+03  0.60169917105E+03  0.00000000000E+00 0.  1.
         23    2    1    2    0    0  0.77854171760E+02  0.13589857255E+03  0.63407267186E+02  0.18961217368E+03  0.86038368164E+02 0.  0.
        254    2    1    2    0    0 -0.77854171760E+02 -0.13589857255E+03 -0.20648400716E+03  0.87070942844E+03  0.83124579366E+03 0.  0.
         23    2    4    4    0    0  0.68510148803E+02 -0.19427566053E+03 -0.48683944920E+03  0.53652035213E+03  0.91677511939E+02 0.  0.
         23    2    4    4    0    0 -0.14636432056E+03  0.58377087983E+02  0.28035544204E+03  0.33418907630E+03  0.90844736265E+02 0.  0.
         11    1    3    3    0    0  0.36030787659E+02  0.47923824176E+02  0.69771320360E+02  0.91994280951E+02  0.00000000000E+00 0. -1.
        -11    1    3    3    0    0  0.41823384101E+02  0.87974748373E+02 -0.63640531740E+01  0.97617892734E+02  0.00000000000E+00 0.  1.
          2    1    5    5  502    0  0.72486989249E+02 -0.15375967029E+03 -0.29556953153E+03  0.34096590414E+03  0.00000000000E+00 0. -1.
          3    1    6    6  503    0 -0.11183526519E+03  0.53835067140E+02  0.12953870828E+03  0.17940350592E+03  0.00000000000E+00 0. -1.
         -2    1    5    5    0  502 -0.39768404460E+01 -0.40515990243E+02 -0.19126991767E+03  0.19555444800E+03  0.00000000000E+00 0.  1.
         -3    1    6    6    0  503 -0.34529055373E+02  0.45420208432E+01  0.15081673375E+03  0.15478557038E+03  0.00000000000E+00 0.  1.
<mgrwt>
<rscale>  0 0.10506241E+04</rscale>
<asrwt>0</asrwt>
<pdfrwt beam="1">  1        2 0.70557297E-01 0.10506241E+04</pdfrwt>
<pdfrwt beam="2">  1       -2 0.92569104E-01 0.10506241E+04</pdfrwt>
<totfact> 0.67115104E+01</totfact>
</mgrwt>
</event>
<event>
12    1  0.4820219E-008  0.1427066E+04  0.7818608E-02  0.8934456E-01
         -2   -1    0    0    0  501 -0.00000000000E+00  0.00000000000E+00  0.12928421445E+03  0.12928421445E+03  0.00000000000E+00 0.  1.
          2   -1    0    0  501    0  0.00000000000E+00 -0.00000000000E+00 -0.39380632400E+04  0.39380632400E+04  0.00000000000E+00 0. -1.
         23    2    1    2    0    0  0.38043193073E+03 -0.12754544078E+02 -0.17859622253E+04  0.18283728233E+04  0.91624114379E+02 0.  0.
        254    2    1    2    0    0 -0.38043193073E+03  0.12754544078E+02 -0.20228168002E+04  0.22389746311E+04  0.88109503424E+03 0.  0.
         23    2    4    4    0    0 -0.48003960618E+03 -0.32771788372E+03 -0.13510058095E+04  0.14736488923E+04  0.92667825048E+02 0.  0.
         23    2    4    4    0    0  0.99607675452E+02  0.34047242780E+03 -0.67181099075E+03  0.76532573883E+03  0.92467919429E+02 0.  0.
         11    1    3    3    0    0  0.23302181677E+03  0.22896963575E+02 -0.12304845025E+04  0.12525635908E+04  0.00000000000E+00 0. -1.
        -11    1    3    3    0    0  0.14741011397E+03 -0.35651507653E+02 -0.55547772278E+03  0.57580923247E+03  0.00000000000E+00 0.  1.
          2    1    6    6  502    0  0.21952295129E+02  0.36818979033E+02 -0.15575669545E+03  0.16154779063E+03  0.00000000000E+00 0. -1.
          2    1    5    5  503    0 -0.15915253115E+03 -0.65432139981E+02 -0.45441778506E+03  0.48590782716E+03  0.00000000000E+00 0. -1.
         -2    1    5    5    0  503 -0.32088707503E+03 -0.26228574374E+03 -0.89658802439E+03  0.98774106514E+03  0.00000000000E+00 0.  1.
         -2    1    6    6    0  502  0.77655380323E+02  0.30365344877E+03 -0.51605429530E+03  0.60377794820E+03  0.00000000000E+00 0.  1.
<mgrwt>
<rscale>  0 0.14270661E+04</rscale>
<asrwt>0</asrwt>
<pdfrwt beam="1">  1        2 0.60585586E+00 0.14270661E+04</pdfrwt>
<pdfrwt beam="2">  1       -2 0.19889880E-01 0.14270661E+04</pdfrwt>
<totfact> 0.82499620E+00</totfact>
</mgrwt>
</event>
<event>
12    1  0.4820219E-008  0.2018115E+04  0.7818608E-02  0.8598198E-01
         -1   -1    0    0    0  501 -0.00000000000E+00  0.00000000000E+00  0.13213777683E+04  0.13213777683E+04  0.00000000000E+00 0.  1.
          1   -1    0    0  501    0  0.00000000000E+00 -0.00000000000E+00 -0.77055740654E+03  0.77055740654E+03  0.00000000000E+00 0. -1.
         23    2    1    2    0    0 -0.62282925566E+03  0.35895506896E+03  0.58068534364E+03  0.92922106300E+03  0.97423263960E+02 0.  0.
        254    2    1    2    0    0  0.62282925566E+03 -0.35895506896E+03 -0.29864981885E+02  0.11627141118E+04  0.91337131851E+03 0.  0.
         23    2    4    4    0    0  0.51483640034E+03 -0.18650381590E+03  0.39607690289E+03  0.68202042449E+03  0.91840916585E+02 0.  0.
         23    2    4    4    0    0  0.10799285532E+03 -0.17245125306E+03 -0.42594188478E+03  0.48069368734E+03  0.90763651089E+02 0.  0.
         11    1    3    3    0    0 -0.66093882080E+02  0.39388709527E+02  0.10536967373E+03  0.13047083900E+03  0.00000000000E+00 0. -1.
        -11    1    3    3    0    0 -0.55673537358E+03  0.31956635943E+03  0.47531566991E+03  0.79875022400E+03  0.00000000000E+00 0.  1.
          2    1    5    5  502    0  0.13914414161E+03 -0.35775842759E+02  0.59231768765E+02  0.15540078989E+03  0.00000000000E+00 0. -1.
          4    1    6    6  503    0  0.11846597463E+03 -0.12071591122E+03 -0.30554004096E+03  0.34922948758E+03  0.00000000000E+00 0. -1.
         -2    1    5    5    0  502  0.37569225874E+03 -0.15072797314E+03  0.33684513413E+03  0.52661963460E+03  0.00000000000E+00 0.  1.
         -4    1    6    6    0  503 -0.10473119311E+02 -0.51735341838E+02 -0.12040184382E+03  0.13146419976E+03  0.00000000000E+00 0.  1.
<mgrwt>
<rscale>  0 0.20181154E+04</rscale>
<asrwt>0</asrwt>
<pdfrwt beam="1">  1        1 0.11854729E+00 0.20181154E+04</pdfrwt>
<pdfrwt beam="2">  1       -1 0.20328889E+00 0.20181154E+04</pdfrwt>
<totfact> 0.31054829E+00</totfact>
</mgrwt>
</event>
<event>
12    1  0.4820219E-008  0.1487681E+04  0.7818608E-02  0.8892687E-01
          2   -1    0    0  501    0  0.00000000000E+00  0.00000000000E+00  0.31016794082E+04  0.31016794082E+04  0.00000000000E+00 0. -1.
         -2   -1    0    0    0  501 -0.00000000000E+00 -0.00000000000E+00 -0.17838677919E+03  0.17838677919E+03  0.00000000000E+00 0.  1.
         23    2    1    2    0    0 -0.21620786248E+03 -0.19549639142E+03  0.17309499629E+04  0.17576226953E+04  0.89917107620E+02 0.  0.
        254    2    1    2    0    0  0.21620786248E+03  0.19549639142E+03  0.11923426661E+04  0.15224434921E+04  0.90066002145E+03 0.  0.
         23    2    4    4    0    0  0.15225681562E+03 -0.21541887228E+03  0.27749394575E+02  0.28248464384E+03  0.97160262832E+02 0.  0.
         23    2    4    4    0    0  0.63951046868E+02  0.41091526369E+03  0.11645932716E+04  0.12399588482E+04  0.90991026094E+02 0.  0.
         11    1    3    3    0    0 -0.70978048472E+02 -0.97062243889E+02  0.50130873297E+03  0.51552828080E+03  0.00000000000E+00 0.  1.
        -11    1    3    3    0    0 -0.14522981401E+03 -0.98434147530E+02  0.12296412299E+04  0.12420944145E+04  0.00000000000E+00 0. -1.
          2    1    5    5  502    0 -0.10928493464E+02 -0.80620959428E-01  0.13866912863E+01  0.11016414202E+02  0.00000000000E+00 0. -1.
          3    1    6    6  503    0 -0.72265932940E+01  0.13703840184E+02  0.14872653729E+02  0.21475910117E+02  0.00000000000E+00 0. -1.
         -2    1    5    5    0  502  0.16318530908E+03 -0.21533825132E+03  0.26362703289E+02  0.27146822964E+03  0.00000000000E+00 0.  1.
         -3    1    6    6    0  503  0.71177640162E+02  0.39721142351E+03  0.11497206178E+04  0.12184829381E+04  0.00000000000E+00 0.  1.
<mgrwt>
<rscale>  0 0.14876809E+04</rscale>
<asrwt>0</asrwt>
<pdfrwt beam="1">  1        2 0.47718141E+00 0.14876809E+04</pdfrwt>
<pdfrwt beam="2">  1       -2 0.27444122E-01 0.14876809E+04</pdfrwt>
<totfact> 0.17715408E+01</totfact>
</mgrwt>
</event>
<event>
12    1  0.4820219E-008  0.1969988E+04  0.7818608E-02  0.8620782E-01
         -2   -1    0    0    0  501 -0.00000000000E+00  0.00000000000E+00  0.10336507765E+04  0.10336507765E+04  0.00000000000E+00 0.  1.
          2   -1    0    0  501    0  0.00000000000E+00 -0.00000000000E+00 -0.93862744862E+03  0.93862744862E+03  0.00000000000E+00 0. -1.
         23    2    1    2    0    0  0.30738268698E+03  0.40194197325E+02  0.75069735512E+03  0.81743120842E+03  0.92453078672E+02 0.  0.
        254    2    1    2    0    0 -0.30738268698E+03 -0.40194197325E+02 -0.65567402720E+03  0.11548470167E+04  0.89870101389E+03 0.  0.
         23    2    4    4    0    0 -0.51230335668E+03 -0.21327109957E+03 -0.66621296763E+03  0.87178978555E+03  0.90765746692E+02 0.  0.
         23    2    4    4    0    0  0.20492066970E+03  0.17307690224E+03  0.10538940430E+02  0.28305723119E+03  0.89789932087E+02 0.  0.
         13    1    3    3    0    0  0.27634861691E+03  0.48234096583E+02  0.72131496401E+03  0.77394467725E+03  0.00000000000E+00 0.  1.
        -13    1    3    3    0    0  0.31034070078E+02 -0.80398992584E+01  0.29382391110E+02  0.43486531168E+02  0.00000000000E+00 0. -1.
          1    1    5    5  502    0 -0.20972327880E+03 -0.39792233109E+02 -0.24737471048E+03  0.32674381842E+03  0.00000000000E+00 0. -1.
          3    1    6    6  503    0  0.37009686917E+02 -0.10254165866E+01 -0.14761397883E+02  0.39858089171E+02  0.00000000000E+00 0. -1.
         -1    1    5    5    0  502 -0.30258007788E+03 -0.17347886646E+03 -0.41883825715E+03  0.54504596713E+03  0.00000000000E+00 0.  1.
         -3    1    6    6    0  503  0.16791098278E+03  0.17410231883E+03  0.25300338314E+02  0.24319914202E+03  0.00000000000E+00 0.  1.
<mgrwt>
<rscale>  0 0.19699878E+04</rscale>
<asrwt>0</asrwt>
<pdfrwt beam="1">  1        2 0.14440422E+00 0.19699878E+04</pdfrwt>
<pdfrwt beam="2">  1       -2 0.15902320E+00 0.19699878E+04</pdfrwt>
<totfact> 0.65878265E+00</totfact>
</mgrwt>
</event>
<event>
12    1  0.4820219E-008  0.1368775E+04  0.7818608E-02  0.8976736E-01
         -1   -1    0    0    0  501 -0.00000000000E+00  0.00000000000E+00  0.47265740551E+03  0.47265740551E+03  0.00000000000E+00 0.  1.
          1   -1    0    0  501    0  0.00000000000E+00 -0.00000000000E+00 -0.99096391062E+03  0.99096391062E+03  0.00000000000E+00 0. -1.
         23    2    1    2    0    0 -0.34284130361E+02 -0.27873203042E+03  0.12836150522E+03  0.32293119902E+03  0.94556527564E+02 0.  0.
        254    2    1    2    0    0  0.34284130361E+02  0.27873203042E+03 -0.64666801033E+03  0.11406901171E+04  0.89673155477E+03 0.  0.
         23    2    4    4    0    0  0.41128287644E+03  0.93941468652E+01 -0.48191669981E+03  0.64052469244E+03  0.93735380823E+02 0.  0.
         23    2    4    4    0    0 -0.37699874608E+03  0.26933788355E+03 -0.16475131052E+03  0.50016542467E+03  0.91386583584E+02 0.  0.
         11    1    3    3    0    0 -0.64260041902E+02 -0.16435517163E+03  0.60226172598E+02  0.18646492242E+03  0.00000000000E+00 0.  1.
        -11    1    3    3    0    0  0.29975911542E+02 -0.11437685879E+03  0.68135332620E+02  0.13646627660E+03  0.00000000000E+00 0. -1.
          2    1    5    5  502    0  0.61277270945E+02  0.11411368634E+02 -0.30734301755E+02  0.69496191068E+02  0.00000000000E+00 0. -1.
          1    1    6    6  503    0 -0.19867874189E+03  0.15146611089E+03 -0.13610184390E+03  0.28449769268E+03  0.00000000000E+00 0. -1.
         -2    1    5    5    0  502  0.35000560550E+03 -0.20172217692E+01 -0.45118239806E+03  0.57102850137E+03  0.00000000000E+00 0.  1.
         -1    1    6    6    0  503 -0.17832000419E+03  0.11787177267E+03 -0.28649466613E+02  0.21566773200E+03  0.00000000000E+00 0.  1.
<mgrwt>
<rscale>  0 0.13687753E+04</rscale>
<asrwt>0</asrwt>
<pdfrwt beam="1">  1        1 0.15245599E+00 0.13687753E+04</pdfrwt>
<pdfrwt beam="2">  1       -1 0.72716524E-01 0.13687753E+04</pdfrwt>
<totfact> 0.28673766E+01</totfact>
</mgrwt>
</event>
<event>
12    1  0.4820219E-008  0.2096265E+04  0.7818608E-02  0.8562891E-01
         -2   -1    0    0    0  501 -0.00000000000E+00  0.00000000000E+00  0.42732194078E+03  0.42732194078E+03  0.00000000000E+00 0.  1.
          2   -1    0    0  501    0  0.00000000000E+00 -0.00000000000E+00 -0.25708517108E+04  0.25708517108E+04  0.00000000000E+00 0. -1.
         23    2    1    2    0    0 -0.19898456888E+03 -0.27819968148E+03  0.23948147335E+03  0.42729843448E+03  0.90789066540E+02 0.  0.
        254    2    1    2    0    0  0.19898456888E+03  0.27819968148E+03 -0.23830112434E+04  0.25708752171E+04  0.90203485213E+03 0.  0.
         23    2    4    4    0    0  0.47355032060E+03  0.18883888511E+03 -0.20681267309E+04  0.21322263580E+04  0.96597288253E+02 0.  0.
         23    2    4    4    0    0 -0.27456575172E+03  0.89360796377E+02 -0.31488451249E+03  0.43864885910E+03  0.99442754588E+02 0.  0.
         13    1    3    3    0    0 -0.19793758573E+03 -0.22892260394E+03  0.18929199210E+03  0.35695420534E+03  0.00000000000E+00 0.  1.
        -13    1    3    3    0    0 -0.10469831495E+01 -0.49277077544E+02  0.50189481251E+02  0.70344229139E+02  0.00000000000E+00 0. -1.
          4    1    5    5  502    0  0.24416506771E+03  0.87506474370E+02 -0.85607403627E+03  0.89450361594E+03  0.00000000000E+00 0. -1.
          4    1    6    6  503    0 -0.10050000197E+03 -0.30250159707E+01 -0.15560959213E+03  0.18526668962E+03  0.00000000000E+00 0. -1.
         -4    1    5    5    0  502  0.22938525289E+03  0.10133241074E+03 -0.12120526946E+04  0.12377227421E+04  0.00000000000E+00 0.  1.
         -4    1    6    6    0  503 -0.17406574975E+03  0.92385812347E+02 -0.15927492036E+03  0.25338216949E+03  0.00000000000E+00 0.  1.
<mgrwt>
<rscale>  0 0.20962646E+04</rscale>
<asrwt>0</asrwt>
<pdfrwt beam="1">  1        2 0.39551566E+00 0.20962646E+04</pdfrwt>
<pdfrwt beam="2">  1       -2 0.65741836E-01 0.20962646E+04</pdfrwt>
<totfact> 0.62193225E+00</totfact>
</mgrwt>
</event>
<event>
12    1  0.4820219E-008  0.1450562E+04  0.7818608E-02  0.8918011E-01
          1   -1    0    0  501    0  0.00000000000E+00  0.00000000000E+00  0.12735212524E+04  0.12735212524E+04  0.00000000000E+00 0. -1.
         -1   -1    0    0    0  501 -0.00000000000E+00 -0.00000000000E+00 -0.41305363690E+03  0.41305363690E+03  0.00000000000E+00 0.  1.
         23    2    1    2    0    0 -0.29684183778E+03  0.27110298535E+03  0.11012517254E+03  0.42635848553E+03  0.89677752175E+02 0.  0.
        254    2    1    2    0    0  0.29684183778E+03 -0.27110298535E+03  0.75034244298E+03  0.12602164038E+04  0.92925760548E+03 0.  0.
         23    2    4    4    0    0 -0.19481823854E+03 -0.15582211046E+03  0.69560104208E+03  0.74436173151E+03  0.89324696548E+02 0.  0.
         23    2    4    4    0    0  0.49166007632E+03 -0.11528087489E+03  0.54741400898E+02  0.51585467229E+03  0.89945045408E+02 0.  0.
         11    1    3    3    0    0 -0.42488592874E+02  0.30923336518E+02  0.47761812051E+02  0.71012139498E+02  0.00000000000E+00 0. -1.
        -11    1    3    3    0    0 -0.25435324490E+03  0.24017964884E+03  0.62363360494E+02  0.35534634603E+03  0.00000000000E+00 0.  1.
          1    1    6    6  502    0  0.31590467537E+03 -0.30626176158E+02  0.23105359666E+02  0.31822568129E+03  0.00000000000E+00 0. -1.
          1    1    5    5  503    0 -0.20746061736E+02 -0.62348418869E+02  0.13943777630E+03  0.15414479515E+03  0.00000000000E+00 0. -1.
         -1    1    5    5    0  503 -0.17407217680E+03 -0.93473691589E+02  0.55616326578E+03  0.59021693636E+03  0.00000000000E+00 0.  1.
         -1    1    6    6    0  502  0.17575540095E+03 -0.84654698736E+02  0.31636041233E+02  0.19762899100E+03  0.00000000000E+00 0.  1.
<mgrwt>
<rscale>  0 0.14505621E+04</rscale>
<asrwt>0</asrwt>
<pdfrwt beam="1">  1        1 0.19592634E+00 0.14505621E+04</pdfrwt>
<pdfrwt beam="2">  1       -1 0.63546714E-01 0.14505621E+04</pdfrwt>
<totfact> 0.23050134E+01</totfact>
</mgrwt>
</event>
<event>
12    1  0.4820219E-008  0.1288505E+04  0.7818608E-02  0.9038730E-01
          2   -1    0    0  501    0  0.00000000000E+00  0.00000000000E+00  0.16281306545E+04  0.16281306545E+04  0.00000000000E+00 0. -1.
         -2   -1    0    0    0  501 -0.00000000000E+00 -0.00000000000E+00 -0.25493133159E+03  0.25493133159E+03  0.00000000000E+00 0.  1.
         23    2    1    2    0    0 -0.27987505012E+03  0.68234381683E+02  0.23219997153E+03  0.38095439745E+03  0.90683248925E+02 0.  0.
        254    2    1    2    0    0  0.27987505012E+03 -0.68234381683E+02  0.11409993514E+04  0.15021075886E+04  0.93352113712E+03 0.  0.
         23    2    4    4    0    0 -0.69946634119E+02  0.24587264987E+03  0.94496426644E+03  0.98314356993E+03  0.90928118068E+02 0.  0.
         23    2    4    4    0    0  0.34982168424E+03 -0.31410703155E+03  0.19603508493E+03  0.51896401870E+03  0.99274670219E+02 0.  0.
         11    1    3    3    0    0 -0.26858577185E+03  0.82906008658E+02  0.20438142621E+03  0.34753919274E+03  0.00000000000E+00 0.  1.
        -11    1    3    3    0    0 -0.11289278268E+02 -0.14671626975E+02  0.27818545323E+02  0.33415204710E+02  0.00000000000E+00 0. -1.
          2    1    5    5  502    0 -0.34019937699E+02  0.68956351263E+02  0.15771031661E+03  0.17545620110E+03  0.00000000000E+00 0. -1.
          3    1    6    6  503    0  0.26070296135E+02 -0.13409104559E+02  0.41614790034E+02  0.50904372850E+02  0.00000000000E+00 0. -1.
         -2    1    5    5    0  502 -0.35926696420E+02  0.17691629861E+03  0.78725394983E+03  0.80768736882E+03  0.00000000000E+00 0.  1.
         -3    1    6    6    0  503  0.32375138810E+03 -0.30069792699E+03  0.15442029489E+03  0.46805964585E+03  0.00000000000E+00 0.  1.
<mgrwt>
<rscale>  0 0.12885054E+04</rscale>
<asrwt>0</asrwt>
<pdfrwt beam="1">  1        2 0.25048163E+00 0.12885054E+04</pdfrwt>
<pdfrwt beam="2">  1       -2 0.39220206E-01 0.12885054E+04</pdfrwt>
<totfact> 0.64828633E+01</totfact>
</mgrwt>
</event>
<event>
12    1  0.4820219E-008  0.5030863E+04  0.7818608E-02  0.7823764E-01
         -2   -1    0    0    0  501 -0.00000000000E+00  0.00000000000E+00  0.30423932031E+04  0.30423932031E+04  0.00000000000E+00 0.  1.
          2   -1    0    0  501    0  0.00000000000E+00 -0.00000000000E+00 -0.20797428025E+04  0.20797428025E+04  0.00000000000E+00 0. -1.
         23    2    1    2    0    0  0.14181510437E+04 -0.19779233793E+04  0.44329469972E+03  0.24755351881E+04  0.91820473406E+02 0.  0.
        254    2    1    2    0    0 -0.14181510437E+04  0.19779233793E+04  0.51935570088E+03  0.26466008175E+04  0.90079535175E+03 0.  0.
         23    2    4    4    0    0 -0.11582861608E+04  0.88734246942E+03  0.39693567947E+03  0.15151124575E+04  0.94891184414E+02 0.  0.
         23    2    4    4    0    0 -0.25986488286E+03  0.10905809099E+04  0.12242002141E+03  0.11314883599E+04  0.91557460914E+02 0.  0.
         13    1    3    3    0    0  0.92411943783E+03 -0.12243865268E+04  0.30313252912E+03  0.15636522735E+04  0.00000000000E+00 0.  1.
        -13    1    3    3    0    0  0.49403160587E+03 -0.75353685254E+03  0.14016217060E+03  0.91188291452E+03  0.00000000000E+00 0. -1.
          2    1    5    5  502    0 -0.36116334291E+03  0.23373086007E+03  0.14457374744E+03  0.45383988769E+03  0.00000000000E+00 0. -1.
          4    1    6    6  503    0 -0.90474162040E+01  0.15254738776E+03  0.33449482967E+02  0.15643346561E+03  0.00000000000E+00 0. -1.
         -2    1    5    5    0  502 -0.79712281793E+03  0.65361160935E+03  0.25236193203E+03  0.10612725698E+04  0.00000000000E+00 0.  1.
         -4    1    6    6    0  503 -0.25081746665E+03  0.93803352214E+03  0.88970538443E+02  0.97505489432E+03  0.00000000000E+00 0.  1.
<mgrwt>
<rscale>  0 0.50308629E+04</rscale>
<asrwt>0</asrwt>
<pdfrwt beam="1">  1        2 0.31996043E+00 0.50308629E+04</pdfrwt>
<pdfrwt beam="2">  1       -2 0.46806049E+00 0.50308629E+04</pdfrwt>
<totfact> 0.11610806E-02</totfact>
</mgrwt>
</event>
<event>
12    1  0.4820219E-008  0.4716181E+04  0.7818608E-02  0.7873846E-01
          2   -1    0    0  501    0  0.00000000000E+00  0.00000000000E+00  0.14037548726E+04  0.14037548726E+04  0.00000000000E+00 0. -1.
         -2   -1    0    0    0  501 -0.00000000000E+00 -0.00000000000E+00 -0.39612268616E+04  0.39612268616E+04  0.00000000000E+00 0.  1.
         23    2    1    2    0    0  0.11914914142E+04 -0.62753049853E+03 -0.33152660624E+04  0.35794812466E+04  0.90832889318E+02 0.  0.
        254    2    1    2    0    0 -0.11914914142E+04  0.62753049853E+03  0.75779407338E+03  0.17855004876E+04  0.89460260273E+03 0.  0.
         23    2    4    4    0    0 -0.10194873099E+04  0.74401262040E+02  0.54658080592E+03  0.11628117773E+04  0.92145152745E+02 0.  0.
         23    2    4    4    0    0 -0.17200410429E+03  0.55312923649E+03  0.21121326746E+03  0.62268871028E+03  0.87136797111E+02 0.  0.
         13    1    3    3    0    0  0.23049062085E+03 -0.16177575211E+03 -0.66788748007E+03  0.72482481077E+03  0.00000000000E+00 0. -1.
        -13    1    3    3    0    0  0.96100079333E+03 -0.46575474641E+03 -0.26473785823E+04  0.28546564359E+04  0.00000000000E+00 0.  1.
          2    1    5    5  502    0 -0.61738830126E+03  0.87536039931E+02  0.34929837166E+03  0.71473087611E+03  0.00000000000E+00 0. -1.
          1    1    6    6  503    0 -0.13683055264E+03  0.48192030600E+03  0.21014490425E+03  0.54325929560E+03  0.00000000000E+00 0. -1.
         -2    1    5    5    0  502 -0.40209900864E+03 -0.13134777891E+02  0.19728243426E+03  0.44808090118E+03  0.00000000000E+00 0.  1.
         -1    1    6    6    0  503 -0.35173551650E+02  0.71208930487E+02  0.10683632071E+01  0.79429414682E+02  0.00000000000E+00 0.  1.
<mgrwt>
<rscale>  0 0.47161813E+04</rscale>
<asrwt>0</asrwt>
<pdfrwt beam="1">  1        2 0.21596229E+00 0.47161813E+04</pdfrwt>
<pdfrwt beam="2">  1       -2 0.60941951E+00 0.47161813E+04</pdfrwt>
<totfact> 0.50422399E-03</totfact>
</mgrwt>
</event>
<event>
12    1  0.4820219E-008  0.1828797E+04  0.7818608E-02  0.8691133E-01
         -2   -1    0    0    0  501 -0.00000000000E+00  0.00000000000E+00  0.67388128002E+03  0.67388128002E+03  0.00000000000E+00 0.  1.
          2   -1    0    0  501    0  0.00000000000E+00 -0.00000000000E+00 -0.12407601414E+04  0.12407601414E+04  0.00000000000E+00 0. -1.
         23    2    1    2    0    0 -0.22243528148E+02 -0.65809850773E+03 -0.41774740272E+03  0.78499117478E+03  0.90054603304E+02 0.  0.
        254    2    1    2    0    0  0.22243528148E+02  0.65809850773E+03 -0.14913145865E+03  0.11296502466E+04  0.90569369399E+03 0.  0.
         23    2    4    4    0    0  0.77816568341E+02 -0.19298265465E+03 -0.14923222995E+03  0.27181072003E+03  0.91176124951E+02 0.  0.
         23    2    4    4    0    0 -0.55573040193E+02  0.85108116239E+03  0.10077129807E+00  0.85783952661E+03  0.91984430673E+02 0.  0.
         11    1    3    3    0    0 -0.36687089748E+02 -0.22909375835E+03 -0.10964961440E+03  0.25661825852E+03  0.00000000000E+00 0. -1.
        -11    1    3    3    0    0  0.14443561601E+02 -0.42900474938E+03 -0.30809778832E+03  0.52837291626E+03  0.00000000000E+00 0.  1.
          3    1    5    5  502    0 -0.12992341576E+02 -0.22287312957E+02 -0.45725428077E+02  0.52500857434E+02  0.00000000000E+00 0. -1.
          3    1    6    6  503    0  0.21823203279E+00  0.12567269691E+02  0.12013759256E+02  0.17387187932E+02  0.00000000000E+00 0. -1.
         -3    1    5    5    0  502  0.90808909917E+02 -0.17069534170E+03 -0.10350680187E+03  0.21930986260E+03  0.00000000000E+00 0.  1.
         -3    1    6    6    0  503 -0.55791272226E+02  0.83851389270E+03 -0.11912987958E+02  0.84045233868E+03  0.00000000000E+00 0.  1.
<mgrwt>
<rscale>  0 0.18287975E+04</rscale>
<asrwt>0</asrwt>
<pdfrwt beam="1">  1        2 0.19088617E+00 0.18287975E+04</pdfrwt>
<pdfrwt beam="2">  1       -2 0.10367404E+00 0.18287975E+04</pdfrwt>
<totfact> 0.12787843E+01</totfact>
</mgrwt>
</event>
<event>
12    1  0.4820219E-008  0.1225113E+04  0.7818608E-02  0.9091155E-01
         -2   -1    0    0    0  501 -0.00000000000E+00  0.00000000000E+00  0.18356158818E+03  0.18356158818E+03  0.00000000000E+00 0.  1.
          2   -1    0    0  501    0  0.00000000000E+00 -0.00000000000E+00 -0.20441380888E+04  0.20441380888E+04  0.00000000000E+00 0. -1.
         23    2    1    2    0    0 -0.23121089325E+03 -0.94770256336E+02 -0.15344415682E+03  0.30685204867E+03  0.90405707060E+02 0.  0.
        254    2    1    2    0    0  0.23121089325E+03  0.94770256336E+02 -0.17071323438E+04  0.19208476283E+04  0.84434287658E+03 0.  0.
         23    2    4    4    0    0  0.52780591613E+03  0.32009492069E+01 -0.84742889547E+03  0.10023251313E+04  0.89053942982E+02 0.  0.
         23    2    4    4    0    0 -0.29659502288E+03  0.91569307129E+02 -0.85970344829E+03  0.91852249697E+03  0.90774516419E+02 0.  0.
         11    1    3    3    0    0 -0.12045964418E+03 -0.46245437887E+02 -0.26860058772E+02  0.13179768268E+03  0.00000000000E+00 0.  1.
        -11    1    3    3    0    0 -0.11075124907E+03 -0.48524818449E+02 -0.12658409805E+03  0.17505436600E+03  0.00000000000E+00 0. -1.
          4    1    5    5  502    0  0.51223432140E+03  0.14639952937E+02 -0.78921161790E+03  0.94098528473E+03  0.00000000000E+00 0. -1.
          1    1    6    6  503    0 -0.24348157932E+03  0.40755276270E+02 -0.60512507659E+03  0.65354466590E+03  0.00000000000E+00 0. -1.
         -4    1    5    5    0  502  0.15571594725E+02 -0.11439003730E+02 -0.58217277565E+02  0.61339846558E+02  0.00000000000E+00 0.  1.
         -1    1    6    6    0  503 -0.53113443557E+02  0.50814030859E+02 -0.25457837170E+03  0.26497783106E+03  0.00000000000E+00 0.  1.
<mgrwt>
<rscale>  0 0.12251126E+04</rscale>
<asrwt>0</asrwt>
<pdfrwt beam="1">  1        2 0.31448278E+00 0.12251126E+04</pdfrwt>
<pdfrwt beam="2">  1       -2 0.28240244E-01 0.12251126E+04</pdfrwt>
<totfact> 0.71472576E+01</totfact>
</mgrwt>
</event>
<event>
12    1  0.4820219E-008  0.1870816E+04  0.7818608E-02  0.8669521E-01
          2   -1    0    0  501    0  0.00000000000E+00  0.00000000000E+00  0.97038999073E+03  0.97038999073E+03  0.00000000000E+00 0. -1.
         -2   -1    0    0    0  501 -0.00000000000E+00 -0.00000000000E+00 -0.90168733151E+03  0.90168733151E+03  0.00000000000E+00 0.  1.
         23    2    1    2    0    0  0.70116721576E+03  0.52930797410E+01  0.16872204978E+03  0.72688847631E+03  0.90753764501E+02 0.  0.
        254    2    1    2    0    0 -0.70116721576E+03 -0.52930797410E+01 -0.10001939056E+03  0.11451888459E+04  0.89988339978E+03 0.  0.
         23    2    4    4    0    0 -0.62536668667E+03  0.10107288583E+02 -0.45080057267E+03  0.77648481476E+03  0.92313927193E+02 0.  0.
         23    2    4    4    0    0 -0.75800529086E+02 -0.15400368324E+02  0.35078118211E+03  0.36870403117E+03  0.83140443367E+02 0.  0.
         13    1    3    3    0    0  0.56993892746E+03 -0.21858554322E+02  0.11139793960E+03  0.58113481945E+03  0.00000000000E+00 0.  1.
        -13    1    3    3    0    0  0.13122828830E+03  0.27151634063E+02  0.57324110171E+02  0.14575365687E+03  0.00000000000E+00 0. -1.
          2    1    5    5  502    0 -0.97535008998E+02 -0.25149466321E+02 -0.47983272669E+02  0.11157046246E+03  0.00000000000E+00 0. -1.
          2    1    6    6  503    0 -0.31309013738E+02  0.31175842107E+02  0.19855181040E+03  0.20340847791E+03  0.00000000000E+00 0. -1.
         -2    1    5    5    0  502 -0.52783167767E+03  0.35256754904E+02 -0.40281730000E+03  0.66491435230E+03  0.00000000000E+00 0.  1.
         -2    1    6    6    0  503 -0.44491515349E+02 -0.46576210431E+02  0.15222937171E+03  0.16529555326E+03  0.00000000000E+00 0.  1.
<mgrwt>
<rscale>  0 0.18708163E+04</rscale>
<asrwt>0</asrwt>
<pdfrwt beam="1">  1        2 0.14929077E+00 0.18708163E+04</pdfrwt>
<pdfrwt beam="2">  1       -2 0.13872113E+00 0.18708163E+04</pdfrwt>
<totfact> 0.90896903E+00</totfact>
</mgrwt>
</event>
<event>
12    1  0.4820219E-008  0.1486068E+04  0.7818608E-02  0.8893771E-01
         -1   -1    0    0    0  501 -0.00000000000E+00  0.00000000000E+00  0.18212615947E+03  0.18212615947E+03  0.00000000000E+00 0.  1.
          1   -1    0    0  501    0  0.00000000000E+00 -0.00000000000E+00 -0.30314123085E+04  0.30314123085E+04  0.00000000000E+00 0. -1.
         23    2    1    2    0    0 -0.15905151283E+03 -0.17553523528E+03 -0.55609906481E+02  0.25965940784E+03  0.90667214725E+02 0.  0.
        254    2    1    2    0    0  0.15905151283E+03  0.17553523528E+03 -0.27936762426E+04  0.29538790601E+04  0.92987340597E+03 0.  0.
         23    2    4    4    0    0  0.26620642506E+03 -0.32398336691E+03 -0.10565150355E+04  0.11407756940E+04  0.96509487054E+02 0.  0.
         23    2    4    4    0    0 -0.10715491223E+03  0.49951860219E+03 -0.17371612071E+04  0.18131033661E+04  0.92810278112E+02 0.  0.
         11    1    3    3    0    0 -0.42614277165E+02 -0.99686474642E+02  0.39168331152E+01  0.10848369198E+03  0.00000000000E+00 0.  1.
        -11    1    3    3    0    0 -0.11643723566E+03 -0.75848760637E+02 -0.59526739597E+02  0.15117571586E+03  0.00000000000E+00 0. -1.
          4    1    5    5  502    0  0.10880399373E+03 -0.76885922045E+02 -0.26120005580E+03  0.29321531885E+03  0.00000000000E+00 0. -1.
          1    1    6    6  503    0  0.12660969679E+02  0.16928002862E+02 -0.94346515581E+02  0.96685688891E+02  0.00000000000E+00 0. -1.
         -4    1    5    5    0  502  0.15740243133E+03 -0.24709744486E+03 -0.79531497971E+03  0.84756037519E+03  0.00000000000E+00 0.  1.
         -1    1    6    6    0  503 -0.11981588191E+03  0.48259059933E+03 -0.16428146915E+04  0.17164176772E+04  0.00000000000E+00 0.  1.
<mgrwt>
<rscale>  0 0.14860679E+04</rscale>
<asrwt>0</asrwt>
<pdfrwt beam="1">  1        1 0.46637109E+00 0.14860679E+04</pdfrwt>
<pdfrwt beam="2">  1       -1 0.28019411E-01 0.14860679E+04</pdfrwt>
<totfact> 0.63563682E+00</totfact>
</mgrwt>
</event>
<event>
12    1  0.4820219E-008  0.2645585E+04  0.7818608E-02  0.8352880E-01
          2   -1    0    0  501    0  0.00000000000E+00  0.00000000000E+00  0.26732727227E+04  0.26732727227E+04  0.00000000000E+00 0. -1.
         -2   -1    0    0    0  501 -0.00000000000E+00 -0.00000000000E+00 -0.65454602238E+03  0.65454602238E+03  0.00000000000E+00 0.  1.
         23    2    1    2    0    0 -0.11091999660E+04  0.35933968711E+03  0.96861429784E+03  0.15185615544E+04  0.91465628474E+02 0.  0.
        254    2    1    2    0    0  0.11091999660E+04 -0.35933968711E+03  0.10501124025E+04  0.18092571907E+04  0.90068082518E+03 0.  0.
         23    2    4    4    0    0  0.66258642785E+03 -0.50295008437E+03  0.24393702528E+03  0.87194092086E+03  0.93787714688E+02 0.  0.
         23    2    4    4    0    0  0.44661353815E+03  0.14361039726E+03  0.80617537717E+03  0.93731626980E+03  0.92495687528E+02 0.  0.
         13    1    3    3    0    0 -0.96190124216E+03  0.33493965425E+03  0.81649972629E+03  0.13054157861E+04  0.00000000000E+00 0.  1.
        -13    1    3    3    0    0 -0.14729872384E+03  0.24400032860E+02  0.15211457155E+03  0.21314576826E+03  0.00000000000E+00 0. -1.
          2    1    5    5  502    0  0.18271376377E+03 -0.19098945403E+03  0.63827104062E+02  0.27191026136E+03  0.00000000000E+00 0. -1.
          3    1    6    6  503    0  0.29620542152E+03  0.57020791078E+02  0.46014652654E+03  0.55020346077E+03  0.00000000000E+00 0. -1.
         -2    1    5    5    0  502  0.47987266408E+03 -0.31196063034E+03  0.18010992122E+03  0.60003065950E+03  0.00000000000E+00 0.  1.
         -3    1    6    6    0  503  0.15040811663E+03  0.86589606182E+02  0.34602885063E+03  0.38711280903E+03  0.00000000000E+00 0.  1.
<mgrwt>
<rscale>  0 0.26455850E+04</rscale>
<asrwt>0</asrwt>
<pdfrwt beam="1">  1        2 0.41127272E+00 0.26455850E+04</pdfrwt>
<pdfrwt beam="2">  1       -2 0.10069939E+00 0.26455850E+04</pdfrwt>
<totfact> 0.19715899E+00</totfact>
</mgrwt>
</event>
<event>
12    1  0.4820219E-008  0.3695385E+04  0.7818608E-02  0.8068985E-01
          2   -1    0    0  501    0  0.00000000000E+00  0.00000000000E+00  0.17680220601E+04  0.17680220601E+04  0.00000000000E+00 0. -1.
         -2   -1    0    0    0  501 -0.00000000000E+00 -0.00000000000E+00 -0.19309533729E+04  0.19309533729E+04  0.00000000000E+00 0.  1.
         23    2    1    2    0    0  0.90187994511E+03  0.14449873511E+04 -0.41688222414E+03  0.17560500023E+04  0.92438852562E+02 0.  0.
        254    2    1    2    0    0 -0.90187994511E+03 -0.14449873511E+04  0.25395091131E+03  0.19429254307E+04  0.89949557182E+03 0.  0.
         23    2    4    4    0    0 -0.74103383344E+03 -0.37526266498E+03  0.17474624489E+03  0.85368946768E+03  0.91083736728E+02 0.  0.
         23    2    4    4    0    0 -0.16084611167E+03 -0.10697246861E+04  0.79204666415E+02  0.10892359630E+04  0.99896087303E+02 0.  0.
         13    1    3    3    0    0  0.18180827204E+03  0.36554272786E+03 -0.96800177353E+02  0.41957836933E+03  0.00000000000E+00 0. -1.
        -13    1    3    3    0    0  0.72007167307E+03  0.10794446232E+04 -0.32008204678E+03  0.13364716329E+04  0.00000000000E+00 0.  1.
          4    1    5    5  502    0 -0.42012957640E+03 -0.23293292290E+03  0.58702399228E+02  0.48395514174E+03  0.00000000000E+00 0. -1.
          1    1    6    6  503    0 -0.24482963101E+02 -0.20318168094E+03  0.54049899199E+02  0.21166861495E+03  0.00000000000E+00 0. -1.
         -4    1    5    5    0  502 -0.32090425704E+03 -0.14232974208E+03  0.11604384566E+03  0.36973432595E+03  0.00000000000E+00 0.  1.
         -1    1    6    6    0  503 -0.13636314857E+03 -0.86654300516E+03  0.25154767216E+02  0.87756734807E+03  0.00000000000E+00 0.  1.
<mgrwt>
<rscale>  0 0.36953853E+04</rscale>
<asrwt>0</asrwt>
<pdfrwt beam="1">  1        2 0.27200339E+00 0.36953853E+04</pdfrwt>
<pdfrwt beam="2">  1       -2 0.29706975E+00 0.36953853E+04</pdfrwt>
<totfact> 0.24078017E-01</totfact>
</mgrwt>
</event>
<event>
12    1  0.4820219E-008  0.1703113E+04  0.7818608E-02  0.8759591E-01
         -1   -1    0    0    0  501 -0.00000000000E+00  0.00000000000E+00  0.53116663615E+03  0.53116663615E+03  0.00000000000E+00 0.  1.
          1   -1    0    0  501    0  0.00000000000E+00 -0.00000000000E+00 -0.13651998563E+04  0.13651998563E+04  0.00000000000E+00 0. -1.
         23    2    1    2    0    0 -0.45147282896E+03  0.39005612408E+03 -0.46433535726E+03  0.76155889737E+03  0.91614054304E+02 0.  0.
        254    2    1    2    0    0  0.45147282896E+03 -0.39005612408E+03 -0.36969786290E+03  0.11348075951E+04  0.89170638263E+03 0.  0.
         23    2    4    4    0    0  0.18971329576E+03 -0.59575171790E+03 -0.45623112334E+03  0.77914987070E+03  0.89534569519E+02 0.  0.
         23    2    4    4    0    0  0.26175953320E+03  0.20569559382E+03  0.86533260437E+02  0.35565772439E+03  0.90419473664E+02 0.  0.
         13    1    3    3    0    0 -0.22642885982E+03  0.20508842427E+03 -0.18050141707E+03  0.35484088250E+03  0.00000000000E+00 0.  1.
        -13    1    3    3    0    0 -0.22504396914E+03  0.18496769981E+03 -0.28383394019E+03  0.40671801487E+03  0.00000000000E+00 0. -1.
          2    1    5    5  502    0  0.13656134153E+03 -0.43205741251E+03 -0.37802847162E+03  0.59010857735E+03  0.00000000000E+00 0.  1.
          3    1    6    6  503    0  0.21019151967E+03  0.17606379130E+03  0.33970293429E+02  0.27628411895E+03  0.00000000000E+00 0. -1.
         -2    1    5    5    0  502  0.53151954231E+02 -0.16369430539E+03 -0.78202651718E+02  0.18904129335E+03  0.00000000000E+00 0. -1.
         -3    1    6    6    0  503  0.51568013533E+02  0.29631802525E+02  0.52562967008E+02  0.79373605445E+02  0.00000000000E+00 0.  1.
<mgrwt>
<rscale>  0 0.17031132E+04</rscale>
<asrwt>0</asrwt>
<pdfrwt beam="1">  1        1 0.21003074E+00 0.17031132E+04</pdfrwt>
<pdfrwt beam="2">  1       -1 0.81717945E-01 0.17031132E+04</pdfrwt>
<totfact> 0.11528334E+01</totfact>
</mgrwt>
</event>
<event>
12    1  0.4820219E-008  0.1882894E+04  0.7818608E-02  0.8663418E-01
         -2   -1    0    0    0  501 -0.00000000000E+00  0.00000000000E+00  0.24797577128E+03  0.24797577128E+03  0.00000000000E+00 0.  1.
          2   -1    0    0  501    0  0.00000000000E+00 -0.00000000000E+00 -0.35742294476E+04  0.35742294476E+04  0.00000000000E+00 0. -1.
         23    2    1    2    0    0  0.12115652651E+03  0.15371098929E+03 -0.27025162143E+04  0.27112762248E+04  0.95492965027E+02 0.  0.
        254    2    1    2    0    0 -0.12115652651E+03 -0.15371098929E+03 -0.62373746202E+03  0.11109289941E+04  0.89822538165E+03 0.  0.
         23    2    4    4    0    0  0.33207014405E+03 -0.20785025494E+03 -0.10856603764E+03  0.41677383472E+03  0.91877830437E+02 0.  0.
         23    2    4    4    0    0 -0.45322667056E+03  0.54139265649E+02 -0.51517142438E+03  0.69415515937E+03  0.90023962324E+02 0.  0.
         13    1    3    3    0    0  0.10571941491E+03  0.14334254599E+03 -0.26412837207E+04  0.26472822618E+04  0.00000000000E+00 0. -1.
        -13    1    3    3    0    0  0.15437111596E+02  0.10368443297E+02 -0.61232493549E+02  0.63993962973E+02  0.00000000000E+00 0.  1.
          1    1    5    5  502    0  0.95101331724E+02 -0.11054324167E+03 -0.48272006807E+02  0.15360422591E+03  0.00000000000E+00 0. -1.
          3    1    6    6  503    0 -0.27262628479E+03  0.17149104023E+02 -0.24410771879E+03  0.36634377475E+03  0.00000000000E+00 0. -1.
         -1    1    5    5    0  502  0.23696881233E+03 -0.97307013268E+02 -0.60294030833E+02  0.26316960881E+03  0.00000000000E+00 0.  1.
         -3    1    6    6    0  503 -0.18060038577E+03  0.36990161626E+02 -0.27106370560E+03  0.32781138463E+03  0.00000000000E+00 0.  1.
<mgrwt>
<rscale>  0 0.18828938E+04</rscale>
<asrwt>0</asrwt>
<pdfrwt beam="1">  1        2 0.54988146E+00 0.18828938E+04</pdfrwt>
<pdfrwt beam="2">  1       -2 0.38150118E-01 0.18828938E+04</pdfrwt>
<totfact> 0.44170159E+00</totfact>
</mgrwt>
</event>
<event>
12    1  0.4820219E-008  0.1876381E+04  0.7818608E-02  0.8666703E-01
         -2   -1    0    0    0  501 -0.00000000000E+00  0.00000000000E+00  0.43028601546E+03  0.43028601546E+03  0.00000000000E+00 0.  1.
          2   -1    0    0  501    0  0.00000000000E+00 -0.00000000000E+00 -0.20456183198E+04  0.20456183198E+04  0.00000000000E+00 0. -1.
         23    2    1    2    0    0  0.62413782305E+03 -0.31492404992E+03 -0.40939599457E+03  0.81511182713E+03  0.89872303712E+02 0.  0.
        254    2    1    2    0    0 -0.62413782305E+03  0.31492404992E+03 -0.12059363097E+04  0.16607925081E+04  0.90289766443E+03 0.  0.
         23    2    4    4    0    0  0.10433778468E+02 -0.21173661327E+03 -0.46057277626E+02  0.23470090495E+03  0.89565533723E+02 0.  0.
         23    2    4    4    0    0 -0.63457160152E+03  0.52666066319E+03 -0.11598790321E+04  0.14260916031E+04  0.91462122348E+02 0.  0.
         13    1    3    3    0    0  0.12219728550E+03 -0.10184207035E+03 -0.10509831959E+03  0.19065581727E+03  0.00000000000E+00 0. -1.
        -13    1    3    3    0    0  0.50194053755E+03 -0.21308197956E+03 -0.30429767499E+03  0.62445600987E+03  0.00000000000E+00 0.  1.
          4    1    6    6  502    0 -0.61103851484E+03  0.48418761850E+03 -0.10694890167E+04  0.13234849728E+04  0.00000000000E+00 0. -1.
          4    1    5    5  503    0  0.25045943376E+02 -0.10090541745E+03 -0.63102220468E+02  0.12161863664E+03  0.00000000000E+00 0. -1.
         -4    1    5    5    0  503 -0.14612164909E+02 -0.11083119582E+03  0.17044942842E+02  0.11308226831E+03  0.00000000000E+00 0.  1.
         -4    1    6    6    0  502 -0.23533086679E+02  0.42473044687E+02 -0.90390015410E+02  0.10260663029E+03  0.00000000000E+00 0.  1.
<mgrwt>
<rscale>  0 0.18763805E+04</rscale>
<asrwt>0</asrwt>
<pdfrwt beam="1">  1        2 0.31471051E+00 0.18763805E+04</pdfrwt>
<pdfrwt beam="2">  1       -2 0.66197849E-01 0.18763805E+04</pdfrwt>
<totfact> 0.12409906E+01</totfact>
</mgrwt>
</event>
<event>
12    1  0.4820219E-008  0.1931980E+04  0.7818608E-02  0.8639100E-01
         -1   -1    0    0    0  501 -0.00000000000E+00  0.00000000000E+00  0.11907662379E+04  0.11907662379E+04  0.00000000000E+00 0.  1.
          1   -1    0    0  501    0  0.00000000000E+00 -0.00000000000E+00 -0.78364383943E+03  0.78364383943E+03  0.00000000000E+00 0. -1.
         23    2    1    2    0    0  0.72266427358E+03  0.32435446495E+02  0.37809846238E+03  0.82122996375E+03  0.90357598507E+02 0.  0.
        254    2    1    2    0    0 -0.72266427358E+03 -0.32435446495E+02  0.29023936082E+02  0.11531801136E+04  0.89760028687E+03 0.  0.
         23    2    4    4    0    0  0.12589553149E+03  0.14891604173E+03  0.16248799967E+03  0.27054454437E+03  0.93628671439E+02 0.  0.
         23    2    4    4    0    0 -0.84855980507E+03 -0.18135148823E+03 -0.13346406359E+03  0.88263556921E+03  0.91053757193E+02 0.  0.
         11    1    3    3    0    0  0.24349082542E+03 -0.47604334212E+01  0.83214382818E+02  0.25736176348E+03  0.00000000000E+00 0.  1.
        -11    1    3    3    0    0  0.47917344816E+03  0.37195879916E+02  0.29488407956E+03  0.56386820027E+03  0.00000000000E+00 0. -1.
          4    1    6    6  502    0 -0.61276448294E+03 -0.12247586614E+03 -0.55234967601E+02  0.62732093141E+03  0.00000000000E+00 0.  1.
          4    1    5    5  503    0  0.28646733985E+02  0.19675128804E+02  0.83710692280E+02  0.90637884262E+02  0.00000000000E+00 0. -1.
         -4    1    5    5    0  503  0.97248797504E+02  0.12924091293E+03  0.78777307394E+02  0.17990666011E+03  0.00000000000E+00 0.  1.
         -4    1    6    6    0  502 -0.23579532213E+03 -0.58875622088E+02 -0.78229095991E+02  0.25531463780E+03  0.00000000000E+00 0. -1.
<mgrwt>
<rscale>  0 0.19319799E+04</rscale>
<asrwt>0</asrwt>
<pdfrwt beam="1">  1        1 0.12056059E+00 0.19319799E+04</pdfrwt>
<pdfrwt beam="2">  1       -1 0.18319481E+00 0.19319799E+04</pdfrwt>
<totfact> 0.42095911E+00</totfact>
</mgrwt>
</event>
<event>
12    1  0.4820219E-008  0.2867025E+04  0.7818608E-02  0.8282757E-01
          1   -1    0    0  501    0  0.00000000000E+00  0.00000000000E+00  0.17819703355E+04  0.17819703355E+04  0.00000000000E+00 0. -1.
         -1   -1    0    0    0  501 -0.00000000000E+00 -0.00000000000E+00 -0.11531940994E+04  0.11531940994E+04  0.00000000000E+00 0.  1.
         23    2    1    2    0    0  0.87301149246E+03  0.53883635105E+03 -0.51678461774E+03  0.11526194462E+04  0.94718358543E+02 0.  0.
        254    2    1    2    0    0 -0.87301149246E+03 -0.53883635105E+03  0.11455608538E+04  0.17825449887E+04  0.90147839005E+03 0.  0.
         23    2    4    4    0    0  0.53819515098E+02 -0.40363126272E+03  0.42606070499E+03  0.59786913952E+03  0.10052386383E+03 0.  0.
         23    2    4    4    0    0 -0.92683100756E+03 -0.13520508833E+03  0.71950014885E+03  0.11846758492E+04  0.92088386739E+02 0.  0.
         11    1    3    3    0    0  0.50371723482E+03  0.32842646442E+03 -0.35190271951E+03  0.69672844005E+03  0.00000000000E+00 0. -1.
        -11    1    3    3    0    0  0.36929425765E+03  0.21040988663E+03 -0.16488189823E+03  0.45589100615E+03  0.00000000000E+00 0.  1.
          2    1    5    5  502    0  0.35933513100E+02 -0.17275744331E+03  0.25444418202E+03  0.30964204067E+03  0.00000000000E+00 0. -1.
          4    1    6    6  503    0 -0.24128148626E+03 -0.17489952376E+02  0.23273747374E+03  0.33569239748E+03  0.00000000000E+00 0.  1.
         -2    1    5    5    0  502  0.17886001998E+02 -0.23087381941E+03  0.17161652297E+03  0.28822709886E+03  0.00000000000E+00 0.  1.
         -4    1    6    6    0  503 -0.68554952130E+03 -0.11771513595E+03  0.48676267511E+03  0.84898345171E+03  0.00000000000E+00 0. -1.
<mgrwt>
<rscale>  0 0.28670247E+04</rscale>
<asrwt>0</asrwt>
<pdfrwt beam="1">  1        1 0.27414928E+00 0.28670247E+04</pdfrwt>
<pdfrwt beam="2">  1       -1 0.17741448E+00 0.28670247E+04</pdfrwt>
<totfact> 0.78367787E-01</totfact>
</mgrwt>
</event>
<event>
12    1  0.4820219E-008  0.3114218E+04  0.7818608E-02  0.8211847E-01
         -2   -1    0    0    0  501 -0.00000000000E+00  0.00000000000E+00  0.13371329379E+04  0.13371329379E+04  0.00000000000E+00 0.  1.
          2   -1    0    0  501    0  0.00000000000E+00 -0.00000000000E+00 -0.18132745045E+04  0.18132745045E+04  0.00000000000E+00 0. -1.
         23    2    1    2    0    0 -0.10663498515E+04  0.33190859010E+03 -0.11129506109E+04  0.15792796608E+04  0.90553114933E+02 0.  0.
        254    2    1    2    0    0  0.10663498515E+04 -0.33190859010E+03  0.63680904435E+03  0.15711277815E+04  0.90313422529E+03 0.  0.
         23    2    4    4    0    0  0.31565104709E+03 -0.55872405575E+03  0.27678074088E+03  0.70444337219E+03  0.88457515780E+02 0.  0.
         23    2    4    4    0    0  0.75069880442E+03  0.22681546565E+03  0.36002830347E+03  0.86668440932E+03  0.80793165836E+02 0.  0.
         13    1    3    3    0    0 -0.71648561291E+03  0.26703450399E+03 -0.76358816060E+03  0.10806136862E+04  0.00000000000E+00 0. -1.
        -13    1    3    3    0    0 -0.34986423860E+03  0.64874086114E+02 -0.34936245034E+03  0.49866597458E+03  0.00000000000E+00 0.  1.
          1    1    6    6  502    0  0.48787637739E+03  0.17836867216E+03  0.26407963841E+03  0.58273218398E+03  0.00000000000E+00 0. -1.
          1    1    5    5  503    0  0.12861965930E+03 -0.15333048825E+03  0.66047107236E+02  0.21074979422E+03  0.00000000000E+00 0. -1.
         -1    1    5    5    0  503  0.18703138778E+03 -0.40539356750E+03  0.21073363365E+03  0.49369357798E+03  0.00000000000E+00 0.  1.
         -1    1    6    6    0  502  0.26282242703E+03  0.48446793493E+02  0.95948665056E+02  0.28395222534E+03  0.00000000000E+00 0.  1.
<mgrwt>
<rscale>  0 0.31142184E+04</rscale>
<asrwt>0</asrwt>
<pdfrwt beam="1">  1        2 0.27896531E+00 0.31142184E+04</pdfrwt>
<pdfrwt beam="2">  1       -2 0.20571276E+00 0.31142184E+04</pdfrwt>
<totfact> 0.87816833E-01</totfact>
</mgrwt>
</event>
<event>
12    1  0.4820219E-008  0.1809109E+04  0.7818608E-02  0.8701470E-01
         -2   -1    0    0    0  501 -0.00000000000E+00  0.00000000000E+00  0.91870531106E+03  0.91870531106E+03  0.00000000000E+00 0.  1.
          2   -1    0    0  501    0  0.00000000000E+00 -0.00000000000E+00 -0.89062185577E+03  0.89062185577E+03  0.00000000000E+00 0. -1.
         23    2    1    2    0    0 -0.59430038065E+03  0.29447831472E+03 -0.12590277706E+03  0.68108650748E+03  0.90093846182E+02 0.  0.
        254    2    1    2    0    0  0.59430038065E+03 -0.29447831472E+03  0.15398623235E+03  0.11282406594E+04  0.89961369786E+03 0.  0.
         23    2    4    4    0    0  0.14777626370E+03 -0.14364066010E+03 -0.35957929220E+03  0.42420625025E+03  0.90461107799E+02 0.  0.
         23    2    4    4    0    0  0.44652411695E+03 -0.15083765461E+03  0.51356552456E+03  0.70403440910E+03  0.98889413550E+02 0.  0.
         13    1    3    3    0    0 -0.45152281434E+03  0.20733714027E+03 -0.56734861067E+02  0.50008037960E+03  0.00000000000E+00 0.  1.
        -13    1    3    3    0    0 -0.14277756631E+03  0.87141174449E+02 -0.69167915994E+02  0.18100612787E+03  0.00000000000E+00 0. -1.
          1    1    5    5  502    0  0.93127786912E+02 -0.48089563867E+02 -0.23881970004E+03  0.26080690171E+03  0.00000000000E+00 0. -1.
          3    1    6    6  503    0  0.11696640326E+03 -0.78707848909E+02  0.11558747784E+03  0.18230888625E+03  0.00000000000E+00 0. -1.
         -1    1    5    5    0  502  0.54648476787E+02 -0.95551096238E+02 -0.12075959216E+03  0.16339934855E+03  0.00000000000E+00 0.  1.
         -3    1    6    6    0  503  0.32955771369E+03 -0.72129805702E+02  0.39797804672E+03  0.52172552285E+03  0.00000000000E+00 0.  1.
<mgrwt>
<rscale>  0 0.18091092E+04</rscale>
<asrwt>0</asrwt>
<pdfrwt beam="1">  1        2 0.13701875E+00 0.18091092E+04</pdfrwt>
<pdfrwt beam="2">  1       -2 0.14133928E+00 0.18091092E+04</pdfrwt>
<totfact> 0.98329780E+00</totfact>
</mgrwt>
</event>
<event>
12    1  0.4820219E-008  0.1052452E+04  0.7818608E-02  0.9252816E-01
          2   -1    0    0  501    0  0.00000000000E+00  0.00000000000E+00  0.11130120667E+04  0.11130120667E+04  0.00000000000E+00 0. -1.
         -2   -1    0    0    0  501 -0.00000000000E+00 -0.00000000000E+00 -0.24879677185E+03  0.24879677185E+03  0.00000000000E+00 0.  1.
         23    2    1    2    0    0 -0.77612662761E+02  0.62988053291E+02  0.33043408070E+02  0.14071322110E+03  0.93365536985E+02 0.  0.
        254    2    1    2    0    0  0.77612662761E+02 -0.62988053291E+02  0.83117188677E+03  0.12210956174E+04  0.88895251915E+03 0.  0.
         23    2    4    4    0    0  0.14379411643E+03  0.88760536863E+02  0.96834329687E+03  0.98711600145E+03  0.90299938535E+02 0.  0.
         23    2    4    4    0    0 -0.66181453673E+02 -0.15174859015E+03 -0.13717141011E+03  0.23397961599E+03  0.92319258674E+02 0.  0.
         13    1    3    3    0    0 -0.65025270529E+02  0.55075130573E+02 -0.18387805608E+02  0.87176070169E+02  0.00000000000E+00 0.  1.
        -13    1    3    3    0    0 -0.12587392232E+02  0.79129227181E+01  0.51431213678E+02  0.53537150928E+02  0.00000000000E+00 0. -1.
          4    1    5    5  502    0  0.15465076261E+03  0.70600459369E+02  0.88038575565E+03  0.89664952016E+03  0.00000000000E+00 0. -1.
          3    1    6    6  503    0 -0.61326985795E+02 -0.47236416603E+02 -0.26844564649E+02  0.81932343378E+02  0.00000000000E+00 0. -1.
         -4    1    5    5    0  502 -0.10856646175E+02  0.18160077493E+02  0.87957541221E+02  0.90466481298E+02  0.00000000000E+00 0.  1.
         -3    1    6    6    0  503 -0.48544678785E+01 -0.10451217355E+03 -0.11032684546E+03  0.15204727261E+03  0.00000000000E+00 0.  1.
<mgrwt>
<rscale>  0 0.10524520E+04</rscale>
<asrwt>0</asrwt>
<pdfrwt beam="1">  1        2 0.17123262E+00 0.10524520E+04</pdfrwt>
<pdfrwt beam="2">  1       -2 0.38276427E-01 0.10524520E+04</pdfrwt>
<totfact> 0.13711030E+02</totfact>
</mgrwt>
</event>
<event>
12    1  0.4820219E-008  0.2549233E+04  0.7818608E-02  0.8385653E-01
          2   -1    0    0  501    0  0.00000000000E+00  0.00000000000E+00  0.16798249864E+04  0.16798249864E+04  0.00000000000E+00 0. -1.
         -2   -1    0    0    0  501 -0.00000000000E+00 -0.00000000000E+00 -0.96715277159E+03  0.96715277159E+03  0.00000000000E+00 0.  1.
         23    2    1    2    0    0  0.90060640953E+03  0.55707563053E+03  0.67652021892E+03  0.12598533552E+04  0.90142703237E+02 0.  0.
        254    2    1    2    0    0 -0.90060640953E+03 -0.55707563053E+03  0.36151995868E+02  0.13871244028E+04  0.89519940737E+03 0.  0.
         23    2    4    4    0    0 -0.34201128181E+03 -0.71486519638E+03 -0.66961146704E+01  0.79767326125E+03  0.90740442359E+02 0.  0.
         23    2    4    4    0    0 -0.55859512772E+03  0.15778956585E+03  0.42848110539E+02  0.58945114153E+03  0.93223515633E+02 0.  0.
         11    1    3    3    0    0  0.72302893309E+03  0.43601275702E+03  0.49637694056E+03  0.97942229375E+03  0.00000000000E+00 0.  1.
        -11    1    3    3    0    0  0.17757747644E+03  0.12106287351E+03  0.18014327835E+03  0.28043106144E+03  0.00000000000E+00 0. -1.
          4    1    5    5  502    0 -0.26841361570E+03 -0.58277480350E+03  0.29126737275E+02  0.64227774951E+03  0.00000000000E+00 0. -1.
          1    1    6    6  503    0 -0.14305366920E+03  0.55929683381E+02 -0.26970111831E+02  0.15594828850E+03  0.00000000000E+00 0. -1.
         -4    1    5    5    0  502 -0.73597666112E+02 -0.13209039288E+03 -0.35822851946E+02  0.15539551174E+03  0.00000000000E+00 0.  1.
         -1    1    6    6    0  503 -0.41554145852E+03  0.10185988247E+03  0.69818222369E+02  0.43350285303E+03  0.00000000000E+00 0.  1.
<mgrwt>
<rscale>  0 0.25492331E+04</rscale>
<asrwt>0</asrwt>
<pdfrwt beam="1">  1        2 0.25843461E+00 0.25492331E+04</pdfrwt>
<pdfrwt beam="2">  1       -2 0.14879273E+00 0.25492331E+04</pdfrwt>
<totfact> 0.27368755E+00</totfact>
</mgrwt>
</event>
<event>
12    1  0.4820219E-008  0.1765873E+04  0.7818608E-02  0.8724661E-01
          2   -1    0    0  501    0  0.00000000000E+00  0.00000000000E+00  0.44465031233E+04  0.44465031233E+04  0.00000000000E+00 0.  1.
         -2   -1    0    0    0  501 -0.00000000000E+00 -0.00000000000E+00 -0.17532353838E+03  0.17532353838E+03  0.00000000000E+00 0. -1.
         23    2    1    2    0    0 -0.46250302787E+03 -0.43773870294E+03  0.18177949777E+04  0.19283098117E+04  0.92064793469E+02 0.  0.
        254    2    1    2    0    0  0.46250302787E+03  0.43773870294E+03  0.24533846072E+04  0.26935168499E+04  0.91126986517E+03 0.  0.
         23    2    4    4    0    0 -0.17427569670E+03 -0.14253412794E+03  0.46112700271E+03  0.52095534132E+03  0.89824044311E+02 0.  0.
         23    2    4    4    0    0  0.63677872457E+03  0.58027283088E+03  0.19922576045E+04  0.21725615086E+04  0.93431492066E+02 0.  0.
         13    1    3    3    0    0 -0.46396067562E+03 -0.43122858009E+03  0.17674390156E+04  0.18775138536E+04  0.00000000000E+00 0. -1.
        -13    1    3    3    0    0  0.14576477573E+01 -0.65101228430E+01  0.50355962123E+02  0.50795958085E+02  0.00000000000E+00 0.  1.
          3    1    5    5  502    0  0.88172379964E+01 -0.90951648174E+01  0.49532334842E+02  0.51126489258E+02  0.00000000000E+00 0. -1.
          3    1    6    6  503    0  0.29769219769E+02  0.28866809841E+02  0.55003189311E+02  0.68882871532E+02  0.00000000000E+00 0. -1.
         -3    1    5    5    0  502 -0.18309293470E+03 -0.13343896312E+03  0.41159466786E+03  0.46982885206E+03  0.00000000000E+00 0.  1.
         -3    1    6    6    0  503  0.60700950480E+03  0.55140602104E+03  0.19372544152E+04  0.21036786371E+04  0.00000000000E+00 0.  1.
<mgrwt>
<rscale>  0 0.17658728E+04</rscale>
<asrwt>0</asrwt>
<pdfrwt beam="1">  1        2 0.68407732E+00 0.17658728E+04</pdfrwt>
<pdfrwt beam="2">  1       -2 0.26972855E-01 0.17658728E+04</pdfrwt>
<totfact> 0.16771891E+00</totfact>
</mgrwt>
</event>
<event>
12    1  0.4820219E-008  0.1984778E+04  0.7818608E-02  0.8613771E-01
          1   -1    0    0  501    0  0.00000000000E+00  0.00000000000E+00  0.37616671493E+04  0.37616671493E+04  0.00000000000E+00 0. -1.
         -1   -1    0    0    0  501 -0.00000000000E+00 -0.00000000000E+00 -0.26180836822E+03  0.26180836822E+03  0.00000000000E+00 0.  1.
         23    2    1    2    0    0 -0.74034314674E+03 -0.14138167319E+03  0.18455225593E+04  0.19955194697E+04  0.89708887989E+02 0.  0.
        254    2    1    2    0    0  0.74034314674E+03  0.14138167319E+03  0.16543362218E+04  0.20279560479E+04  0.89871054564E+03 0.  0.
         23    2    4    4    0    0  0.27163781423E+02 -0.21808820041E+03  0.64055505455E+02  0.24618936550E+03  0.90585659600E+02 0.  0.
         23    2    4    4    0    0  0.71317936531E+03  0.35946987360E+03  0.15902807164E+04  0.17817666824E+04  0.88636090041E+02 0.  0.
         13    1    3    3    0    0 -0.16285486440E+03 -0.37919287882E+02  0.51294926549E+03  0.53951508619E+03  0.00000000000E+00 0. -1.
        -13    1    3    3    0    0 -0.57748828233E+03 -0.10346238531E+03  0.13325732938E+04  0.14560043835E+04  0.00000000000E+00 0.  1.
          2    1    5    5  502    0  0.18216524345E+02 -0.15079558508E+03 -0.13850856616E+01  0.15189821823E+03  0.00000000000E+00 0.  1.
          1    1    6    6  503    0  0.13626747599E+03  0.96970380643E+02  0.27791680379E+03  0.32436064737E+03  0.00000000000E+00 0. -1.
         -2    1    5    5    0  502  0.89472570783E+01 -0.67292615327E+02  0.65440591117E+02  0.94291147265E+02  0.00000000000E+00 0. -1.
         -1    1    6    6    0  503  0.57691188933E+03  0.26249949296E+03  0.13123639126E+04  0.14574060350E+04  0.00000000000E+00 0.  1.
<mgrwt>
<rscale>  0 0.19847780E+04</rscale>
<asrwt>0</asrwt>
<pdfrwt beam="1">  1        1 0.57871798E+00 0.19847780E+04</pdfrwt>
<pdfrwt beam="2">  1       -1 0.40278213E-01 0.19847780E+04</pdfrwt>
<totfact> 0.86263479E-01</totfact>
</mgrwt>
</event>
<event>
12    1  0.4820219E-008  0.1585066E+04  0.7818608E-02  0.8829775E-01
         -1   -1    0    0    0  501 -0.00000000000E+00  0.00000000000E+00  0.11192399498E+04  0.11192399498E+04  0.00000000000E+00 0.  1.
          1   -1    0    0  501    0  0.00000000000E+00 -0.00000000000E+00 -0.56119207269E+03  0.56119207269E+03  0.00000000000E+00 0. -1.
         23    2    1    2    0    0  0.23878806507E+03 -0.35553531990E+03 -0.11654960372E+03  0.45316756379E+03  0.91388878002E+02 0.  0.
        254    2    1    2    0    0 -0.23878806507E+03  0.35553531990E+03  0.67459748088E+03  0.12272644587E+04  0.93148869385E+03 0.  0.
         23    2    4    4    0    0  0.26127903157E+03  0.23854075832E+03 -0.12830824723E+02  0.36422865496E+03  0.85612249774E+02 0.  0.
         23    2    4    4    0    0 -0.50006709665E+03  0.11699456158E+03  0.68742830560E+03  0.86303580379E+03  0.92294608126E+02 0.  0.
         13    1    3    3    0    0  0.22201732960E+03 -0.30725929873E+03 -0.73043028536E+02  0.38605084551E+03  0.00000000000E+00 0.  1.
        -13    1    3    3    0    0  0.16770735479E+02 -0.48276021168E+02 -0.43506575188E+02  0.67116718281E+02  0.00000000000E+00 0. -1.
          2    1    5    5  502    0  0.31032499036E+02  0.75271373365E+02  0.35457886044E+01  0.81494590382E+02  0.00000000000E+00 0. -1.
          1    1    6    6  503    0 -0.12956854319E+03  0.78113697430E+01  0.12104631357E+03  0.17748587243E+03  0.00000000000E+00 0. -1.
         -2    1    5    5    0  502  0.23024653254E+03  0.16326938496E+03 -0.16376613327E+02  0.28273406458E+03  0.00000000000E+00 0.  1.
         -1    1    6    6    0  503 -0.37049855345E+03  0.10918319184E+03  0.56638199202E+03  0.68554993135E+03  0.00000000000E+00 0.  1.
<mgrwt>
<rscale>  0 0.15850660E+04</rscale>
<asrwt>0</asrwt>
<pdfrwt beam="1">  1        1 0.86337242E-01 0.15850660E+04</pdfrwt>
<pdfrwt beam="2">  1       -1 0.17219076E+00 0.15850660E+04</pdfrwt>
<totfact> 0.85868987E+00</totfact>
</mgrwt>
</event>
<event>
12    1  0.4820219E-008  0.3452011E+04  0.7818608E-02  0.8125258E-01
          2   -1    0    0  501    0  0.00000000000E+00  0.00000000000E+00  0.30317571935E+04  0.30317571935E+04  0.00000000000E+00 0.  1.
         -2   -1    0    0    0  501 -0.00000000000E+00 -0.00000000000E+00 -0.98262952377E+03  0.98262952377E+03  0.00000000000E+00 0. -1.
         23    2    1    2    0    0 -0.66615526104E+03 -0.78981445200E+03 -0.47670307257E+03  0.11415919794E+04  0.91742724952E+02 0.  0.
        254    2    1    2    0    0  0.66615526104E+03  0.78981445200E+03  0.25258307423E+04  0.28727947379E+04  0.89752936831E+03 0.  0.
         23    2    4    4    0    0  0.20075788134E+03  0.42852846572E+03  0.29877030547E+03  0.56735545480E+03  0.93210212987E+02 0.  0.
         23    2    4    4    0    0  0.46539737970E+03  0.36128598628E+03  0.22270604368E+04  0.23054392831E+04  0.90165480530E+02 0.  0.
         13    1    3    3    0    0 -0.63366829693E+03 -0.77062012740E+03 -0.44554964808E+03  0.10926597733E+04  0.00000000000E+00 0. -1.
        -13    1    3    3    0    0 -0.32486964114E+02 -0.19194324598E+02 -0.31153424486E+02  0.48932206075E+02  0.00000000000E+00 0.  1.
          4    1    5    5  502    0  0.10616993005E+03  0.15962304908E+03  0.78695909143E+02  0.20723083256E+03  0.00000000000E+00 0.  1.
          3    1    6    6  503    0  0.50926677605E+01  0.10444434447E+02  0.11266640532E+03  0.11326402943E+03  0.00000000000E+00 0. -1.
         -4    1    5    5    0  502  0.94587951287E+02  0.26890541663E+03  0.22007439633E+03  0.36012462224E+03  0.00000000000E+00 0. -1.
         -3    1    6    6    0  503  0.46030471194E+03  0.35084155183E+03  0.21143940315E+04  0.21921752537E+04  0.00000000000E+00 0.  1.
<mgrwt>
<rscale>  0 0.34520105E+04</rscale>
<asrwt>0</asrwt>
<pdfrwt beam="1">  1        2 0.46642418E+00 0.34520105E+04</pdfrwt>
<pdfrwt beam="2">  1       -2 0.15117377E+00 0.34520105E+04</pdfrwt>
<totfact> 0.40226555E-01</totfact>
</mgrwt>
</event>
<event>
12    1  0.4820219E-008  0.1750366E+04  0.7818608E-02  0.8733149E-01
          1   -1    0    0  501    0  0.00000000000E+00  0.00000000000E+00  0.17192131872E+04  0.17192131872E+04  0.00000000000E+00 0. -1.
         -1   -1    0    0    0  501 -0.00000000000E+00 -0.00000000000E+00 -0.44552061683E+03  0.44552061683E+03  0.00000000000E+00 0.  1.
         23    2    1    2    0    0  0.47302945532E+03  0.18903087065E+03  0.94406046525E+03  0.10787820867E+04  0.11415381205E+03 0.  0.
        254    2    1    2    0    0 -0.47302945532E+03 -0.18903087065E+03  0.32963210509E+03  0.10859517173E+04  0.90063548233E+03 0.  0.
         23    2    4    4    0    0  0.12870107897E+02 -0.79106739918E+02  0.52917425600E+03  0.54283833169E+03  0.90689278083E+02 0.  0.
         23    2    4    4    0    0 -0.48589956321E+03 -0.10992413073E+03 -0.19954215090E+03  0.54311338566E+03  0.83506764065E+02 0.  0.
         13    1    3    3    0    0  0.76840486910E+02 -0.22198145076E+01  0.20174673700E+03  0.21589611830E+03  0.00000000000E+00 0.  1.
        -13    1    3    3    0    0  0.39618896841E+03  0.19125068515E+03  0.74231372825E+03  0.86288596837E+03  0.00000000000E+00 0. -1.
          4    1    5    5  502    0  0.42850959071E+02 -0.84544093466E+01  0.16663764101E+03  0.17226661061E+03  0.00000000000E+00 0. -1.
          1    1    6    6  503    0 -0.46014746036E+03 -0.12130058959E+03 -0.19633386519E+03  0.51477811233E+03  0.00000000000E+00 0. -1.
         -4    1    5    5    0  502 -0.29980851174E+02 -0.70652330572E+02  0.36253661499E+03  0.37057172108E+03  0.00000000000E+00 0.  1.
         -1    1    6    6    0  503 -0.25752102850E+02  0.11376458858E+02 -0.32082857168E+01  0.28335273329E+02  0.00000000000E+00 0.  1.
<mgrwt>
<rscale>  0 0.17503656E+04</rscale>
<asrwt>0</asrwt>
<pdfrwt beam="1">  1        1 0.26449433E+00 0.17503656E+04</pdfrwt>
<pdfrwt beam="2">  1       -1 0.68541634E-01 0.17503656E+04</pdfrwt>
<totfact> 0.94396002E+00</totfact>
</mgrwt>
</event>
<event>
12    1  0.4820219E-008  0.1752230E+04  0.7818608E-02  0.8732124E-01
          2   -1    0    0  501    0  0.00000000000E+00  0.00000000000E+00  0.92664247864E+03  0.92664247864E+03  0.00000000000E+00 0. -1.
         -2   -1    0    0    0  501 -0.00000000000E+00 -0.00000000000E+00 -0.82834250650E+03  0.82834250650E+03  0.00000000000E+00 0.  1.
         23    2    1    2    0    0 -0.31200943764E+03  0.55887077498E+03  0.30031244221E+02  0.64721887027E+03  0.91126056123E+02 0.  0.
        254    2    1    2    0    0  0.31200943764E+03 -0.55887077498E+03  0.68268727920E+02  0.11077661149E+04  0.90155350021E+03 0.  0.
         23    2    4    4    0    0  0.38191507310E+03  0.91387611005E+02 -0.12163944198E+03  0.42079119336E+03  0.89767789649E+02 0.  0.
         23    2    4    4    0    0 -0.69905635455E+02 -0.65025838598E+03  0.18990816990E+03  0.68697492151E+03  0.90258868728E+02 0.  0.
         13    1    3    3    0    0 -0.75879583907E+02  0.15840194475E+03 -0.30921167932E+02  0.17833958052E+03  0.00000000000E+00 0.  1.
        -13    1    3    3    0    0 -0.23612985374E+03  0.40046883023E+03  0.60952412153E+02  0.46887928975E+03  0.00000000000E+00 0. -1.
          3    1    5    5  502    0  0.12694224709E+02  0.21230295114E+02  0.28099623911E+01  0.24895073011E+02  0.00000000000E+00 0. -1.
          3    1    6    6  503    0 -0.39734066483E+02 -0.14575681996E+03  0.75026685476E+02  0.16867972652E+03  0.00000000000E+00 0. -1.
         -3    1    5    5    0  502  0.36922084839E+03  0.70157315891E+02 -0.12444940437E+03  0.39589612035E+03  0.00000000000E+00 0.  1.
         -3    1    6    6    0  503 -0.30171568972E+02 -0.50450156602E+03  0.11488148442E+03  0.51829519499E+03  0.00000000000E+00 0.  1.
<mgrwt>
<rscale>  0 0.17522298E+04</rscale>
<asrwt>0</asrwt>
<pdfrwt beam="1">  1        2 0.14256038E+00 0.17522298E+04</pdfrwt>
<pdfrwt beam="2">  1       -2 0.12743731E+00 0.17522298E+04</pdfrwt>
<totfact> 0.12177433E+01</totfact>
</mgrwt>
</event>
<event>
12    1  0.4820219E-008  0.1734564E+04  0.7818608E-02  0.8741893E-01
         -2   -1    0    0    0  501 -0.00000000000E+00  0.00000000000E+00  0.43273603484E+03  0.43273603484E+03  0.00000000000E+00 0.  1.
          2   -1    0    0  501    0  0.00000000000E+00 -0.00000000000E+00 -0.17381911354E+04  0.17381911354E+04  0.00000000000E+00 0. -1.
         23    2    1    2    0    0 -0.52301660496E+03  0.50332817416E+02 -0.64270959761E+02  0.53747149142E+03  0.93086445023E+02 0.  0.
        254    2    1    2    0    0  0.52301660496E+03 -0.50332817416E+02 -0.12411841408E+04  0.16334556788E+04  0.92279988171E+03 0.  0.
         23    2    4    4    0    0 -0.19185341319E+03 -0.20483992970E+03 -0.54069626184E+03  0.61618210958E+03  0.92524675884E+02 0.  0.
         23    2    4    4    0    0  0.71487001815E+03  0.15450711228E+03 -0.70048787894E+03  0.10172735692E+04  0.96180327915E+02 0.  0.
         13    1    3    3    0    0 -0.42686205942E+03  0.51663355301E+02 -0.16989299289E+02  0.43031262629E+03  0.00000000000E+00 0.  1.
        -13    1    3    3    0    0 -0.96154545542E+02 -0.13305378858E+01 -0.47281660472E+02  0.10715886513E+03  0.00000000000E+00 0. -1.
          4    1    5    5  502    0 -0.17696040017E+02 -0.61093892703E+02 -0.17701954402E+03  0.18809979406E+03  0.00000000000E+00 0. -1.
          3    1    6    6  503    0  0.22963457308E+03  0.54190257780E+02 -0.28982162820E+03  0.37371807203E+03  0.00000000000E+00 0. -1.
         -4    1    5    5    0  502 -0.17415737317E+03 -0.14374603700E+03 -0.36367671782E+03  0.42808231553E+03  0.00000000000E+00 0.  1.
         -3    1    6    6    0  503  0.48523544508E+03  0.10031685450E+03 -0.41066625074E+03  0.64355549718E+03  0.00000000000E+00 0.  1.
<mgrwt>
<rscale>  0 0.17345639E+04</rscale>
<asrwt>0</asrwt>
<pdfrwt beam="1">  1        2 0.26741403E+00 0.17345639E+04</pdfrwt>
<pdfrwt beam="2">  1       -2 0.66574774E-01 0.17345639E+04</pdfrwt>
<totfact> 0.18371423E+01</totfact>
</mgrwt>
</event>
<event>
12    1  0.4820219E-008  0.1456334E+04  0.7818608E-02  0.8914021E-01
          1   -1    0    0  501    0  0.00000000000E+00  0.00000000000E+00  0.14212394949E+04  0.14212394949E+04  0.00000000000E+00 0. -1.
         -1   -1    0    0    0  501 -0.00000000000E+00 -0.00000000000E+00 -0.37307381164E+03  0.37307381164E+03  0.00000000000E+00 0.  1.
         23    2    1    2    0    0 -0.32678581268E+03 -0.14444719876E+03  0.68807583484E+03  0.78099246222E+03  0.94058019070E+02 0.  0.
        254    2    1    2    0    0  0.32678581268E+03  0.14444719876E+03  0.36008984838E+03  0.10133208443E+04  0.87721176116E+03 0.  0.
         23    2    4    4    0    0  0.35407783437E+03  0.47401032540E+03  0.18343222469E+03  0.62718309484E+03  0.98256562274E+02 0.  0.
         23    2    4    4    0    0 -0.27292021683E+02 -0.32956312664E+03  0.17665762368E+03  0.38613774942E+03  0.92399873572E+02 0.  0.
         11    1    3    3    0    0 -0.13659497610E+03 -0.24314472013E+02  0.33182097842E+03  0.35965892560E+03  0.00000000000E+00 0.  1.
        -11    1    3    3    0    0 -0.19019083659E+03 -0.12013272674E+03  0.35625485642E+03  0.42133353662E+03  0.00000000000E+00 0. -1.
          2    1    5    5  502    0  0.12153619803E+03  0.22377763004E+03  0.11199526665E+03  0.27819132785E+03  0.00000000000E+00 0. -1.
          3    1    6    6  503    0 -0.22395426874E+02 -0.31313047055E+03  0.13621174426E+03  0.34220737281E+03  0.00000000000E+00 0. -1.
         -2    1    5    5    0  502  0.23254163634E+03  0.25023269535E+03  0.71436958044E+02  0.34899176700E+03  0.00000000000E+00 0.  1.
         -3    1    6    6    0  503 -0.48965948096E+01 -0.16432656085E+02  0.40445879420E+02  0.43930376607E+02  0.00000000000E+00 0.  1.
<mgrwt>
<rscale>  0 0.14563341E+04</rscale>
<asrwt>0</asrwt>
<pdfrwt beam="1">  1        1 0.21865223E+00 0.14563341E+04</pdfrwt>
<pdfrwt beam="2">  1       -1 0.57395972E-01 0.14563341E+04</pdfrwt>
<totfact> 0.22152009E+01</totfact>
</mgrwt>
</event>
<event>
12    1  0.4820219E-008  0.1816539E+04  0.7818608E-02  0.8697554E-01
         -1   -1    0    0    0  501 -0.00000000000E+00  0.00000000000E+00  0.19369165559E+03  0.19369165559E+03  0.00000000000E+00 0.  1.
          1   -1    0    0  501    0  0.00000000000E+00 -0.00000000000E+00 -0.42591046720E+04  0.42591046720E+04  0.00000000000E+00 0. -1.
         23    2    1    2    0    0  0.11972857145E+03 -0.46311787795E+03 -0.27377921313E+03  0.55863172735E+03  0.91111193390E+02 0.  0.
        254    2    1    2    0    0 -0.11972857145E+03  0.46311787795E+03 -0.37916338033E+04  0.38941646002E+04  0.74780875619E+03 0.  0.
         23    2    4    4    0    0  0.87634132971E+02 -0.94038150128E+02 -0.19563842801E+04  0.19628564376E+04  0.94037378495E+02 0.  0.
         23    2    4    4    0    0 -0.20736270443E+03  0.55715602808E+03 -0.18352495232E+04  0.19313081626E+04  0.91587529875E+02 0.  0.
         13    1    3    3    0    0  0.82207333390E+02 -0.31834981711E+03 -0.13779524636E+03  0.35649990412E+03  0.00000000000E+00 0. -1.
        -13    1    3    3    0    0  0.37521238065E+02 -0.14476806085E+03 -0.13598396677E+03  0.20213182324E+03  0.00000000000E+00 0.  1.
          4    1    5    5  502    0  0.20395018083E+02 -0.26634707857E+01 -0.92896269186E+03  0.92919036462E+03  0.00000000000E+00 0. -1.
          3    1    6    6  503    0 -0.11610869914E+01  0.58534083524E+02 -0.24933662646E+03  0.25611782513E+03  0.00000000000E+00 0. -1.
         -4    1    5    5    0  502  0.67239114889E+02 -0.91374679343E+02 -0.10274215882E+04  0.10336660730E+04  0.00000000000E+00 0.  1.
         -3    1    6    6    0  503 -0.20620161743E+03  0.49862194456E+03 -0.15859128968E+04  0.16751903375E+04  0.00000000000E+00 0.  1.
<mgrwt>
<rscale>  0 0.18165385E+04</rscale>
<asrwt>0</asrwt>
<pdfrwt beam="1">  1        1 0.65524680E+00 0.18165385E+04</pdfrwt>
<pdfrwt beam="2">  1       -1 0.29798720E-01 0.18165385E+04</pdfrwt>
<totfact> 0.54948806E-01</totfact>
</mgrwt>
</event>
<event>
12    1  0.4820219E-008  0.2865098E+04  0.7818608E-02  0.8283338E-01
         -2   -1    0    0    0  501 -0.00000000000E+00  0.00000000000E+00  0.79736228041E+03  0.79736228041E+03  0.00000000000E+00 0.  1.
          2   -1    0    0  501    0  0.00000000000E+00 -0.00000000000E+00 -0.25737312198E+04  0.25737312198E+04  0.00000000000E+00 0. -1.
         23    2    1    2    0    0  0.87868537586E+02 -0.12859272688E+04 -0.80661550239E+03  0.15246695918E+04  0.11251211057E+03 0.  0.
        254    2    1    2    0    0 -0.87868537586E+02  0.12859272688E+04 -0.96975343705E+03  0.18464239084E+04  0.89862656341E+03 0.  0.
         23    2    4    4    0    0  0.21225939875E+01  0.47414597609E+02  0.14350375098E+03  0.17609780598E+03  0.90357408416E+02 0.  0.
         23    2    4    4    0    0 -0.89991131573E+02  0.12385126712E+04 -0.11132571880E+04  0.16703261024E+04  0.92928367102E+02 0.  0.
         11    1    3    3    0    0  0.58139034409E+02 -0.58677959709E+03 -0.30654288430E+03  0.66457428689E+03  0.00000000000E+00 0. -1.
        -11    1    3    3    0    0  0.29729503177E+02 -0.69914767169E+03 -0.50007261809E+03  0.86009530493E+03  0.00000000000E+00 0.  1.
          1    1    5    5  502    0  0.59000438156E+01  0.64860126012E+02  0.14420946404E+03  0.15823405443E+03  0.00000000000E+00 0. -1.
          1    1    6    6  503    0 -0.10271412293E+03  0.10208423440E+04 -0.94546015163E+03  0.13951932414E+04  0.00000000000E+00 0. -1.
         -1    1    5    5    0  502 -0.37774498281E+01 -0.17445528403E+02 -0.70571306420E+00  0.17863751549E+02  0.00000000000E+00 0.  1.
         -1    1    6    6    0  503  0.12722991359E+02  0.21767032715E+03 -0.16779703639E+03  0.27513286109E+03  0.00000000000E+00 0.  1.
<mgrwt>
<rscale>  0 0.28650977E+04</rscale>
<asrwt>0</asrwt>
<pdfrwt beam="1">  1        2 0.39595865E+00 0.28650977E+04</pdfrwt>
<pdfrwt beam="2">  1       -2 0.12267112E+00 0.28650977E+04</pdfrwt>
<totfact> 0.13713766E+00</totfact>
</mgrwt>
</event>
<event>
12    1  0.4820219E-008  0.1711595E+04  0.7818608E-02  0.8754779E-01
          1   -1    0    0  501    0  0.00000000000E+00  0.00000000000E+00  0.20085958146E+04  0.20085958146E+04  0.00000000000E+00 0. -1.
         -1   -1    0    0    0  501 -0.00000000000E+00 -0.00000000000E+00 -0.36462766942E+03  0.36462766942E+03  0.00000000000E+00 0.  1.
         23    2    1    2    0    0 -0.19849122195E+03 -0.50987391227E+03  0.19506957838E+03  0.58737644261E+03  0.87113565633E+02 0.  0.
        254    2    1    2    0    0  0.19849122195E+03  0.50987391227E+03  0.14488985668E+04  0.17858470414E+04  0.88914139866E+03 0.  0.
         23    2    4    4    0    0 -0.24988083605E+03  0.22720265992E+03  0.14734173356E+03  0.37753189598E+03  0.82214750104E+02 0.  0.
         23    2    4    4    0    0  0.44837205800E+03  0.28267125235E+03  0.13015568332E+04  0.14083151454E+04  0.91437516310E+02 0.  0.
         11    1    3    3    0    0 -0.16288260321E+03 -0.48080558080E+03  0.17238432717E+03  0.53611668992E+03  0.00000000000E+00 0.  1.
        -11    1    3    3    0    0 -0.35608618746E+02 -0.29068331471E+02  0.22685251210E+02  0.51259752691E+02  0.00000000000E+00 0. -1.
          2    1    5    5  502    0 -0.19905477897E+03  0.16640596175E+03  0.14718064355E+03  0.29828826825E+03  0.00000000000E+00 0. -1.
          3    1    6    6  503    0  0.12048031072E+03  0.44271896989E+02  0.24364616108E+03  0.27538873969E+03  0.00000000000E+00 0. -1.
         -2    1    5    5    0  502 -0.50826057079E+02  0.60796698173E+02  0.16109001084E+00  0.79243627736E+02  0.00000000000E+00 0.  1.
         -3    1    6    6    0  503  0.32789174728E+03  0.23839935536E+03  0.10579106721E+04  0.11329264057E+04  0.00000000000E+00 0.  1.
<mgrwt>
<rscale>  0 0.17115953E+04</rscale>
<asrwt>0</asrwt>
<pdfrwt beam="1">  1        1 0.30901474E+00 0.17115953E+04</pdfrwt>
<pdfrwt beam="2">  1       -1 0.56096565E-01 0.17115953E+04</pdfrwt>
<totfact> 0.89891883E+00</totfact>
</mgrwt>
</event>
<event>
12    1  0.4820219E-008  0.2102826E+04  0.7818608E-02  0.8559999E-01
          2   -1    0    0  501    0  0.00000000000E+00  0.00000000000E+00  0.14524934941E+04  0.14524934941E+04  0.00000000000E+00 0. -1.
         -2   -1    0    0    0  501 -0.00000000000E+00 -0.00000000000E+00 -0.76108409795E+03  0.76108409795E+03  0.00000000000E+00 0.  1.
         23    2    1    2    0    0 -0.37148765441E+03 -0.74529386698E+03  0.59028989327E+02  0.83960180278E+03  0.89334988180E+02 0.  0.
        254    2    1    2    0    0  0.37148765441E+03  0.74529386698E+03  0.63238040685E+03  0.13739757893E+04  0.89131277623E+03 0.  0.
         23    2    4    4    0    0  0.41955590216E+03  0.76468771384E+03  0.16292163110E+03  0.89194923683E+03  0.90859938699E+02 0.  0.
         23    2    4    4    0    0 -0.48068247752E+02 -0.19393846859E+02  0.46945877575E+03  0.48202655247E+03  0.96287992074E+02 0.  0.
         11    1    3    3    0    0  0.23443120486E+01 -0.24025018588E+01  0.52315837750E+01  0.62158895548E+01  0.00000000000E+00 0.  1.
        -11    1    3    3    0    0 -0.37383196646E+03 -0.74289136512E+03  0.53797405552E+02  0.83338591323E+03  0.00000000000E+00 0. -1.
          4    1    5    5  502    0  0.38348577885E+03  0.65970274697E+03  0.11772895842E+03  0.77209401280E+03  0.00000000000E+00 0. -1.
          1    1    6    6  503    0 -0.67485943558E+02  0.15261634425E+02  0.27696881677E+03  0.28548028921E+03  0.00000000000E+00 0. -1.
         -4    1    5    5    0  502  0.36070123308E+02  0.10498496687E+03  0.45192672677E+02  0.11985522403E+03  0.00000000000E+00 0.  1.
         -1    1    6    6    0  503  0.19417695806E+02 -0.34655481284E+02  0.19248995898E+03  0.19654626326E+03  0.00000000000E+00 0.  1.
<mgrwt>
<rscale>  0 0.21028264E+04</rscale>
<asrwt>0</asrwt>
<pdfrwt beam="1">  1        2 0.22346054E+00 0.21028264E+04</pdfrwt>
<pdfrwt beam="2">  1       -2 0.11708986E+00 0.21028264E+04</pdfrwt>
<totfact> 0.70220070E+00</totfact>
</mgrwt>
</event>
<event>
12    1  0.4820219E-008  0.1867580E+04  0.7818608E-02  0.8671164E-01
         -1   -1    0    0    0  501 -0.00000000000E+00  0.00000000000E+00  0.59057598336E+03  0.59057598336E+03  0.00000000000E+00 0.  1.
          1   -1    0    0  501    0  0.00000000000E+00 -0.00000000000E+00 -0.14764628305E+04  0.14764628305E+04  0.00000000000E+00 0. -1.
         23    2    1    2    0    0  0.48527123834E+03  0.57187794745E+02 -0.91950609671E+03  0.10453731287E+04  0.92492690130E+02 0.  0.
        254    2    1    2    0    0 -0.48527123834E+03 -0.57187794745E+02  0.33619249522E+02  0.10216656852E+04  0.89661134263E+03 0.  0.
         23    2    4    4    0    0 -0.53086430533E+03  0.15921145916E+03  0.31948141026E+03  0.64733029342E+03  0.99009786772E+02 0.  0.
         23    2    4    4    0    0  0.45593066995E+02 -0.21639925390E+03 -0.28586216074E+03  0.37433539176E+03  0.97480488995E+02 0.  0.
         13    1    3    3    0    0  0.45788580590E+03  0.69595595158E+02 -0.82392210306E+03  0.94517225415E+03  0.00000000000E+00 0. -1.
        -13    1    3    3    0    0  0.27385432437E+02 -0.12407800413E+02 -0.95583993650E+02  0.10020087456E+03  0.00000000000E+00 0.  1.
          2    1    5    5  502    0 -0.41279563250E+03  0.13766419386E+03  0.20331728920E+03  0.48030155587E+03  0.00000000000E+00 0.  1.
          1    1    6    6  503    0 -0.14610738285E+02 -0.31653233719E+02 -0.88476349575E+01  0.35967784508E+02  0.00000000000E+00 0. -1.
         -2    1    5    5    0  502 -0.11806867283E+03  0.21547265297E+02  0.11616412107E+03  0.16702873755E+03  0.00000000000E+00 0. -1.
         -1    1    6    6    0  503  0.60203805280E+02 -0.18474602019E+03 -0.27701452578E+03  0.33836760726E+03  0.00000000000E+00 0.  1.
<mgrwt>
<rscale>  0 0.18675797E+04</rscale>
<asrwt>0</asrwt>
<pdfrwt beam="1">  1        1 0.22714812E+00 0.18675797E+04</pdfrwt>
<pdfrwt beam="2">  1       -1 0.90857846E-01 0.18675797E+04</pdfrwt>
<totfact> 0.75378787E+00</totfact>
</mgrwt>
</event>
