<event>
12    7  0.1857704E-007  0.2468683E+04  0.7818608E-02  0.8414228E-01
         -3   -1    0    0    0  501 -0.00000000000E+00  0.00000000000E+00  0.47360461015E+03  0.47360461015E+03  0.00000000000E+00 0.  1.
          2   -1    0    0  501    0  0.00000000000E+00 -0.00000000000E+00 -0.32170283905E+04  0.32170283905E+04  0.00000000000E+00 0. -1.
         24    2    1    2    0    0 -0.85211887180E+03 -0.63694168448E+03 -0.12937499205E+04  0.16771729125E+04  0.85550221388E+02 0.  0.
        254    2    1    2    0    0  0.85211887180E+03  0.63694168448E+03 -0.14496738598E+04  0.20134600882E+04  0.90590614619E+03 0.  0.
         23    2    4    4    0    0  0.85611730133E+03  0.13415826212E+03 -0.76768362859E+03  0.11613842100E+04  0.92411345633E+02 0.  0.
         23    2    4    4    0    0 -0.39984295250E+01  0.50278342235E+03 -0.68199023124E+03  0.85207587813E+03  0.90085899888E+02 0.  0.
          4    1    3    3  502    0 -0.76834977153E+03 -0.55071475609E+03 -0.11765779294E+04  0.15092990883E+04  0.00000000000E+00 0. -1.
         -3    1    3    3    0  502 -0.83769100275E+02 -0.86226928386E+02 -0.11717199110E+03  0.16787382416E+03  0.00000000000E+00 0.  1.
         13    1    5    5    0    0  0.19850124025E+03  0.14050769505E+00 -0.14438854742E+03  0.24546041381E+03  0.00000000000E+00 0.  1.
        -13    1    5    5    0    0  0.65761606108E+03  0.13401775443E+03 -0.62329508117E+03  0.91592379623E+03  0.00000000000E+00 0. -1.
          3    1    6    6  503    0 -0.45717451784E+02  0.32063088451E+03 -0.43889112665E+03  0.54545363739E+03  0.00000000000E+00 0. -1.
         -3    1    6    6    0  503  0.41719022259E+02  0.18215253784E+03 -0.24309910460E+03  0.30662224074E+03  0.00000000000E+00 0.  1.
<mgrwt>
<rscale>  0 0.24686834E+04</rscale>
<asrwt>0</asrwt>
<pdfrwt beam="1">  1        2 0.49492744E+00 0.24686834E+04</pdfrwt>
<pdfrwt beam="2">  1       -3 0.72862248E-01 0.24686834E+04</pdfrwt>
<totfact> 0.12999436E+00</totfact>
</mgrwt>
</event>
<event>
12    7  0.1857704E-007  0.2369530E+04  0.7818608E-02  0.8451000E-01
         -1   -1    0    0    0  501 -0.00000000000E+00  0.00000000000E+00  0.50441449571E+03  0.50441449571E+03  0.00000000000E+00 0.  1.
          2   -1    0    0  501    0  0.00000000000E+00 -0.00000000000E+00 -0.27827682823E+04  0.27827682823E+04  0.00000000000E+00 0. -1.
         24    2    1    2    0    0  0.24805797948E+03  0.45228733275E+03 -0.21802237252E+04  0.22418224993E+04  0.79347553625E+02 0.  0.
        254    2    1    2    0    0 -0.24805797948E+03 -0.45228733275E+03 -0.98130061388E+02  0.10453602786E+04  0.90390929337E+03 0.  0.
         23    2    4    4    0    0 -0.11857416909E+03  0.22212107042E+03 -0.21449362080E+03  0.34290100257E+03  0.90421129719E+02 0.  0.
         23    2    4    4    0    0 -0.12948381039E+03 -0.67440840317E+03  0.11636355941E+03  0.70245927606E+03  0.91191036546E+02 0.  0.
          2    1    3    3  502    0  0.21348890413E+03  0.31637115250E+03 -0.15904974853E+04  0.16356498614E+04  0.00000000000E+00 0. -1.
         -1    1    3    3    0  502  0.34569075348E+02  0.13591618025E+03 -0.58972623987E+03  0.60617263797E+03  0.00000000000E+00 0.  1.
         13    1    5    5    0    0 -0.22638610613E+01  0.56388679875E+02 -0.14408507699E+02  0.58244427880E+02  0.00000000000E+00 0. -1.
        -13    1    5    5    0    0 -0.11631030803E+03  0.16573239054E+03 -0.20008511310E+03  0.28465657469E+03  0.00000000000E+00 0.  1.
          1    1    6    6  503    0 -0.30555922536E+02 -0.16481902189E+03 -0.10907455296E+02  0.16798198403E+03  0.00000000000E+00 0. -1.
         -1    1    6    6    0  503 -0.98927887858E+02 -0.50958938128E+03  0.12727101471E+03  0.53447729203E+03  0.00000000000E+00 0.  1.
<mgrwt>
<rscale>  0 0.23695305E+04</rscale>
<asrwt>0</asrwt>
<pdfrwt beam="1">  1        2 0.42811820E+00 0.23695305E+04</pdfrwt>
<pdfrwt beam="2">  1       -1 0.77602229E-01 0.23695305E+04</pdfrwt>
<totfact> 0.40425506E+00</totfact>
</mgrwt>
</event>
<event>
12    7  0.1857704E-007  0.1354334E+04  0.7818608E-02  0.8987554E-01
         -1   -1    0    0    0  501 -0.00000000000E+00  0.00000000000E+00  0.56075552050E+03  0.56075552050E+03  0.00000000000E+00 0.  1.
          2   -1    0    0  501    0  0.00000000000E+00 -0.00000000000E+00 -0.81774469134E+03  0.81774469134E+03  0.00000000000E+00 0. -1.
         24    2    1    2    0    0 -0.18206297055E+03  0.17646673363E+02 -0.40013143069E+03  0.44705312496E+03  0.79328458881E+02 0.  0.
        254    2    1    2    0    0  0.18206297055E+03 -0.17646673363E+02  0.14314225985E+03  0.93144708687E+03  0.90202308106E+03 0.  0.
         23    2    4    4    0    0  0.17569099883E+03 -0.76154732174E+02  0.50824382918E+03  0.55084005715E+03  0.91902711364E+02 0.  0.
         23    2    4    4    0    0  0.63719717268E+01  0.58508058811E+02 -0.36510156933E+03  0.38060702973E+03  0.89993111845E+02 0.  0.
          2    1    3    3  502    0 -0.15518824322E+03  0.22261051349E+02 -0.38538406734E+03  0.41605267046E+03  0.00000000000E+00 0. -1.
         -1    1    3    3    0  502 -0.26874727334E+02 -0.46143779858E+01 -0.14747363347E+02  0.31000454499E+02  0.00000000000E+00 0.  1.
         13    1    5    5    0    0  0.15316269062E+03 -0.72463556435E+02  0.32822763263E+03  0.36938212684E+03  0.00000000000E+00 0. -1.
        -13    1    5    5    0    0  0.22528308203E+02 -0.36911757393E+01  0.18001619656E+03  0.18145793031E+03  0.00000000000E+00 0.  1.
          1    1    6    6  503    0 -0.38452640501E+02  0.40207441414E+02 -0.14650899886E+03  0.15671672104E+03  0.00000000000E+00 0. -1.
         -1    1    6    6    0  503  0.44824612228E+02  0.18300617397E+02 -0.21859257047E+03  0.22389030868E+03  0.00000000000E+00 0.  1.
<mgrwt>
<rscale>  0 0.13543336E+04</rscale>
<asrwt>0</asrwt>
<pdfrwt beam="1">  1        2 0.12580688E+00 0.13543336E+04</pdfrwt>
<pdfrwt beam="2">  1       -1 0.86270080E-01 0.13543336E+04</pdfrwt>
<totfact> 0.49449191E+01</totfact>
</mgrwt>
</event>
<event>
12    7  0.1857704E-007  0.1411655E+04  0.7818608E-02  0.8945425E-01
          2   -1    0    0  501    0  0.00000000000E+00  0.00000000000E+00  0.59177643915E+03  0.59177643915E+03  0.00000000000E+00 0. -1.
         -1   -1    0    0    0  501 -0.00000000000E+00 -0.00000000000E+00 -0.84185880575E+03  0.84185880575E+03  0.00000000000E+00 0.  1.
         24    2    1    2    0    0 -0.24691565339E+03 -0.87763314229E+02 -0.40542366327E+03  0.48915740971E+03  0.78973954716E+02 0.  0.
        254    2    1    2    0    0  0.24691565339E+03  0.87763314229E+02  0.15534129666E+03  0.94447783519E+03  0.89400096393E+03 0.  0.
         23    2    4    4    0    0  0.43364833291E+03 -0.93026723997E+02  0.37911724581E+03  0.59057835210E+03  0.91367696078E+02 0.  0.
         23    2    4    4    0    0 -0.18673267952E+03  0.18079003823E+03 -0.22377594916E+03  0.35389948309E+03  0.87264180431E+02 0.  0.
          4    1    3    3  502    0 -0.30235462353E+02 -0.42365570218E+02 -0.85743365656E+02  0.10030428444E+03  0.00000000000E+00 0. -1.
         -3    1    3    3    0  502 -0.21668019103E+03 -0.45397744011E+02 -0.31968029761E+03  0.38885312526E+03  0.00000000000E+00 0.  1.
         13    1    5    5    0    0  0.12457508619E+03 -0.68552560507E+02  0.13344796786E+03  0.19500452758E+03  0.00000000000E+00 0. -1.
        -13    1    5    5    0    0  0.30907324672E+03 -0.24474163491E+02  0.24566927796E+03  0.39557382453E+03  0.00000000000E+00 0.  1.
          4    1    6    6  503    0 -0.97282411182E+02  0.13023563088E+03 -0.17906274830E+03  0.24184427822E+03  0.00000000000E+00 0. -1.
         -4    1    6    6    0  503 -0.89450268339E+02  0.50554407342E+02 -0.44713200851E+02  0.11205520487E+03  0.00000000000E+00 0.  1.
<mgrwt>
<rscale>  0 0.14116546E+04</rscale>
<asrwt>0</asrwt>
<pdfrwt beam="1">  1        2 0.91042529E-01 0.14116546E+04</pdfrwt>
<pdfrwt beam="2">  1       -1 0.12951674E+00 0.14116546E+04</pdfrwt>
<totfact> 0.28701241E+01</totfact>
</mgrwt>
</event>
<event>
12    7  0.1857704E-007  0.3182300E+04  0.7818608E-02  0.8193507E-01
          2   -1    0    0  501    0  0.00000000000E+00  0.00000000000E+00  0.26584003266E+04  0.26584003266E+04  0.00000000000E+00 0. -1.
         -1   -1    0    0    0  501 -0.00000000000E+00 -0.00000000000E+00 -0.95236179209E+03  0.95236179209E+03  0.00000000000E+00 0.  1.
         24    2    1    2    0    0 -0.13024460874E+04  0.22736419284E+03  0.64453295911E+02  0.13252340923E+04  0.63489253284E+02 0.  0.
        254    2    1    2    0    0  0.13024460874E+04 -0.22736419284E+03  0.16415852386E+04  0.22855280264E+04  0.88361528797E+03 0.  0.
         23    2    4    4    0    0  0.81514758092E+03  0.16470179568E+03  0.13523158801E+04  0.15902816348E+04  0.92979451434E+02 0.  0.
         23    2    4    4    0    0  0.48729850646E+03 -0.39206598852E+03  0.28926935850E+03  0.69524639155E+03  0.92277892512E+02 0.  0.
          2    1    3    3  502    0 -0.13241163838E+03  0.24629441775E+02 -0.12582006729E+02  0.13526920667E+03  0.00000000000E+00 0. -1.
         -3    1    3    3    0  502 -0.11700344490E+04  0.20273475107E+03  0.77035302640E+02  0.11899648856E+04  0.00000000000E+00 0.  1.
         13    1    5    5    0    0  0.73134765214E+03  0.12096639745E+03  0.11735826619E+04  0.13880916835E+04  0.00000000000E+00 0. -1.
        -13    1    5    5    0    0  0.83799928783E+02  0.43735398231E+02  0.17873321822E+03  0.20218995132E+03  0.00000000000E+00 0.  1.
          4    1    6    6  503    0  0.40491782409E+03 -0.32364036741E+03  0.27620956366E+03  0.58736126425E+03  0.00000000000E+00 0. -1.
         -4    1    6    6    0  503  0.82380682369E+02 -0.68425621112E+02  0.13059794843E+02  0.10788512730E+03  0.00000000000E+00 0.  1.
<mgrwt>
<rscale>  0 0.31823004E+04</rscale>
<asrwt>0</asrwt>
<pdfrwt beam="1">  1        2 0.40898466E+00 0.31823004E+04</pdfrwt>
<pdfrwt beam="2">  1       -1 0.14651720E+00 0.31823004E+04</pdfrwt>
<totfact> 0.10006405E+00</totfact>
</mgrwt>
</event>
<event>
12    7  0.1857704E-007  0.1794442E+04  0.7818608E-02  0.8709261E-01
          2   -1    0    0  501    0  0.00000000000E+00  0.00000000000E+00  0.12801294719E+04  0.12801294719E+04  0.00000000000E+00 0. -1.
         -1   -1    0    0    0  501 -0.00000000000E+00 -0.00000000000E+00 -0.62884669530E+03  0.62884669530E+03  0.00000000000E+00 0.  1.
         24    2    1    2    0    0  0.41790092987E+03  0.43887550111E+03  0.53346724657E+03  0.81119225693E+03  0.78693594934E+02 0.  0.
        254    2    1    2    0    0 -0.41790092987E+03 -0.43887550111E+03  0.11781552999E+03  0.10977839102E+04  0.90774232125E+03 0.  0.
         23    2    4    4    0    0 -0.56980305848E+03 -0.37454276779E+03 -0.21100613980E+03  0.71867994567E+03  0.83782235065E+02 0.  0.
         23    2    4    4    0    0  0.15190212861E+03 -0.64332733317E+02  0.32882166979E+03  0.37910396456E+03  0.91559642673E+02 0.  0.
          2    1    3    3  502    0  0.30959287958E+03  0.36873965537E+03  0.40580004050E+03  0.62967480289E+03  0.00000000000E+00 0. -1.
         -1    1    3    3    0  502  0.10830805029E+03  0.70135845740E+02  0.12766720607E+03  0.18151745404E+03  0.00000000000E+00 0.  1.
         13    1    5    5    0    0  0.29156392251E+00  0.20916470106E+01  0.20673940205E+01  0.29553535785E+01  0.00000000000E+00 0.  1.
        -13    1    5    5    0    0 -0.57009462241E+03 -0.37663441480E+03 -0.21307353382E+03  0.71572459209E+03  0.00000000000E+00 0. -1.
          2    1    6    6  503    0  0.11422355125E+03 -0.58213099358E+02  0.15504101379E+03  0.20118026880E+03  0.00000000000E+00 0. -1.
         -2    1    6    6    0  503  0.37678577361E+02 -0.61196339592E+01  0.17378065601E+03  0.17792369576E+03  0.00000000000E+00 0.  1.
<mgrwt>
<rscale>  0 0.17944416E+04</rscale>
<asrwt>0</asrwt>
<pdfrwt beam="1">  1        2 0.19694299E+00 0.17944416E+04</pdfrwt>
<pdfrwt beam="2">  1       -1 0.96745646E-01 0.17944416E+04</pdfrwt>
<totfact> 0.18790368E+01</totfact>
</mgrwt>
</event>
<event>
12    7  0.1857704E-007  0.1767546E+04  0.7818608E-02  0.8723751E-01
         -1   -1    0    0    0  501 -0.00000000000E+00  0.00000000000E+00  0.13078665480E+04  0.13078665480E+04  0.00000000000E+00 0.  1.
          2   -1    0    0  501    0  0.00000000000E+00 -0.00000000000E+00 -0.59719731054E+03  0.59719731054E+03  0.00000000000E+00 0. -1.
         24    2    1    2    0    0  0.49242781535E+02  0.93533969069E+02 -0.44691283310E+03  0.46631882814E+03  0.80924126131E+02 0.  0.
        254    2    1    2    0    0 -0.49242781535E+02 -0.93533969069E+02  0.11575820705E+04  0.14387450304E+04  0.84783109018E+03 0.  0.
         23    2    4    4    0    0 -0.13936506799E+03  0.31306480931E+03  0.24436682987E+03  0.43064771104E+03  0.91159785435E+02 0.  0.
         23    2    4    4    0    0  0.90122286458E+02 -0.40659877837E+03  0.91321524065E+03  0.10080973193E+04  0.94093232265E+02 0.  0.
          2    1    3    3  502    0  0.40095128769E+02  0.97774030355E+02 -0.44311980624E+03  0.45554642249E+03  0.00000000000E+00 0. -1.
         -1    1    3    3    0  502  0.91476527654E+01 -0.42400612861E+01 -0.37930268619E+01  0.10772405655E+02  0.00000000000E+00 0.  1.
         13    1    5    5    0    0 -0.61697987253E+02  0.98118460692E+02  0.35983264024E+02  0.12136172893E+03  0.00000000000E+00 0. -1.
        -13    1    5    5    0    0 -0.77667080739E+02  0.21494634861E+03  0.20838356585E+03  0.30928598211E+03  0.00000000000E+00 0.  1.
          4    1    6    6  503    0  0.49995880764E+02 -0.99925166829E+02  0.17399123239E+03  0.20677905118E+03  0.00000000000E+00 0. -1.
         -4    1    6    6    0  503  0.40126405694E+02 -0.30667361155E+03  0.73922400826E+03  0.80131826813E+03  0.00000000000E+00 0.  1.
<mgrwt>
<rscale>  0 0.17675456E+04</rscale>
<asrwt>0</asrwt>
<pdfrwt beam="1">  1        2 0.91876510E-01 0.17675456E+04</pdfrwt>
<pdfrwt beam="2">  1       -1 0.20121024E+00 0.17675456E+04</pdfrwt>
<totfact> 0.79607126E+00</totfact>
</mgrwt>
</event>
<event>
12    7  0.1857704E-007  0.1303912E+04  0.7818608E-02  0.9026469E-01
          2   -1    0    0  501    0  0.00000000000E+00  0.00000000000E+00  0.32891475976E+03  0.32891475976E+03  0.00000000000E+00 0. -1.
         -1   -1    0    0    0  501 -0.00000000000E+00 -0.00000000000E+00 -0.12922692430E+04  0.12922692430E+04  0.00000000000E+00 0.  1.
         24    2    1    2    0    0  0.19425596113E+03  0.14094498985E+03  0.47322263073E+02  0.25695861188E+03  0.78660428674E+02 0.  0.
        254    2    1    2    0    0 -0.19425596113E+03 -0.14094498985E+03 -0.10106767463E+04  0.13642253908E+04  0.88433170414E+03 0.  0.
         23    2    4    4    0    0 -0.23766115245E+03  0.15911312958E+03 -0.10033116154E+04  0.10473495507E+04  0.92233791596E+02 0.  0.
         23    2    4    4    0    0  0.43405191326E+02 -0.30005811944E+03 -0.73651308917E+01  0.31687584018E+03  0.91854054142E+02 0.  0.
          4    1    3    3  502    0  0.19985907548E+03  0.14216602890E+03  0.41435383354E+02  0.24874026779E+03  0.00000000000E+00 0. -1.
         -3    1    3    3    0  502 -0.56031143518E+01 -0.12210390505E+01  0.58868797192E+01  0.82183440930E+01  0.00000000000E+00 0.  1.
         13    1    5    5    0    0 -0.10949094703E+03  0.88918528095E+02 -0.33933405911E+03  0.36748112304E+03  0.00000000000E+00 0. -1.
        -13    1    5    5    0    0 -0.12817020542E+03  0.70194601488E+02 -0.66397755627E+03  0.67986842762E+03  0.00000000000E+00 0.  1.
          4    1    6    6  503    0 -0.38652070325E+01  0.30024976137E+01 -0.88886363186E+01  0.10147052426E+02  0.00000000000E+00 0. -1.
         -4    1    6    6    0  503  0.47270398359E+02 -0.30306061705E+03  0.15235054268E+01  0.30672878775E+03  0.00000000000E+00 0.  1.
<mgrwt>
<rscale>  0 0.13039117E+04</rscale>
<asrwt>0</asrwt>
<pdfrwt beam="1">  1        2 0.50602270E-01 0.13039117E+04</pdfrwt>
<pdfrwt beam="2">  1       -1 0.19881065E+00 0.13039117E+04</pdfrwt>
<totfact> 0.17052247E+01</totfact>
</mgrwt>
</event>
<event>
12    7  0.1857704E-007  0.1274192E+04  0.7818608E-02  0.9050285E-01
         -1   -1    0    0    0  501 -0.00000000000E+00  0.00000000000E+00  0.91418330324E+03  0.91418330324E+03  0.00000000000E+00 0.  1.
          2   -1    0    0  501    0  0.00000000000E+00 -0.00000000000E+00 -0.44399325890E+03  0.44399325890E+03  0.00000000000E+00 0. -1.
         24    2    1    2    0    0  0.27916802703E+03  0.13021286057E+03  0.74067835141E+02  0.32678097138E+03  0.80059869333E+02 0.  0.
        254    2    1    2    0    0 -0.27916802703E+03 -0.13021286057E+03  0.39612220920E+03  0.10313955908E+04  0.90109593477E+03 0.  0.
         23    2    4    4    0    0 -0.48921130821E+03 -0.24148628379E+03 -0.86412785103E+01  0.55337824509E+03  0.92246848756E+02 0.  0.
         23    2    4    4    0    0  0.21004328118E+03  0.11127342322E+03  0.40476348771E+03  0.47801734568E+03  0.90372269561E+02 0.  0.
          2    1    3    3  502    0  0.11433414093E+03  0.61029138702E+02  0.71459896627E+02  0.14799786613E+03  0.00000000000E+00 0. -1.
         -1    1    3    3    0  502  0.16483388610E+03  0.69183721866E+02  0.26079385143E+01  0.17878310525E+03  0.00000000000E+00 0.  1.
         13    1    5    5    0    0 -0.44960486825E+03 -0.18989006497E+03 -0.27603437569E+01  0.48806802172E+03  0.00000000000E+00 0. -1.
        -13    1    5    5    0    0 -0.39606439954E+02 -0.51596218820E+02 -0.58809347533E+01  0.65310223364E+02  0.00000000000E+00 0.  1.
          3    1    6    6  503    0  0.73616853369E+02  0.60709716456E+01  0.18192806412E+03  0.19635202650E+03  0.00000000000E+00 0. -1.
         -3    1    6    6    0  503  0.13642642781E+03  0.10520245158E+03  0.22283542359E+03  0.28166531918E+03  0.00000000000E+00 0.  1.
<mgrwt>
<rscale>  0 0.12741919E+04</rscale>
<asrwt>0</asrwt>
<pdfrwt beam="1">  1        2 0.68306656E-01 0.12741919E+04</pdfrwt>
<pdfrwt beam="2">  1       -1 0.14064358E+00 0.12741919E+04</pdfrwt>
<totfact> 0.32862300E+01</totfact>
</mgrwt>
</event>
<event>
12    7  0.1857704E-007  0.1709914E+04  0.7818608E-02  0.8755730E-01
         -1   -1    0    0    0  501 -0.00000000000E+00  0.00000000000E+00  0.55524412846E+03  0.55524412846E+03  0.00000000000E+00 0.  1.
          2   -1    0    0  501    0  0.00000000000E+00 -0.00000000000E+00 -0.13164500483E+04  0.13164500483E+04  0.00000000000E+00 0. -1.
         24    2    1    2    0    0 -0.46091225894E+03  0.27944079442E+03  0.47797071819E+02  0.54704440259E+03  0.80285430180E+02 0.  0.
        254    2    1    2    0    0  0.46091225894E+03 -0.27944079442E+03 -0.80900299170E+03  0.13246497742E+04  0.89982438047E+03 0.  0.
         23    2    4    4    0    0  0.82132487581E+02  0.17690701683E+03 -0.67836791901E+03  0.71170935430E+03  0.91133601551E+02 0.  0.
         23    2    4    4    0    0  0.37877977136E+03 -0.45634781125E+03 -0.13063507269E+03  0.61294041990E+03  0.83084271180E+02 0.  0.
          2    1    3    3  502    0 -0.87480684202E+02  0.23536694608E+02  0.24008281402E+02  0.93718961141E+02  0.00000000000E+00 0. -1.
         -1    1    3    3    0  502 -0.37343157474E+03  0.25590409981E+03  0.23788790417E+02  0.45332544144E+03  0.00000000000E+00 0.  1.
         13    1    5    5    0    0 -0.18118028360E+02  0.30848961649E+02 -0.79291376855E+02  0.86988756918E+02  0.00000000000E+00 0.  1.
        -13    1    5    5    0    0  0.10025051594E+03  0.14605805518E+03 -0.59907654216E+03  0.62472059738E+03  0.00000000000E+00 0. -1.
          3    1    6    6  503    0  0.18423948036E+03 -0.21821956878E+03 -0.10537207265E+03  0.30441294325E+03  0.00000000000E+00 0.  1.
         -3    1    6    6    0  503  0.19454029100E+03 -0.23812824246E+03 -0.25263000036E+02  0.30852747665E+03  0.00000000000E+00 0. -1.
<mgrwt>
<rscale>  0 0.17099136E+04</rscale>
<asrwt>0</asrwt>
<pdfrwt beam="1">  1        2 0.20253078E+00 0.17099136E+04</pdfrwt>
<pdfrwt beam="2">  1       -1 0.85422174E-01 0.17099136E+04</pdfrwt>
<totfact> 0.23740143E+01</totfact>
</mgrwt>
</event>
<event>
12    7  0.1857704E-007  0.2666081E+04  0.7818608E-02  0.8346095E-01
          2   -1    0    0  501    0  0.00000000000E+00  0.00000000000E+00  0.86681747453E+03  0.86681747453E+03  0.00000000000E+00 0. -1.
         -1   -1    0    0    0  501 -0.00000000000E+00 -0.00000000000E+00 -0.20500242310E+04  0.20500242310E+04  0.00000000000E+00 0.  1.
         24    2    1    2    0    0 -0.12955831108E+03  0.88904032518E+03  0.31450708021E+03  0.95532011144E+03  0.80893485840E+02 0.  0.
        254    2    1    2    0    0  0.12955831108E+03 -0.88904032518E+03 -0.14977138367E+04  0.19615215941E+04  0.89288418719E+03 0.  0.
         23    2    4    4    0    0  0.35205538567E+03 -0.31390612009E+03 -0.19770383061E+03  0.51965687453E+03  0.92067452432E+02 0.  0.
         23    2    4    4    0    0 -0.22249707459E+03 -0.57513420509E+03 -0.13000100061E+04  0.14418647196E+04  0.93078201417E+02 0.  0.
          4    1    3    3  502    0 -0.95891195308E+02  0.38998064345E+03  0.12835926863E+03  0.42161134407E+03  0.00000000000E+00 0. -1.
         -3    1    3    3    0  502 -0.33667115770E+02  0.49905968172E+03  0.18614781158E+03  0.53370876737E+03  0.00000000000E+00 0.  1.
         13    1    5    5    0    0  0.18438722751E+03 -0.15045206780E+03 -0.51139924592E+02  0.24341274877E+03  0.00000000000E+00 0.  1.
        -13    1    5    5    0    0  0.16766815815E+03 -0.16345405229E+03 -0.14656390602E+03  0.27624412576E+03  0.00000000000E+00 0. -1.
          2    1    6    6  503    0 -0.19068602741E+03 -0.54404595651E+03 -0.12369629231E+04  0.13647067220E+04  0.00000000000E+00 0. -1.
         -2    1    6    6    0  503 -0.31811047183E+02 -0.31088248577E+02 -0.63047082933E+02  0.77157997569E+02  0.00000000000E+00 0.  1.
<mgrwt>
<rscale>  0 0.26660809E+04</rscale>
<asrwt>0</asrwt>
<pdfrwt beam="1">  1        2 0.13335653E+00 0.26660809E+04</pdfrwt>
<pdfrwt beam="2">  1       -1 0.31538834E+00 0.26660809E+04</pdfrwt>
<totfact> 0.81290887E-01</totfact>
</mgrwt>
</event>
<event>
12    7  0.1857704E-007  0.2418759E+04  0.7818608E-02  0.8432514E-01
          2   -1    0    0  501    0  0.00000000000E+00  0.00000000000E+00  0.29385950643E+04  0.29385950643E+04  0.00000000000E+00 0. -1.
         -1   -1    0    0    0  501 -0.00000000000E+00 -0.00000000000E+00 -0.49772035360E+03  0.49772035360E+03  0.00000000000E+00 0.  1.
         24    2    1    2    0    0 -0.54036288715E+03  0.45370355570E+03 -0.34506516860E+02  0.71105115873E+03  0.81019037053E+02 0.  0.
        254    2    1    2    0    0  0.54036288715E+03 -0.45370355570E+03  0.24753812275E+04  0.27252642592E+04  0.89538488614E+03 0.  0.
         23    2    4    4    0    0 -0.11005312549E+03  0.16104096645E+02  0.24619684369E+02  0.14490796049E+03  0.89560905508E+02 0.  0.
         23    2    4    4    0    0  0.65041601263E+03 -0.46980765234E+03  0.24507615432E+04  0.25803562987E+04  0.90808958338E+02 0.  0.
          2    1    3    3  502    0 -0.41655629505E+02  0.62594933513E+02 -0.16710489460E+02  0.77023098023E+02  0.00000000000E+00 0. -1.
         -1    1    3    3    0  502 -0.49870725764E+03  0.39110862218E+03 -0.17796027400E+02  0.63402806071E+03  0.00000000000E+00 0.  1.
         13    1    5    5    0    0 -0.19832923729E+01  0.16766462599E+02  0.32422297403E+02  0.36554795658E+02  0.00000000000E+00 0. -1.
        -13    1    5    5    0    0 -0.10806983311E+03 -0.66236595339E+00 -0.78026130338E+01  0.10835316483E+03  0.00000000000E+00 0.  1.
          4    1    6    6  503    0  0.56151777901E+03 -0.43851884168E+03  0.21265729663E+04  0.22427468809E+04  0.00000000000E+00 0.  1.
         -4    1    6    6    0  503  0.88898233628E+02 -0.31288810660E+02  0.32418857688E+03  0.33760941781E+03  0.00000000000E+00 0. -1.
<mgrwt>
<rscale>  0 0.24187588E+04</rscale>
<asrwt>0</asrwt>
<pdfrwt beam="1">  1        2 0.45209154E+00 0.24187588E+04</pdfrwt>
<pdfrwt beam="2">  1       -1 0.76572363E-01 0.24187588E+04</pdfrwt>
<totfact> 0.33251024E+00</totfact>
</mgrwt>
</event>
<event>
12    7  0.1857704E-007  0.1546174E+04  0.7818608E-02  0.8854315E-01
          2   -1    0    0  501    0  0.00000000000E+00  0.00000000000E+00  0.74456551322E+03  0.74456551322E+03  0.00000000000E+00 0. -1.
         -1   -1    0    0    0  501 -0.00000000000E+00 -0.00000000000E+00 -0.80270108199E+03  0.80270108199E+03  0.00000000000E+00 0.  1.
         24    2    1    2    0    0  0.47137593026E+03 -0.19544749263E+02 -0.18589144398E+03  0.51326963947E+03  0.79453313374E+02 0.  0.
        254    2    1    2    0    0 -0.47137593026E+03  0.19544749263E+02  0.12775587521E+03  0.10339969557E+04  0.91118103360E+03 0.  0.
         23    2    4    4    0    0  0.15754947619E+03 -0.77453475090E+02 -0.22603157778E+03  0.30034816486E+03  0.91092632698E+02 0.  0.
         23    2    4    4    0    0 -0.62892540644E+03  0.96998224354E+02  0.35378745299E+03  0.73364879088E+03  0.90106404174E+02 0.  0.
          4    1    3    3  502    0  0.15758954996E+03  0.82008910803E+01 -0.25748847313E+02  0.15988972452E+03  0.00000000000E+00 0. -1.
         -3    1    3    3    0  502  0.31378638030E+03 -0.27745640344E+02 -0.16014259666E+03  0.35337991494E+03  0.00000000000E+00 0.  1.
         13    1    5    5    0    0  0.36732240094E+02  0.17702644903E+02 -0.71632550740E+02  0.82424895659E+02  0.00000000000E+00 0. -1.
        -13    1    5    5    0    0  0.12081723609E+03 -0.95156119993E+02 -0.15439902704E+03  0.21792326920E+03  0.00000000000E+00 0.  1.
          2    1    6    6  503    0  0.28472662990E+01 -0.16061915915E+01  0.14102334602E+01  0.35602717899E+01  0.00000000000E+00 0. -1.
         -2    1    6    6    0  503 -0.63177267274E+03  0.98604415945E+02  0.35237721953E+03  0.73008851909E+03  0.00000000000E+00 0.  1.
<mgrwt>
<rscale>  0 0.15461740E+04</rscale>
<asrwt>0</asrwt>
<pdfrwt beam="1">  1        2 0.11454854E+00 0.15461740E+04</pdfrwt>
<pdfrwt beam="2">  1       -1 0.12349247E+00 0.15461740E+04</pdfrwt>
<totfact> 0.24012973E+01</totfact>
</mgrwt>
</event>
<event>
12    7  0.1857704E-007  0.1761533E+04  0.7818608E-02  0.8727028E-01
         -1   -1    0    0    0  501 -0.00000000000E+00  0.00000000000E+00  0.70781483633E+03  0.70781483633E+03  0.00000000000E+00 0.  1.
          2   -1    0    0  501    0  0.00000000000E+00 -0.00000000000E+00 -0.10959778925E+04  0.10959778925E+04  0.00000000000E+00 0. -1.
         24    2    1    2    0    0  0.50301865678E+03  0.39100650122E+03 -0.68251679272E+01  0.64214603329E+03  0.79944306212E+02 0.  0.
        254    2    1    2    0    0 -0.50301865678E+03 -0.39100650122E+03 -0.38133788829E+03  0.11616466956E+04  0.89335917036E+03 0.  0.
         23    2    4    4    0    0 -0.26671373832E+03 -0.66094548243E+03 -0.31536758528E+03  0.78519297289E+03  0.95321256138E+02 0.  0.
         23    2    4    4    0    0 -0.23630491845E+03  0.26993898121E+03 -0.65970303014E+02  0.37645372270E+03  0.93049752227E+02 0.  0.
          4    1    3    3  502    0  0.14638785886E+03  0.12597233174E+03 -0.37592262658E+02  0.19675266655E+03  0.00000000000E+00 0. -1.
         -3    1    3    3    0  502  0.35663079792E+03  0.26503416948E+03  0.30767094731E+02  0.44539336674E+03  0.00000000000E+00 0.  1.
         13    1    5    5    0    0 -0.93928739409E+02 -0.31699870844E+03 -0.10700277901E+03  0.34750594808E+03  0.00000000000E+00 0. -1.
        -13    1    5    5    0    0 -0.17278499892E+03 -0.34394677400E+03 -0.20836480627E+03  0.43768702481E+03  0.00000000000E+00 0.  1.
          4    1    6    6  503    0 -0.43737077081E+01  0.11088235250E+02  0.15424153006E+02  0.19493146899E+02  0.00000000000E+00 0. -1.
         -4    1    6    6    0  503 -0.23193121074E+03  0.25885074596E+03 -0.81394456020E+02  0.35696057580E+03  0.00000000000E+00 0.  1.
<mgrwt>
<rscale>  0 0.17615328E+04</rscale>
<asrwt>0</asrwt>
<pdfrwt beam="1">  1        2 0.16861198E+00 0.17615328E+04</pdfrwt>
<pdfrwt beam="2">  1       -1 0.10889459E+00 0.17615328E+04</pdfrwt>
<totfact> 0.18500514E+01</totfact>
</mgrwt>
</event>
<event>
12    7  0.1857704E-007  0.2493284E+04  0.7818608E-02  0.8405382E-01
         -3   -1    0    0    0  501 -0.00000000000E+00  0.00000000000E+00  0.81395767816E+03  0.81395767816E+03  0.00000000000E+00 0.  1.
          2   -1    0    0  501    0  0.00000000000E+00 -0.00000000000E+00 -0.19093326169E+04  0.19093326169E+04  0.00000000000E+00 0. -1.
         24    2    1    2    0    0  0.35605722643E+03 -0.90553727070E+03  0.94458353680E+02  0.98096819164E+03  0.81250940434E+02 0.  0.
        254    2    1    2    0    0 -0.35605722643E+03  0.90553727070E+03 -0.11898332924E+04  0.17423221034E+04  0.82049287091E+03 0.  0.
         23    2    4    4    0    0  0.30707712339E+02 -0.11745600215E+03 -0.47885174979E+02  0.15859575503E+03  0.90115190140E+02 0.  0.
         23    2    4    4    0    0 -0.38676493877E+03  0.10229932728E+04 -0.11419481175E+04  0.15837263484E+04  0.89673237352E+02 0.  0.
          4    1    3    3  502    0  0.12091609070E+03 -0.36412336366E+03  0.71291965265E+02  0.39024232121E+03  0.00000000000E+00 0. -1.
         -3    1    3    3    0  502  0.23514113572E+03 -0.54141390704E+03  0.23166388415E+02  0.59072587043E+03  0.00000000000E+00 0.  1.
         13    1    5    5    0    0  0.48910508354E+02 -0.21332420379E+02 -0.17278337055E+02  0.56087885662E+02  0.00000000000E+00 0.  1.
        -13    1    5    5    0    0 -0.18202796016E+02 -0.96123581773E+02 -0.30606837924E+02  0.10250786937E+03  0.00000000000E+00 0. -1.
          4    1    6    6  503    0 -0.38029113786E+03  0.96263572085E+03 -0.10968701861E+04  0.15081157402E+04  0.00000000000E+00 0. -1.
         -4    1    6    6    0  503 -0.64738009075E+01  0.60357551997E+02 -0.45077931353E+02  0.75610608226E+02  0.00000000000E+00 0.  1.
<mgrwt>
<rscale>  0 0.24932837E+04</rscale>
<asrwt>0</asrwt>
<pdfrwt beam="1">  1        2 0.29374348E+00 0.24932837E+04</pdfrwt>
<pdfrwt beam="2">  1       -3 0.12522426E+00 0.24932837E+04</pdfrwt>
<totfact> 0.21685968E+00</totfact>
</mgrwt>
</event>
<event>
12    7  0.1857704E-007  0.2513218E+04  0.7818608E-02  0.8398292E-01
         -1   -1    0    0    0  501 -0.00000000000E+00  0.00000000000E+00  0.71962226150E+03  0.71962226150E+03  0.00000000000E+00 0.  1.
          2   -1    0    0  501    0  0.00000000000E+00 -0.00000000000E+00 -0.21942989384E+04  0.21942989384E+04  0.00000000000E+00 0. -1.
         24    2    1    2    0    0 -0.21006816334E+03  0.22328073135E+03  0.55811932190E+03  0.64099158244E+03  0.73417389182E+02 0.  0.
        254    2    1    2    0    0  0.21006816334E+03 -0.22328073135E+03 -0.20327959988E+04  0.22729296175E+04  0.96951872335E+03 0.  0.
         23    2    4    4    0    0  0.95431435615E+02 -0.59697798102E+03 -0.13231722348E+04  0.14576102112E+04  0.91394179933E+02 0.  0.
         23    2    4    4    0    0  0.11463672772E+03  0.37369724967E+03 -0.70962376399E+03  0.81531940625E+03  0.91589486455E+02 0.  0.
          4    1    3    3  502    0  0.27149250297E+01  0.17503275247E+02  0.19147450721E+02  0.26083717745E+02  0.00000000000E+00 0. -1.
         -3    1    3    3    0  502 -0.21278308837E+03  0.20577745610E+03  0.53897187118E+03  0.61490786469E+03  0.00000000000E+00 0.  1.
         13    1    5    5    0    0  0.10761788943E+03 -0.43091093204E+03 -0.99413325950E+03  0.10888373520E+04  0.00000000000E+00 0.  1.
        -13    1    5    5    0    0 -0.12186453814E+02 -0.16606704898E+03 -0.32903897531E+03  0.36877285920E+03  0.00000000000E+00 0. -1.
          2    1    6    6  503    0  0.39699515687E+02  0.40469776962E+02 -0.68711478140E+02  0.89079299623E+02  0.00000000000E+00 0. -1.
         -2    1    6    6    0  503  0.74937212036E+02  0.33322747271E+03 -0.64091228585E+03  0.72624010663E+03  0.00000000000E+00 0.  1.
<mgrwt>
<rscale>  0 0.25132181E+04</rscale>
<asrwt>0</asrwt>
<pdfrwt beam="1">  1        2 0.33758446E+00 0.25132181E+04</pdfrwt>
<pdfrwt beam="2">  1       -1 0.11071112E+00 0.25132181E+04</pdfrwt>
<totfact> 0.39621731E+00</totfact>
</mgrwt>
</event>
<event>
12    7  0.1857704E-007  0.2797904E+04  0.7818608E-02  0.8303919E-01
         -1   -1    0    0    0  501 -0.00000000000E+00  0.00000000000E+00  0.11990004080E+04  0.11990004080E+04  0.00000000000E+00 0.  1.
          2   -1    0    0  501    0  0.00000000000E+00 -0.00000000000E+00 -0.16322491099E+04  0.16322491099E+04  0.00000000000E+00 0. -1.
         24    2    1    2    0    0  0.25554508443E+03 -0.10545242458E+04  0.44018216175E+03  0.11737070984E+04  0.80643302823E+02 0.  0.
        254    2    1    2    0    0 -0.25554508443E+03  0.10545242458E+04 -0.87343086366E+03  0.16575424195E+04  0.89846576108E+03 0.  0.
         23    2    4    4    0    0  0.21194921625E+03  0.74836916999E+03 -0.73666913618E+03  0.10753308226E+04  0.93145461708E+02 0.  0.
         23    2    4    4    0    0 -0.46749430068E+03  0.30615507576E+03 -0.13676172748E+03  0.58221159688E+03  0.89357270867E+02 0.  0.
          2    1    3    3  502    0  0.50706205601E+01 -0.47545860780E+02  0.37039531860E+02  0.60483443938E+02  0.00000000000E+00 0. -1.
         -1    1    3    3    0  502  0.25047446387E+03 -0.10069783850E+04  0.40314262989E+03  0.11132236545E+04  0.00000000000E+00 0.  1.
         13    1    5    5    0    0  0.77914998867E+01  0.16511977361E+03 -0.16286593293E+03  0.23205723263E+03  0.00000000000E+00 0.  1.
        -13    1    5    5    0    0  0.20415771636E+03  0.58324939638E+03 -0.57380320325E+03  0.84327359000E+03  0.00000000000E+00 0. -1.
          3    1    6    6  503    0 -0.26146839350E+03  0.22106449334E+03 -0.96104851906E+02  0.35562813946E+03  0.00000000000E+00 0. -1.
         -3    1    6    6    0  503 -0.20602590718E+03  0.85090582426E+02 -0.40656875577E+02  0.22658345743E+03  0.00000000000E+00 0.  1.
<mgrwt>
<rscale>  0 0.27979045E+04</rscale>
<asrwt>0</asrwt>
<pdfrwt beam="1">  1        2 0.25111525E+00 0.27979045E+04</pdfrwt>
<pdfrwt beam="2">  1       -1 0.18446160E+00 0.27979045E+04</pdfrwt>
<totfact> 0.20497939E+00</totfact>
</mgrwt>
</event>
<event>
12    7  0.1857704E-007  0.2685313E+04  0.7818608E-02  0.8339786E-01
          2   -1    0    0  501    0  0.00000000000E+00  0.00000000000E+00  0.75764206023E+03  0.75764206023E+03  0.00000000000E+00 0. -1.
         -1   -1    0    0    0  501 -0.00000000000E+00 -0.00000000000E+00 -0.23793905912E+04  0.23793905912E+04  0.00000000000E+00 0.  1.
         24    2    1    2    0    0  0.67045617141E+03 -0.90553155623E+03 -0.11623356281E+04  0.16208155291E+04  0.80746453867E+02 0.  0.
        254    2    1    2    0    0 -0.67045617141E+03  0.90553155623E+03 -0.45941290285E+03  0.15162171223E+04  0.90462990756E+03 0.  0.
         23    2    4    4    0    0  0.17992822778E+03  0.21192298894E+03  0.61677541639E+02  0.29809837448E+03  0.88164626323E+02 0.  0.
         23    2    4    4    0    0 -0.85038439918E+03  0.69360856729E+03 -0.52109044449E+03  0.12181187479E+04  0.89618979757E+02 0.  0.
          2    1    3    3  502    0  0.35663265001E+02 -0.64830586658E+02 -0.10327133172E+03  0.12704267547E+03  0.00000000000E+00 0. -1.
         -1    1    3    3    0  502  0.63479290640E+03 -0.84070096958E+03 -0.10590642964E+04  0.14937728536E+04  0.00000000000E+00 0.  1.
         13    1    5    5    0    0 -0.52347769508E+01  0.25697065349E+02 -0.60060238786E+01  0.26903798618E+02  0.00000000000E+00 0.  1.
        -13    1    5    5    0    0  0.18516300473E+03  0.18622592359E+03  0.67683565518E+02  0.27119457587E+03  0.00000000000E+00 0. -1.
          3    1    6    6  503    0 -0.83690958663E+03  0.66353356615E+03 -0.50737690650E+03  0.11824236867E+04  0.00000000000E+00 0. -1.
         -3    1    6    6    0  503 -0.13474812557E+02  0.30075001142E+02 -0.13713537987E+02  0.35695061161E+02  0.00000000000E+00 0.  1.
<mgrwt>
<rscale>  0 0.26853129E+04</rscale>
<asrwt>0</asrwt>
<pdfrwt beam="1">  1        2 0.11656032E+00 0.26853129E+04</pdfrwt>
<pdfrwt beam="2">  1       -1 0.36606008E+00 0.26853129E+04</pdfrwt>
<totfact> 0.45011257E-01</totfact>
</mgrwt>
</event>
<event>
12    7  0.1857704E-007  0.1337353E+04  0.7818608E-02  0.9000457E-01
          2   -1    0    0  501    0  0.00000000000E+00  0.00000000000E+00  0.14604077393E+04  0.14604077393E+04  0.00000000000E+00 0. -1.
         -1   -1    0    0    0  501 -0.00000000000E+00 -0.00000000000E+00 -0.30616694926E+03  0.30616694926E+03  0.00000000000E+00 0.  1.
         24    2    1    2    0    0 -0.36383679727E+02 -0.35094660313E+03  0.22501008415E+03  0.42630729591E+03  0.81370032409E+02 0.  0.
        254    2    1    2    0    0  0.36383679727E+02  0.35094660313E+03  0.92923070592E+03  0.13402673927E+04  0.89908825410E+03 0.  0.
         23    2    4    4    0    0 -0.36409068761E+03  0.36509935192E+03  0.68503372033E+03  0.86236639943E+03  0.92439403319E+02 0.  0.
         23    2    4    4    0    0  0.40047436734E+03 -0.14152748794E+02  0.24419698559E+03  0.47790099325E+03  0.90427719139E+02 0.  0.
          2    1    3    3  502    0 -0.37251078078E+01 -0.14315440181E+02 -0.67988808859E+01  0.16279835289E+02  0.00000000000E+00 0. -1.
         -1    1    3    3    0  502 -0.32658571919E+02 -0.33663116295E+03  0.23180896504E+03  0.41002746062E+03  0.00000000000E+00 0.  1.
         13    1    5    5    0    0 -0.36673723144E+03  0.34691315268E+03  0.65231005284E+03  0.82483533960E+03  0.00000000000E+00 0. -1.
        -13    1    5    5    0    0  0.26465438247E+01  0.18186199247E+02  0.32723667497E+02  0.37531059826E+02  0.00000000000E+00 0.  1.
          2    1    6    6  503    0  0.36922402793E+03  0.11987606424E+02  0.22763527958E+03  0.43392154362E+03  0.00000000000E+00 0. -1.
         -2    1    6    6    0  503  0.31250339411E+02 -0.26140355218E+02  0.16561706002E+02  0.43979449631E+02  0.00000000000E+00 0.  1.
<mgrwt>
<rscale>  0 0.13373535E+04</rscale>
<asrwt>0</asrwt>
<pdfrwt beam="1">  1        2 0.22467811E+00 0.13373535E+04</pdfrwt>
<pdfrwt beam="2">  1       -1 0.47102608E-01 0.13373535E+04</pdfrwt>
<totfact> 0.66921114E+01</totfact>
</mgrwt>
</event>
<event>
12    7  0.1857704E-007  0.1471343E+04  0.7818608E-02  0.8903736E-01
          2   -1    0    0  501    0  0.00000000000E+00  0.00000000000E+00  0.17642387552E+04  0.17642387552E+04  0.00000000000E+00 0. -1.
         -1   -1    0    0    0  501 -0.00000000000E+00 -0.00000000000E+00 -0.30676848140E+03  0.30676848140E+03  0.00000000000E+00 0.  1.
         24    2    1    2    0    0 -0.20674273984E+03 -0.29465226204E+03  0.84615430148E+03  0.92294959108E+03  0.79349415671E+02 0.  0.
        254    2    1    2    0    0  0.20674273984E+03  0.29465226204E+03  0.61131597237E+03  0.11480576456E+04  0.90264423970E+03 0.  0.
         23    2    4    4    0    0  0.98688876591E+02 -0.30806707199E+03  0.31959435505E+03  0.46394431423E+03  0.91972603119E+02 0.  0.
         23    2    4    4    0    0  0.10805386325E+03  0.60271933403E+03  0.29172161732E+03  0.68411333133E+03  0.89237408740E+02 0.  0.
          2    1    3    3  502    0 -0.17303531094E+03 -0.18376661047E+03  0.56284381423E+03  0.61685050472E+03  0.00000000000E+00 0. -1.
         -1    1    3    3    0  502 -0.33707428898E+02 -0.11088565157E+03  0.28331048725E+03  0.30609908636E+03  0.00000000000E+00 0.  1.
         13    1    5    5    0    0  0.11491767400E+03 -0.28925816747E+03  0.30016190421E+03  0.43240435704E+03  0.00000000000E+00 0. -1.
        -13    1    5    5    0    0 -0.16228797406E+02 -0.18808904519E+02  0.19432450839E+02  0.31539957198E+02  0.00000000000E+00 0.  1.
          2    1    6    6  503    0  0.78765838873E+02  0.44545791439E+03  0.17060778257E+03  0.48347060546E+03  0.00000000000E+00 0. -1.
         -2    1    6    6    0  503  0.29288024374E+02  0.15726141964E+03  0.12111383475E+03  0.20064272588E+03  0.00000000000E+00 0.  1.
<mgrwt>
<rscale>  0 0.14713434E+04</rscale>
<asrwt>0</asrwt>
<pdfrwt beam="1">  1        2 0.27142134E+00 0.14713434E+04</pdfrwt>
<pdfrwt beam="2">  1       -1 0.47195152E-01 0.14713434E+04</pdfrwt>
<totfact> 0.44619325E+01</totfact>
</mgrwt>
</event>
<event>
12    7  0.1857704E-007  0.1807048E+04  0.7818608E-02  0.8702560E-01
          2   -1    0    0  501    0  0.00000000000E+00  0.00000000000E+00  0.79374437163E+03  0.79374437163E+03  0.00000000000E+00 0. -1.
         -1   -1    0    0    0  501 -0.00000000000E+00 -0.00000000000E+00 -0.10284866489E+04  0.10284866489E+04  0.00000000000E+00 0.  1.
         24    2    1    2    0    0  0.33849851197E+03 -0.10599240892E+03 -0.66194465794E+03  0.75539356154E+03  0.81443657065E+02 0.  0.
        254    2    1    2    0    0 -0.33849851197E+03  0.10599240892E+03  0.42720238072E+03  0.10668374590E+04  0.91094712052E+03 0.  0.
         23    2    4    4    0    0  0.25097559062E+03 -0.17216572310E+03  0.10739373349E+03  0.33517106607E+03  0.90423703975E+02 0.  0.
         23    2    4    4    0    0 -0.58947410258E+03  0.27815813202E+03  0.31980864723E+03  0.73166639288E+03  0.90589599872E+02 0.  0.
          4    1    3    3  502    0  0.21329367897E+03 -0.48466137885E+02 -0.32912349890E+03  0.39517772905E+03  0.00000000000E+00 0. -1.
         -3    1    3    3    0  502  0.12520483300E+03 -0.57526271038E+02 -0.33282115904E+03  0.36021583248E+03  0.00000000000E+00 0.  1.
         13    1    5    5    0    0  0.24687405117E+03 -0.14146833519E+03  0.85022984397E+02  0.29696631944E+03  0.00000000000E+00 0. -1.
        -13    1    5    5    0    0  0.41015394452E+01 -0.30697387912E+02  0.22370749091E+02  0.38204746633E+02  0.00000000000E+00 0.  1.
          3    1    6    6  503    0 -0.58132673490E+03  0.27584885974E+03  0.29965794845E+03  0.70980860251E+03  0.00000000000E+00 0. -1.
         -3    1    6    6    0  503 -0.81473676852E+01  0.23092722848E+01  0.20150698783E+02  0.21857790376E+02  0.00000000000E+00 0.  1.
<mgrwt>
<rscale>  0 0.18070479E+04</rscale>
<asrwt>0</asrwt>
<pdfrwt beam="1">  1        2 0.12211452E+00 0.18070479E+04</pdfrwt>
<pdfrwt beam="2">  1       -1 0.15822871E+00 0.18070479E+04</pdfrwt>
<totfact> 0.11301555E+01</totfact>
</mgrwt>
</event>
<event>
12    7  0.1857704E-007  0.1850548E+04  0.7818608E-02  0.8679871E-01
         -1   -1    0    0    0  501 -0.00000000000E+00  0.00000000000E+00  0.58869378275E+03  0.58869378275E+03  0.00000000000E+00 0.  1.
          2   -1    0    0  501    0  0.00000000000E+00 -0.00000000000E+00 -0.14542911125E+04  0.14542911125E+04  0.00000000000E+00 0. -1.
         24    2    1    2    0    0  0.21861241088E+03 -0.67741941637E+03 -0.25678207235E+03  0.76247600782E+03  0.93510309391E+02 0.  0.
        254    2    1    2    0    0 -0.21861241088E+03  0.67741941637E+03 -0.60881525744E+03  0.12805088875E+04  0.87313145706E+03 0.  0.
         23    2    4    4    0    0  0.55010749444E+02  0.20502679265E+03 -0.68286301104E+03  0.72205141741E+03  0.99970942170E+02 0.  0.
         23    2    4    4    0    0 -0.27362316033E+03  0.47239262372E+03  0.74047753602E+02  0.55845747005E+03  0.91472680260E+02 0.  0.
          4    1    3    3  502    0  0.18610994750E+03 -0.59251479090E+03 -0.25548690128E+03  0.67155360673E+03  0.00000000000E+00 0. -1.
         -3    1    3    3    0  502  0.32502463380E+02 -0.84904625473E+02 -0.12951710732E+01  0.90922401094E+02  0.00000000000E+00 0.  1.
         13    1    5    5    0    0  0.77725850372E+01  0.37113149147E+02 -0.36743368962E+02  0.52800322730E+02  0.00000000000E+00 0. -1.
        -13    1    5    5    0    0  0.47238164407E+02  0.16791364350E+03 -0.64611964208E+03  0.66925109468E+03  0.00000000000E+00 0.  1.
          2    1    6    6  503    0  0.36644843057E+01  0.11389445122E+02 -0.78198350212E+01  0.14293275522E+02  0.00000000000E+00 0. -1.
         -2    1    6    6    0  503 -0.27728764463E+03  0.46100317860E+03  0.81867588623E+02  0.54416419453E+03  0.00000000000E+00 0.  1.
<mgrwt>
<rscale>  0 0.18505482E+04</rscale>
<asrwt>0</asrwt>
<pdfrwt beam="1">  1        2 0.22373709E+00 0.18505482E+04</pdfrwt>
<pdfrwt beam="2">  1       -1 0.90568276E-01 0.18505482E+04</pdfrwt>
<totfact> 0.17198586E+01</totfact>
</mgrwt>
</event>
<event>
12    7  0.1857704E-007  0.2492331E+04  0.7818608E-02  0.8405723E-01
          2   -1    0    0  501    0  0.00000000000E+00  0.00000000000E+00  0.29542317574E+04  0.29542317574E+04  0.00000000000E+00 0. -1.
         -1   -1    0    0    0  501 -0.00000000000E+00 -0.00000000000E+00 -0.52566219461E+03  0.52566219461E+03  0.00000000000E+00 0.  1.
         24    2    1    2    0    0  0.46713550903E+01  0.61512602581E+03  0.23023328759E+04  0.23843941996E+04  0.78722161540E+02 0.  0.
        254    2    1    2    0    0 -0.46713550903E+01 -0.61512602581E+03  0.12623668692E+03  0.10954997524E+04  0.89765369557E+03 0.  0.
         23    2    4    4    0    0 -0.30189925365E+03 -0.53788135024E+03  0.33978743591E+03  0.71049952922E+03  0.94311044559E+02 0.  0.
         23    2    4    4    0    0  0.29722789856E+03 -0.77244675574E+02 -0.21355074899E+03  0.38500022317E+03  0.91159672348E+02 0.  0.
          4    1    3    3  502    0 -0.40225834722E+01  0.48717895744E+03  0.19321493327E+04  0.19926265485E+04  0.00000000000E+00 0. -1.
         -3    1    3    3    0  502  0.86939385626E+01  0.12794706837E+03  0.37018354318E+03  0.39176765118E+03  0.00000000000E+00 0.  1.
         13    1    5    5    0    0 -0.62076039964E+02 -0.10616195673E+03  0.11317725428E+03  0.16713134559E+03  0.00000000000E+00 0. -1.
        -13    1    5    5    0    0 -0.23982321368E+03 -0.43171939351E+03  0.22661018164E+03  0.54336818362E+03  0.00000000000E+00 0.  1.
          4    1    6    6  503    0  0.14282658614E+02  0.89122007043E+00 -0.43436774456E+02  0.45733379336E+02  0.00000000000E+00 0. -1.
         -4    1    6    6    0  503  0.28294523994E+03 -0.78135895645E+02 -0.17011397453E+03  0.33926684384E+03  0.00000000000E+00 0.  1.
<mgrwt>
<rscale>  0 0.24923306E+04</rscale>
<asrwt>0</asrwt>
<pdfrwt beam="1">  1        2 0.45449718E+00 0.24923306E+04</pdfrwt>
<pdfrwt beam="2">  1       -1 0.80871109E-01 0.24923306E+04</pdfrwt>
<totfact> 0.28771798E+00</totfact>
</mgrwt>
</event>
<event>
12    7  0.1857704E-007  0.1547913E+04  0.7818608E-02  0.8853202E-01
         -1   -1    0    0    0  501 -0.00000000000E+00  0.00000000000E+00  0.20679596562E+03  0.20679596562E+03  0.00000000000E+00 0.  1.
          2   -1    0    0  501    0  0.00000000000E+00 -0.00000000000E+00 -0.28966149514E+04  0.28966149514E+04  0.00000000000E+00 0. -1.
         24    2    1    2    0    0  0.47803130283E+03  0.17288009995E+03 -0.74611541850E+03  0.90628659602E+03  0.79156307189E+02 0.  0.
        254    2    1    2    0    0 -0.47803130283E+03 -0.17288009995E+03 -0.19437035672E+04  0.21971243210E+04  0.88936509319E+03 0.  0.
         23    2    4    4    0    0 -0.44534877091E+03  0.23097740850E+03 -0.15210911765E+04  0.16044900187E+04  0.94782709383E+02 0.  0.
         23    2    4    4    0    0 -0.32682531916E+02 -0.40385750845E+03 -0.42261239078E+03  0.59263430226E+03  0.91897488253E+02 0.  0.
          4    1    3    3  502    0  0.55464291645E+02  0.47062457814E+02 -0.88674832878E+02  0.11469258289E+03  0.00000000000E+00 0. -1.
         -3    1    3    3    0  502  0.42256701118E+03  0.12581764213E+03 -0.65744058562E+03  0.79159401314E+03  0.00000000000E+00 0.  1.
         13    1    5    5    0    0 -0.25311886048E+03  0.18213471733E+03 -0.89917683857E+03  0.95171487317E+03  0.00000000000E+00 0. -1.
        -13    1    5    5    0    0 -0.19222991043E+03  0.48842691170E+02 -0.62191433790E+03  0.65277514554E+03  0.00000000000E+00 0.  1.
          4    1    6    6  503    0 -0.28330839510E+02 -0.32262138450E+02 -0.32502343211E+02  0.53850574360E+02  0.00000000000E+00 0. -1.
         -4    1    6    6    0  503 -0.43516924060E+01 -0.37159537000E+03 -0.39011004757E+03  0.53878372790E+03  0.00000000000E+00 0.  1.
<mgrwt>
<rscale>  0 0.15479125E+04</rscale>
<asrwt>0</asrwt>
<pdfrwt beam="1">  1        2 0.44563307E+00 0.15479125E+04</pdfrwt>
<pdfrwt beam="2">  1       -1 0.31814764E-01 0.15479125E+04</pdfrwt>
<totfact> 0.20473137E+01</totfact>
</mgrwt>
</event>
<event>
12    7  0.1857704E-007  0.1056948E+04  0.7818608E-02  0.9248200E-01
          2   -1    0    0  501    0  0.00000000000E+00  0.00000000000E+00  0.21058581407E+04  0.21058581407E+04  0.00000000000E+00 0. -1.
         -1   -1    0    0    0  501 -0.00000000000E+00 -0.00000000000E+00 -0.13262268216E+03  0.13262268216E+03  0.00000000000E+00 0.  1.
         24    2    1    2    0    0  0.10785541578E+03  0.64858101238E+02  0.25037800770E+03  0.29122474226E+03  0.79267520163E+02 0.  0.
        254    2    1    2    0    0 -0.10785541578E+03 -0.64858101238E+02  0.17228574508E+04  0.19472560806E+04  0.89873749421E+03 0.  0.
         23    2    4    4    0    0 -0.34524356092E+03  0.13924172881E+03  0.15103879228E+04  0.15581066728E+04  0.88562696077E+02 0.  0.
         23    2    4    4    0    0  0.23738814514E+03 -0.20409983005E+03  0.21246952804E+03  0.38914940778E+03  0.91016971775E+02 0.  0.
          4    1    3    3  502    0  0.11722593151E+03  0.56753666643E+02  0.19511899027E+03  0.23459394293E+03  0.00000000000E+00 0. -1.
         -3    1    3    3    0  502 -0.93705157257E+01  0.81044345950E+01  0.55259017430E+02  0.56630799327E+02  0.00000000000E+00 0.  1.
         13    1    5    5    0    0 -0.31272523583E+03  0.10050067104E+03  0.12252210260E+04  0.12684888729E+04  0.00000000000E+00 0.  1.
        -13    1    5    5    0    0 -0.32518325086E+02  0.38741057773E+02  0.28516689678E+03  0.28961779994E+03  0.00000000000E+00 0. -1.
          4    1    6    6  503    0  0.11063873330E+03 -0.42435457008E+02  0.99349863757E+02  0.15463535413E+03  0.00000000000E+00 0.  1.
         -4    1    6    6    0  503  0.12674941184E+03 -0.16166437304E+03  0.11311966428E+03  0.23451405365E+03  0.00000000000E+00 0. -1.
<mgrwt>
<rscale>  0 0.10569476E+04</rscale>
<asrwt>0</asrwt>
<pdfrwt beam="1">  1        2 0.32397815E+00 0.10569476E+04</pdfrwt>
<pdfrwt beam="2">  1       -1 0.20403491E-01 0.10569476E+04</pdfrwt>
<totfact> 0.13130986E+02</totfact>
</mgrwt>
</event>
<event>
12    7  0.1857704E-007  0.1869913E+04  0.7818608E-02  0.8669979E-01
         -1   -1    0    0    0  501 -0.00000000000E+00  0.00000000000E+00  0.10931472435E+04  0.10931472435E+04  0.00000000000E+00 0.  1.
          2   -1    0    0  501    0  0.00000000000E+00 -0.00000000000E+00 -0.79965808847E+03  0.79965808847E+03  0.00000000000E+00 0. -1.
         24    2    1    2    0    0 -0.66948047375E+03 -0.18549634589E+03  0.13136366516E+03  0.71145156753E+03  0.79334238107E+02 0.  0.
        254    2    1    2    0    0  0.66948047375E+03  0.18549634589E+03  0.16212548990E+03  0.11813537645E+04  0.94164698443E+03 0.  0.
         23    2    4    4    0    0 -0.49465735808E+02  0.16716931910E+03  0.37671566264E+03  0.42513569143E+03  0.91832594328E+02 0.  0.
         23    2    4    4    0    0  0.71894620956E+03  0.18327026792E+02 -0.21459017275E+03  0.75621807304E+03  0.92721624212E+02 0.  0.
          4    1    3    3  502    0 -0.59807502580E+03 -0.18872396164E+03  0.10892288598E+03  0.63653331827E+03  0.00000000000E+00 0. -1.
         -3    1    3    3    0  502 -0.71405447951E+02  0.32276157487E+01  0.22440779182E+02  0.74918249251E+02  0.00000000000E+00 0.  1.
         13    1    5    5    0    0 -0.89213882857E+01  0.14175279987E+03  0.32498220081E+03  0.35466445873E+03  0.00000000000E+00 0. -1.
        -13    1    5    5    0    0 -0.40544347523E+02  0.25416519230E+02  0.51733461833E+02  0.70471232705E+02  0.00000000000E+00 0.  1.
          4    1    6    6  503    0  0.59917617745E+03 -0.18692300115E+02 -0.16913456061E+03  0.62287076773E+03  0.00000000000E+00 0. -1.
         -4    1    6    6    0  503  0.11977003211E+03  0.37019326907E+02 -0.45455612143E+02  0.13334730531E+03  0.00000000000E+00 0.  1.
<mgrwt>
<rscale>  0 0.18699134E+04</rscale>
<asrwt>0</asrwt>
<pdfrwt beam="1">  1        2 0.12302432E+00 0.18699134E+04</pdfrwt>
<pdfrwt beam="2">  1       -1 0.16817650E+00 0.18699134E+04</pdfrwt>
<totfact> 0.93736123E+00</totfact>
</mgrwt>
</event>
<event>
12    7  0.1857704E-007  0.1589704E+04  0.7818608E-02  0.8826898E-01
         -1   -1    0    0    0  501 -0.00000000000E+00  0.00000000000E+00  0.10853893075E+04  0.10853893075E+04  0.00000000000E+00 0.  1.
          2   -1    0    0  501    0  0.00000000000E+00 -0.00000000000E+00 -0.58208576265E+03  0.58208576265E+03  0.00000000000E+00 0. -1.
         24    2    1    2    0    0 -0.19927832072E+03 -0.25436487709E+03  0.61946198713E+03  0.70313868219E+03  0.79104444115E+02 0.  0.
        254    2    1    2    0    0  0.19927832072E+03  0.25436487709E+03 -0.11615844227E+03  0.96433638798E+03  0.90113181371E+03 0.  0.
         23    2    4    4    0    0 -0.27834235779E+03 -0.29374957308E+02  0.16208668524E+03  0.33624552474E+03  0.91932600935E+02 0.  0.
         23    2    4    4    0    0  0.47762067852E+03  0.28373983440E+03 -0.27824512751E+03  0.62809086325E+03  0.91912868210E+02 0.  0.
          2    1    3    3  502    0 -0.75934458939E+02 -0.55946361873E+02  0.12826600495E+03  0.15921119774E+03  0.00000000000E+00 0. -1.
         -1    1    3    3    0  502 -0.12334386178E+03 -0.19841851522E+03  0.49119598218E+03  0.54392748444E+03  0.00000000000E+00 0.  1.
         13    1    5    5    0    0 -0.80885069987E+02 -0.16385202579E+02  0.98266640956E+02  0.12832459677E+03  0.00000000000E+00 0.  1.
        -13    1    5    5    0    0 -0.19745728781E+03 -0.12989754729E+02  0.63820044283E+02  0.20792092797E+03  0.00000000000E+00 0. -1.
          4    1    6    6  503    0  0.41477839804E+03  0.20885554410E+03 -0.24334800008E+03  0.52429000269E+03  0.00000000000E+00 0. -1.
         -4    1    6    6    0  503  0.62842280479E+02  0.74884290299E+02 -0.34897127423E+02  0.10380086055E+03  0.00000000000E+00 0.  1.
<mgrwt>
<rscale>  0 0.15897040E+04</rscale>
<asrwt>0</asrwt>
<pdfrwt beam="1">  1        2 0.89551656E-01 0.15897040E+04</pdfrwt>
<pdfrwt beam="2">  1       -1 0.16698297E+00 0.15897040E+04</pdfrwt>
<totfact> 0.14612156E+01</totfact>
</mgrwt>
</event>
<event>
12    7  0.1857704E-007  0.2044259E+04  0.7818608E-02  0.8586203E-01
          2   -1    0    0  501    0  0.00000000000E+00  0.00000000000E+00  0.10859717643E+04  0.10859717643E+04  0.00000000000E+00 0. -1.
         -1   -1    0    0    0  501 -0.00000000000E+00 -0.00000000000E+00 -0.96204079557E+03  0.96204079557E+03  0.00000000000E+00 0.  1.
         24    2    1    2    0    0 -0.48622696039E+02  0.79543834910E+03  0.24930265762E+03  0.83886091533E+03  0.80308694367E+02 0.  0.
        254    2    1    2    0    0  0.48622696039E+02 -0.79543834910E+03 -0.12537168892E+03  0.12091516445E+04  0.90069046030E+03 0.  0.
         23    2    4    4    0    0  0.42606295343E+03 -0.62637485413E+03 -0.17263318876E+03  0.78275733969E+03  0.95035450254E+02 0.  0.
         23    2    4    4    0    0 -0.37744025739E+03 -0.16906349497E+03  0.47261499844E+02  0.42639430483E+03  0.92384201019E+02 0.  0.
          2    1    3    3  502    0  0.64038359968E+01  0.32099130103E+03  0.69361025801E+02  0.32846213838E+03  0.00000000000E+00 0. -1.
         -1    1    3    3    0  502 -0.55026532036E+02  0.47444704807E+03  0.17994163182E+03  0.51039877695E+03  0.00000000000E+00 0.  1.
         13    1    5    5    0    0  0.22858906170E+03 -0.26049681865E+03 -0.57170143071E+02  0.35125486034E+03  0.00000000000E+00 0.  1.
        -13    1    5    5    0    0  0.19747389172E+03 -0.36587803548E+03 -0.11546304569E+03  0.43150247934E+03  0.00000000000E+00 0. -1.
          1    1    6    6  503    0 -0.27168366013E+03 -0.79314917231E+02  0.51269576415E+02  0.28763072983E+03  0.00000000000E+00 0. -1.
         -1    1    6    6    0  503 -0.10575659726E+03 -0.89748577738E+02 -0.40080765709E+01  0.13876357500E+03  0.00000000000E+00 0.  1.
<mgrwt>
<rscale>  0 0.20442594E+04</rscale>
<asrwt>0</asrwt>
<pdfrwt beam="1">  1        2 0.16707258E+00 0.20442594E+04</pdfrwt>
<pdfrwt beam="2">  1       -1 0.14800628E+00 0.20442594E+04</pdfrwt>
<totfact> 0.84879063E+00</totfact>
</mgrwt>
</event>
<event>
12    7  0.1857704E-007  0.3257179E+04  0.7818608E-02  0.8173878E-01
          2   -1    0    0  501    0  0.00000000000E+00  0.00000000000E+00  0.14530231112E+04  0.14530231112E+04  0.00000000000E+00 0. -1.
         -1   -1    0    0    0  501 -0.00000000000E+00 -0.00000000000E+00 -0.18253689220E+04  0.18253689220E+04  0.00000000000E+00 0.  1.
         24    2    1    2    0    0  0.13468139101E+04 -0.10926245171E+03  0.49175168536E+03  0.14401388010E+04  0.79586773423E+02 0.  0.
        254    2    1    2    0    0 -0.13468139101E+04  0.10926245171E+03 -0.86409749612E+03  0.18382532321E+04  0.89814501661E+03 0.  0.
         23    2    4    4    0    0 -0.24746706111E+03 -0.21447332927E+03 -0.54991278456E+03  0.64655876827E+03  0.91626496764E+02 0.  0.
         23    2    4    4    0    0 -0.10993468490E+04  0.32373578098E+03 -0.31418471156E+03  0.11916944638E+04  0.89751389747E+02 0.  0.
          4    1    3    3  502    0  0.96093859822E+03 -0.74616136567E+02  0.31225596911E+03  0.10131507033E+04  0.00000000000E+00 0. -1.
         -3    1    3    3    0  502  0.38587531186E+03 -0.34646315146E+02  0.17949571625E+03  0.42698809773E+03  0.00000000000E+00 0.  1.
         13    1    5    5    0    0 -0.21235671832E+03 -0.15172723393E+03 -0.47946921443E+03  0.54590040934E+03  0.00000000000E+00 0.  1.
        -13    1    5    5    0    0 -0.35110342789E+02 -0.62746095333E+02 -0.70443570124E+02  0.10065835893E+03  0.00000000000E+00 0. -1.
          4    1    6    6  503    0 -0.58250934921E+03  0.14340594509E+03 -0.20136348406E+03  0.63279511669E+03  0.00000000000E+00 0. -1.
         -4    1    6    6    0  503 -0.51683749976E+03  0.18032983589E+03 -0.11282122750E+03  0.55889934715E+03  0.00000000000E+00 0.  1.
<mgrwt>
<rscale>  0 0.32571787E+04</rscale>
<asrwt>0</asrwt>
<pdfrwt beam="1">  1        2 0.22354202E+00 0.32571787E+04</pdfrwt>
<pdfrwt beam="2">  1       -1 0.28082599E+00 0.32571787E+04</pdfrwt>
<totfact> 0.56618874E-01</totfact>
</mgrwt>
</event>
<event>
12    7  0.1857704E-007  0.1602412E+04  0.7818608E-02  0.8819068E-01
         -1   -1    0    0    0  501 -0.00000000000E+00  0.00000000000E+00  0.42116272430E+03  0.42116272430E+03  0.00000000000E+00 0.  1.
          2   -1    0    0  501    0  0.00000000000E+00 -0.00000000000E+00 -0.15241875256E+04  0.15241875256E+04  0.00000000000E+00 0. -1.
         24    2    1    2    0    0 -0.14484925302E+03  0.27044370308E+03 -0.92438708094E+03  0.97734743943E+03  0.81212310149E+02 0.  0.
        254    2    1    2    0    0  0.14484925302E+03 -0.27044370308E+03 -0.17863772040E+03  0.96800281051E+03  0.90055366490E+03 0.  0.
         23    2    4    4    0    0  0.48886337918E+03 -0.76007139268E+02 -0.24107622919E+03  0.55803375395E+03  0.92300777589E+02 0.  0.
         23    2    4    4    0    0 -0.34401412616E+03 -0.19443656381E+03  0.62438508788E+02  0.40996905656E+03  0.89581044967E+02 0.  0.
          4    1    3    3  502    0 -0.99583073736E+01  0.49638619384E+02 -0.24894362888E+03  0.25403954570E+03  0.00000000000E+00 0. -1.
         -3    1    3    3    0  502 -0.13489094565E+03  0.22080508369E+03 -0.67544345207E+03  0.72330789374E+03  0.00000000000E+00 0.  1.
         13    1    5    5    0    0  0.23996152243E+03 -0.80733397443E+02 -0.10271611559E+03  0.27322154767E+03  0.00000000000E+00 0. -1.
        -13    1    5    5    0    0  0.24890185674E+03  0.47262581753E+01 -0.13836011360E+03  0.28481220627E+03  0.00000000000E+00 0.  1.
          3    1    6    6  503    0 -0.33225216527E+03 -0.16044298692E+03  0.60985296514E+02  0.37396879518E+03  0.00000000000E+00 0. -1.
         -3    1    6    6    0  503 -0.11761960890E+02 -0.33993576891E+02  0.14532122735E+01  0.36000261384E+02  0.00000000000E+00 0.  1.
<mgrwt>
<rscale>  0 0.16024119E+04</rscale>
<asrwt>0</asrwt>
<pdfrwt beam="1">  1        2 0.23449038E+00 0.16024119E+04</pdfrwt>
<pdfrwt beam="2">  1       -1 0.64794266E-01 0.16024119E+04</pdfrwt>
<totfact> 0.32453967E+01</totfact>
</mgrwt>
</event>
<event>
12    7  0.1857704E-007  0.3626892E+04  0.7818608E-02  0.8084359E-01
          2   -1    0    0  501    0  0.00000000000E+00  0.00000000000E+00  0.18561497573E+04  0.18561497573E+04  0.00000000000E+00 0. -1.
         -1   -1    0    0    0  501 -0.00000000000E+00 -0.00000000000E+00 -0.17717245794E+04  0.17717245794E+04  0.00000000000E+00 0.  1.
         24    2    1    2    0    0 -0.60413096628E+03 -0.15406430248E+04  0.43722144432E+03  0.17134978801E+04  0.79732298397E+02 0.  0.
        254    2    1    2    0    0  0.60413096628E+03  0.15406430248E+04 -0.35279626645E+03  0.19143764566E+04  0.89544226936E+03 0.  0.
         23    2    4    4    0    0 -0.16266270068E+02 -0.63484380538E+02 -0.13859678311E+03  0.17889661357E+03  0.92195834744E+02 0.  0.
         23    2    4    4    0    0  0.62039723635E+03  0.16041274053E+04 -0.21419948334E+03  0.17354798430E+04  0.88833572218E+02 0.  0.
          2    1    3    3  502    0 -0.46248510870E+03 -0.11194687096E+04  0.29103936358E+03  0.12457152880E+04  0.00000000000E+00 0. -1.
         -1    1    3    3    0  502 -0.14164585758E+03 -0.42117431518E+03  0.14618208073E+03  0.46778259209E+03  0.00000000000E+00 0.  1.
         13    1    5    5    0    0 -0.27588149420E+02 -0.32742414318E+02 -0.71246740874E+01  0.43404293159E+02  0.00000000000E+00 0. -1.
        -13    1    5    5    0    0  0.11321879353E+02 -0.30741966220E+02 -0.13147210903E+03  0.13549232041E+03  0.00000000000E+00 0.  1.
          1    1    6    6  503    0  0.24708018802E+03  0.67028833377E+03 -0.13161522053E+03  0.72640046529E+03  0.00000000000E+00 0. -1.
         -1    1    6    6    0  503  0.37331704833E+03  0.93383907154E+03 -0.82584262810E+02  0.10090793777E+04  0.00000000000E+00 0.  1.
<mgrwt>
<rscale>  0 0.36268919E+04</rscale>
<asrwt>0</asrwt>
<pdfrwt beam="1">  1        2 0.28556150E+00 0.36268919E+04</pdfrwt>
<pdfrwt beam="2">  1       -1 0.27257301E+00 0.36268919E+04</pdfrwt>
<totfact> 0.36950134E-01</totfact>
</mgrwt>
</event>
<event>
12    7  0.1857704E-007  0.1263167E+04  0.7818608E-02  0.9059295E-01
          2   -1    0    0  501    0  0.00000000000E+00  0.00000000000E+00  0.98384879175E+03  0.98384879175E+03  0.00000000000E+00 0. -1.
         -1   -1    0    0    0  501 -0.00000000000E+00 -0.00000000000E+00 -0.40544588424E+03  0.40544588424E+03  0.00000000000E+00 0.  1.
         24    2    1    2    0    0  0.82817082608E+02  0.12052702370E+03 -0.15260232320E+03  0.22563517211E+03  0.78983094609E+02 0.  0.
        254    2    1    2    0    0 -0.82817082608E+02 -0.12052702370E+03  0.73100523071E+03  0.11636595039E+04  0.89350397931E+03 0.  0.
         23    2    4    4    0    0  0.38084935788E+02  0.33860735860E+03  0.96728945183E+02  0.36614175700E+03  0.92724817351E+02 0.  0.
         23    2    4    4    0    0 -0.12090201840E+03 -0.45913438230E+03  0.63427628553E+03  0.79751774688E+03  0.91139843931E+02 0.  0.
          2    1    3    3  502    0 -0.13948328956E+02  0.30226404149E+02 -0.38404340201E+02  0.50824056654E+02  0.00000000000E+00 0. -1.
         -1    1    3    3    0  502  0.96765411564E+02  0.90300619551E+02 -0.11419798299E+03  0.17481111545E+03  0.00000000000E+00 0.  1.
         13    1    5    5    0    0  0.56020743780E+02  0.11129831179E+03  0.43681759225E+02  0.13203686617E+03  0.00000000000E+00 0.  1.
        -13    1    5    5    0    0 -0.17935807993E+02  0.22730904681E+03  0.53047185958E+02  0.23410489083E+03  0.00000000000E+00 0. -1.
          3    1    6    6  503    0 -0.27778866448E+01 -0.11342767720E+03  0.20066472265E+03  0.23052090041E+03  0.00000000000E+00 0. -1.
         -3    1    6    6    0  503 -0.11812413175E+03 -0.34570670510E+03  0.43361156288E+03  0.56699684648E+03  0.00000000000E+00 0.  1.
<mgrwt>
<rscale>  0 0.12631666E+04</rscale>
<asrwt>0</asrwt>
<pdfrwt beam="1">  1        2 0.15136135E+00 0.12631666E+04</pdfrwt>
<pdfrwt beam="2">  1       -1 0.62376290E-01 0.12631666E+04</pdfrwt>
<totfact> 0.75405240E+01</totfact>
</mgrwt>
</event>
<event>
12    7  0.1857704E-007  0.1758568E+04  0.7818608E-02  0.8728648E-01
         -1   -1    0    0    0  501 -0.00000000000E+00  0.00000000000E+00  0.20372987671E+03  0.20372987671E+03  0.00000000000E+00 0.  1.
          2   -1    0    0  501    0  0.00000000000E+00 -0.00000000000E+00 -0.37949265600E+04  0.37949265600E+04  0.00000000000E+00 0. -1.
         24    2    1    2    0    0  0.15576295980E+03 -0.52104061245E+03 -0.21104774379E+04  0.21813716879E+04  0.92314708809E+02 0.  0.
        254    2    1    2    0    0 -0.15576295980E+03  0.52104061245E+03 -0.14807192454E+04  0.18172847488E+04  0.90235744308E+03 0.  0.
         23    2    4    4    0    0 -0.27465928780E+03  0.34414477124E+03 -0.16021057198E+03  0.47657340240E+03  0.87071422119E+02 0.  0.
         23    2    4    4    0    0  0.11889632800E+03  0.17689584121E+03 -0.13205086734E+04  0.13407113464E+04  0.91297767762E+02 0.  0.
          4    1    3    3  502    0  0.16135166767E+03 -0.41353505290E+03 -0.16861630023E+04  0.17436144273E+04  0.00000000000E+00 0. -1.
         -1    1    3    3    0  502 -0.55887078703E+01 -0.10750555956E+03 -0.42431443563E+03  0.43775726067E+03  0.00000000000E+00 0.  1.
         13    1    5    5    0    0 -0.20201220620E+03  0.20961567313E+03 -0.13768345208E+03  0.32203166747E+03  0.00000000000E+00 0. -1.
        -13    1    5    5    0    0 -0.72647081602E+02  0.13452909811E+03 -0.22527119902E+02  0.15454173493E+03  0.00000000000E+00 0.  1.
          2    1    6    6  503    0  0.84508293312E+02  0.91672086973E+02 -0.51045990127E+03  0.52546620630E+03  0.00000000000E+00 0. -1.
         -2    1    6    6    0  503  0.34388034683E+02  0.85223754234E+02 -0.81004877211E+03  0.81524514007E+03  0.00000000000E+00 0.  1.
<mgrwt>
<rscale>  0 0.17585675E+04</rscale>
<asrwt>0</asrwt>
<pdfrwt beam="1">  1        2 0.58383485E+00 0.17585675E+04</pdfrwt>
<pdfrwt beam="2">  1       -1 0.31343058E-01 0.17585675E+04</pdfrwt>
<totfact> 0.51112886E+00</totfact>
</mgrwt>
</event>
<event>
12    7  0.1857704E-007  0.3473760E+04  0.7818608E-02  0.8120037E-01
          2   -1    0    0  501    0  0.00000000000E+00  0.00000000000E+00  0.16017851152E+04  0.16017851152E+04  0.00000000000E+00 0. -1.
         -1   -1    0    0    0  501 -0.00000000000E+00 -0.00000000000E+00 -0.18833688957E+04  0.18833688957E+04  0.00000000000E+00 0.  1.
         24    2    1    2    0    0 -0.12223948373E+04 -0.87244452150E+03  0.47962226009E+03  0.15785716781E+04  0.80264869194E+02 0.  0.
        254    2    1    2    0    0  0.12223948373E+04  0.87244452150E+03 -0.76120604055E+03  0.19065823328E+04  0.89454623923E+03 0.  0.
         23    2    4    4    0    0  0.87289540456E+03  0.14742303505E+03 -0.61861393094E+03  0.10841163250E+04  0.94578390671E+02 0.  0.
         23    2    4    4    0    0  0.34949943275E+03  0.72502148645E+03 -0.14259210961E+03  0.82246600779E+03  0.91169155659E+02 0.  0.
          2    1    3    3  502    0 -0.87237438419E+03 -0.64708458640E+03  0.37791304556E+03  0.11500320857E+04  0.00000000000E+00 0. -1.
         -1    1    3    3    0  502 -0.35002045313E+03 -0.22535993510E+03  0.10170921453E+03  0.42853959243E+03  0.00000000000E+00 0.  1.
         13    1    5    5    0    0  0.41155022652E+02  0.90000663769E+01 -0.57565377918E+02  0.71333791566E+02  0.00000000000E+00 0.  1.
        -13    1    5    5    0    0  0.83174038191E+03  0.13842296867E+03 -0.56104855302E+03  0.10127825334E+04  0.00000000000E+00 0. -1.
          2    1    6    6  503    0  0.31756859285E+03  0.64162194106E+03 -0.15444131601E+03  0.73238012432E+03  0.00000000000E+00 0.  1.
         -2    1    6    6    0  503  0.31930839906E+02  0.83399545389E+02  0.11849206400E+02  0.90085883469E+02  0.00000000000E+00 0. -1.
<mgrwt>
<rscale>  0 0.34737601E+04</rscale>
<asrwt>0</asrwt>
<pdfrwt beam="1">  1        2 0.24642848E+00 0.34737601E+04</pdfrwt>
<pdfrwt beam="2">  1       -1 0.28974906E+00 0.34737601E+04</pdfrwt>
<totfact> 0.40133908E-01</totfact>
</mgrwt>
</event>
<event>
12    7  0.1857704E-007  0.1732376E+04  0.7818608E-02  0.8743111E-01
         -1   -1    0    0    0  501 -0.00000000000E+00  0.00000000000E+00  0.16003135342E+03  0.16003135342E+03  0.00000000000E+00 0.  1.
          2   -1    0    0  501    0  0.00000000000E+00 -0.00000000000E+00 -0.46883436720E+04  0.46883436720E+04  0.00000000000E+00 0. -1.
         24    2    1    2    0    0  0.18781620502E+03  0.82863839623E+02 -0.33029440560E+04  0.33102723328E+04  0.79511869504E+02 0.  0.
        254    2    1    2    0    0 -0.18781620502E+03 -0.82863839623E+02 -0.12253682625E+04  0.15381026926E+04  0.90669243479E+03 0.  0.
         23    2    4    4    0    0 -0.33121259500E+03  0.13759465828E+03 -0.10597414438E+03  0.38488409517E+03  0.90945996971E+02 0.  0.
         23    2    4    4    0    0  0.14339638997E+03 -0.22045849791E+03 -0.11193941182E+04  0.11532185974E+04  0.87780793436E+02 0.  0.
          2    1    3    3  502    0  0.14392631179E+03  0.87237453090E+02 -0.29095053440E+04  0.29143689717E+04  0.00000000000E+00 0. -1.
         -1    1    3    3    0  502  0.43889893233E+02 -0.43736134677E+01 -0.39343871202E+03  0.39590336112E+03  0.00000000000E+00 0.  1.
         13    1    5    5    0    0 -0.15471584573E+03  0.54979115654E+02 -0.95008083599E+02  0.18970037435E+03  0.00000000000E+00 0.  1.
        -13    1    5    5    0    0 -0.17649674926E+03  0.82615542628E+02 -0.10966060781E+02  0.19518372082E+03  0.00000000000E+00 0. -1.
          3    1    6    6  503    0  0.35652405868E+02 -0.33256411840E+02 -0.37387857873E+03  0.37704412820E+03  0.00000000000E+00 0. -1.
         -3    1    6    6    0  503  0.10774398410E+03 -0.18720208606E+03 -0.74551553942E+03  0.77617446921E+03  0.00000000000E+00 0.  1.
<mgrwt>
<rscale>  0 0.17323764E+04</rscale>
<asrwt>0</asrwt>
<pdfrwt beam="1">  1        2 0.72128368E+00 0.17323764E+04</pdfrwt>
<pdfrwt beam="2">  1       -1 0.24620207E-01 0.17323764E+04</pdfrwt>
<totfact> 0.12637357E+00</totfact>
</mgrwt>
</event>
<event>
12    7  0.1857704E-007  0.2105529E+04  0.7818608E-02  0.8558812E-01
         -1   -1    0    0    0  501 -0.00000000000E+00  0.00000000000E+00  0.17987506679E+04  0.17987506679E+04  0.00000000000E+00 0.  1.
          2   -1    0    0  501    0  0.00000000000E+00 -0.00000000000E+00 -0.61615686723E+03  0.61615686723E+03  0.00000000000E+00 0. -1.
         24    2    1    2    0    0 -0.21147633239E+03  0.81889891264E+03  0.33354979555E+03  0.91291043129E+03  0.82657856065E+02 0.  0.
        254    2    1    2    0    0  0.21147633239E+03 -0.81889891264E+03  0.84904400512E+03  0.15019971038E+04  0.90542912976E+03 0.  0.
         23    2    4    4    0    0  0.27923841040E+03 -0.40169885122E+03 -0.55194691398E+02  0.50031942953E+03  0.89089958400E+02 0.  0.
         23    2    4    4    0    0 -0.67762078010E+02 -0.41720006142E+03  0.90423869652E+03  0.10016776743E+04  0.84041373568E+02 0.  0.
          2    1    3    3  502    0 -0.13742970928E+03  0.66340165728E+03  0.27094733316E+03  0.72965823590E+03  0.00000000000E+00 0. -1.
         -1    1    3    3    0  502 -0.74046623106E+02  0.15549725536E+03  0.62602462389E+02  0.18325219539E+03  0.00000000000E+00 0.  1.
         13    1    5    5    0    0  0.63946690347E+02 -0.13803065691E+03 -0.49150388748E+02  0.15986682635E+03  0.00000000000E+00 0.  1.
        -13    1    5    5    0    0  0.21529172005E+03 -0.26366819431E+03 -0.60443026503E+01  0.34045260318E+03  0.00000000000E+00 0. -1.
          1    1    6    6  503    0 -0.46240499401E+02 -0.16918948799E+03  0.29007452469E+03  0.33897860774E+03  0.00000000000E+00 0. -1.
         -1    1    6    6    0  503 -0.21521578610E+02 -0.24801057343E+03  0.61416417183E+03  0.66269906657E+03  0.00000000000E+00 0.  1.
<mgrwt>
<rscale>  0 0.21055285E+04</rscale>
<asrwt>0</asrwt>
<pdfrwt beam="1">  1        2 0.94793365E-01 0.21055285E+04</pdfrwt>
<pdfrwt beam="2">  1       -1 0.27673087E+00 0.21055285E+04</pdfrwt>
<totfact> 0.23603273E+00</totfact>
</mgrwt>
</event>
<event>
12    7  0.1857704E-007  0.1746683E+04  0.7818608E-02  0.8735179E-01
         -1   -1    0    0    0  501 -0.00000000000E+00  0.00000000000E+00  0.48847061953E+03  0.48847061953E+03  0.00000000000E+00 0.  1.
          2   -1    0    0  501    0  0.00000000000E+00 -0.00000000000E+00 -0.15614551320E+04  0.15614551320E+04  0.00000000000E+00 0. -1.
         24    2    1    2    0    0  0.24529049730E+03 -0.30248648499E+03  0.20427452887E+03  0.44656647842E+03  0.77640420093E+02 0.  0.
        254    2    1    2    0    0 -0.24529049730E+03  0.30248648499E+03 -0.12772590414E+04  0.16033592731E+04  0.88752735075E+03 0.  0.
         23    2    4    4    0    0 -0.43415304652E+03  0.60597954546E+02 -0.11902872255E+04  0.12716570868E+04  0.90371939086E+02 0.  0.
         23    2    4    4    0    0  0.18886254921E+03  0.24188853044E+03 -0.86971815850E+02  0.33170218630E+03  0.91011647577E+02 0.  0.
          2    1    3    3  502    0  0.12474161380E+03 -0.96218342601E+02  0.93804243108E+02  0.18335123586E+03  0.00000000000E+00 0. -1.
         -3    1    3    3    0  502  0.12054888350E+03 -0.20626814238E+03  0.11047028577E+03  0.26321524256E+03  0.00000000000E+00 0.  1.
         13    1    5    5    0    0 -0.26109332488E+03 -0.62380055261E+01 -0.73514519785E+03  0.78015838067E+03  0.00000000000E+00 0. -1.
        -13    1    5    5    0    0 -0.17305972163E+03  0.66835960073E+02 -0.45514202765E+03  0.49149870615E+03  0.00000000000E+00 0.  1.
          3    1    6    6  503    0  0.69759341174E+02  0.15495547194E+03 -0.67989966208E+02  0.18303059709E+03  0.00000000000E+00 0. -1.
         -3    1    6    6    0  503  0.11910320804E+03  0.86933058500E+02 -0.18981849642E+02  0.14867158922E+03  0.00000000000E+00 0.  1.
<mgrwt>
<rscale>  0 0.17466825E+04</rscale>
<asrwt>0</asrwt>
<pdfrwt beam="1">  1        2 0.24022387E+00 0.17466825E+04</pdfrwt>
<pdfrwt beam="2">  1       -1 0.75149326E-01 0.17466825E+04</pdfrwt>
<totfact> 0.22542009E+01</totfact>
</mgrwt>
</event>
<event>
12    7  0.1857704E-007  0.1713040E+04  0.7818608E-02  0.8753962E-01
         -1   -1    0    0    0  501 -0.00000000000E+00  0.00000000000E+00  0.66678120891E+03  0.66678120891E+03  0.00000000000E+00 0.  1.
          2   -1    0    0  501    0  0.00000000000E+00 -0.00000000000E+00 -0.11002507180E+04  0.11002507180E+04  0.00000000000E+00 0. -1.
         24    2    1    2    0    0  0.38476056487E+03 -0.41749693854E+03  0.79735124217E+02  0.57936221146E+03  0.83417600469E+02 0.  0.
        254    2    1    2    0    0 -0.38476056487E+03  0.41749693854E+03 -0.51320463328E+03  0.11876697154E+04  0.90820480694E+03 0.  0.
         23    2    4    4    0    0 -0.56635772361E+03  0.51257121644E+03 -0.18513264890E+03  0.79114207860E+03  0.90229528612E+02 0.  0.
         23    2    4    4    0    0  0.18159715874E+03 -0.95074277900E+02 -0.32807198439E+03  0.39652763683E+03  0.87099330924E+02 0.  0.
          4    1    3    3  502    0  0.26924735191E+03 -0.32874943032E+03  0.86032476706E+02  0.43355727591E+03  0.00000000000E+00 0. -1.
         -3    1    3    3    0  502  0.11551321295E+03 -0.88747508220E+02 -0.62973524882E+01  0.14580493555E+03  0.00000000000E+00 0.  1.
         13    1    5    5    0    0 -0.20155970769E+03  0.12629115546E+03 -0.59094568205E+02  0.24508761638E+03  0.00000000000E+00 0. -1.
        -13    1    5    5    0    0 -0.36479801592E+03  0.38628006098E+03 -0.12603808069E+03  0.54605446222E+03  0.00000000000E+00 0.  1.
          3    1    6    6  503    0  0.66261731389E+01 -0.25334676639E+02 -0.85453486823E+02  0.89375893960E+02  0.00000000000E+00 0. -1.
         -3    1    6    6    0  503  0.17497098560E+03 -0.69739601261E+02 -0.24261849756E+03  0.30715174287E+03  0.00000000000E+00 0.  1.
<mgrwt>
<rscale>  0 0.17130400E+04</rscale>
<asrwt>0</asrwt>
<pdfrwt beam="1">  1        2 0.16926934E+00 0.17130400E+04</pdfrwt>
<pdfrwt beam="2">  1       -1 0.10258173E+00 0.17130400E+04</pdfrwt>
<totfact> 0.21224563E+01</totfact>
</mgrwt>
</event>
<event>
12    7  0.1857704E-007  0.2408103E+04  0.7818608E-02  0.8436476E-01
          2   -1    0    0  501    0  0.00000000000E+00  0.00000000000E+00  0.16112078869E+04  0.16112078869E+04  0.00000000000E+00 0. -1.
         -1   -1    0    0    0  501 -0.00000000000E+00 -0.00000000000E+00 -0.89978437528E+03  0.89978437528E+03  0.00000000000E+00 0.  1.
         24    2    1    2    0    0  0.74950824430E+03 -0.60017655658E+03  0.70680205697E+03  0.11950496415E+04  0.81240325494E+02 0.  0.
        254    2    1    2    0    0 -0.74950824430E+03  0.60017655658E+03  0.46214546024E+01  0.13159426207E+04  0.89983838309E+03 0.  0.
         23    2    4    4    0    0 -0.71394734941E+02  0.54601023790E+03 -0.20977555958E+03  0.59645462499E+03  0.92346879766E+02 0.  0.
         23    2    4    4    0    0 -0.67811350936E+03  0.54166318683E+02  0.21439701419E+03  0.71948799567E+03  0.94472083551E+02 0.  0.
          4    1    3    3  502    0  0.52134594952E+03 -0.46337765116E+03  0.51874567280E+03  0.86926262989E+03  0.00000000000E+00 0. -1.
         -3    1    3    3    0  502  0.22816229478E+03 -0.13679890542E+03  0.18805638417E+03  0.32578701158E+03  0.00000000000E+00 0.  1.
         13    1    5    5    0    0 -0.74713258339E+02  0.53666103074E+03 -0.21752085594E+03  0.58386852600E+03  0.00000000000E+00 0.  1.
        -13    1    5    5    0    0  0.33185233980E+01  0.93492071589E+01  0.77452963558E+01  0.12586098986E+02  0.00000000000E+00 0. -1.
          4    1    6    6  503    0 -0.13351729227E+02  0.62478731539E+01  0.20724038236E+02  0.25432073315E+02  0.00000000000E+00 0. -1.
         -4    1    6    6    0  503 -0.66476178013E+03  0.47918445529E+02  0.19367297595E+03  0.69405592236E+03  0.00000000000E+00 0.  1.
<mgrwt>
<rscale>  0 0.24081027E+04</rscale>
<asrwt>0</asrwt>
<pdfrwt beam="1">  1        2 0.24787814E+00 0.24081027E+04</pdfrwt>
<pdfrwt beam="2">  1       -1 0.13842837E+00 0.24081027E+04</pdfrwt>
<totfact> 0.48563251E+00</totfact>
</mgrwt>
</event>
<event>
12    7  0.1857704E-007  0.1374517E+04  0.7818608E-02  0.8972474E-01
         -1   -1    0    0    0  501 -0.00000000000E+00  0.00000000000E+00  0.27020593391E+03  0.27020593391E+03  0.00000000000E+00 0.  1.
          2   -1    0    0  501    0  0.00000000000E+00 -0.00000000000E+00 -0.17480167516E+04  0.17480167516E+04  0.00000000000E+00 0. -1.
         24    2    1    2    0    0  0.59622559768E+02 -0.65368512139E+02  0.12904272750E+03  0.17609567247E+03  0.80806981927E+02 0.  0.
        254    2    1    2    0    0 -0.59622559768E+02  0.65368512139E+02 -0.16068535452E+04  0.18421270131E+04  0.89645174132E+03 0.  0.
         23    2    4    4    0    0  0.11001130851E+03 -0.14872371766E+01 -0.16307995685E+04  0.16370927066E+04  0.91981505383E+02 0.  0.
         23    2    4    4    0    0 -0.16963386828E+03  0.66855749315E+02  0.23946023309E+02  0.20503430650E+03  0.90665949103E+02 0.  0.
          4    1    3    3  502    0 -0.19623623525E+02 -0.77299173791E+01  0.30870578842E+02  0.37387576291E+02  0.00000000000E+00 0. -1.
         -3    1    3    3    0  502  0.79246183293E+02 -0.57638594760E+02  0.98172148659E+02  0.13870809618E+03  0.00000000000E+00 0.  1.
         13    1    5    5    0    0  0.85857535736E+02 -0.21396471915E+02 -0.14997043381E+04  0.15023123601E+04  0.00000000000E+00 0. -1.
        -13    1    5    5    0    0  0.24153772775E+02  0.19909234739E+02 -0.13109523041E+03  0.13478034650E+03  0.00000000000E+00 0.  1.
          1    1    6    6  503    0 -0.15700716843E+03  0.24250305853E+02  0.13900376127E+02  0.15947585625E+03  0.00000000000E+00 0. -1.
         -1    1    6    6    0  503 -0.12626699853E+02  0.42605443463E+02  0.10045647181E+02  0.45558450249E+02  0.00000000000E+00 0.  1.
<mgrwt>
<rscale>  0 0.13745174E+04</rscale>
<asrwt>0</asrwt>
<pdfrwt beam="1">  1        2 0.26892564E+00 0.13745174E+04</pdfrwt>
<pdfrwt beam="2">  1       -1 0.41570145E-01 0.13745174E+04</pdfrwt>
<totfact> 0.58131474E+01</totfact>
</mgrwt>
</event>
<event>
12    7  0.1857704E-007  0.1522916E+04  0.7818608E-02  0.8869356E-01
          2   -1    0    0  501    0  0.00000000000E+00  0.00000000000E+00  0.61003199848E+03  0.61003199848E+03  0.00000000000E+00 0. -1.
         -1   -1    0    0    0  501 -0.00000000000E+00 -0.00000000000E+00 -0.95047180403E+03  0.95047180403E+03  0.00000000000E+00 0.  1.
         24    2    1    2    0    0 -0.29820739738E+03  0.36527615003E+03 -0.24559689842E+03  0.53818312980E+03  0.83480099751E+02 0.  0.
        254    2    1    2    0    0  0.29820739738E+03 -0.36527615003E+03 -0.94842907136E+02  0.10223206727E+04  0.90210313333E+03 0.  0.
         23    2    4    4    0    0  0.24788550300E+03 -0.26122524379E+03  0.37687370373E+03  0.52917062483E+03  0.91114823339E+02 0.  0.
         23    2    4    4    0    0  0.50321894383E+02 -0.10405090624E+03 -0.47171661087E+03  0.49315004787E+03  0.85565907974E+02 0.  0.
          4    1    3    3  502    0 -0.12785275614E+03  0.19243568457E+03 -0.80464653730E+02  0.24464746156E+03  0.00000000000E+00 0. -1.
         -3    1    3    3    0  502 -0.17035464124E+03  0.17284046547E+03 -0.16513224469E+03  0.29353566824E+03  0.00000000000E+00 0.  1.
         13    1    5    5    0    0  0.20771003388E+03 -0.22931435228E+03  0.36103843548E+03  0.47547584821E+03  0.00000000000E+00 0. -1.
        -13    1    5    5    0    0  0.40175469119E+02 -0.31910891510E+02  0.15835268246E+02  0.53694776620E+02  0.00000000000E+00 0.  1.
          4    1    6    6  503    0  0.70485707606E+02 -0.54210183315E+02 -0.32285922404E+03  0.33488066158E+03  0.00000000000E+00 0. -1.
         -4    1    6    6    0  503 -0.20163813224E+02 -0.49840722928E+02 -0.14885738683E+03  0.15826938630E+03  0.00000000000E+00 0.  1.
<mgrwt>
<rscale>  0 0.15229159E+04</rscale>
<asrwt>0</asrwt>
<pdfrwt beam="1">  1        2 0.93851077E-01 0.15229159E+04</pdfrwt>
<pdfrwt beam="2">  1       -1 0.14622643E+00 0.15229159E+04</pdfrwt>
<totfact> 0.20015336E+01</totfact>
</mgrwt>
</event>
<event>
12    7  0.1857704E-007  0.1969956E+04  0.7818608E-02  0.8620797E-01
          2   -1    0    0  501    0  0.00000000000E+00  0.00000000000E+00  0.30714764254E+04  0.30714764254E+04  0.00000000000E+00 0. -1.
         -1   -1    0    0    0  501 -0.00000000000E+00 -0.00000000000E+00 -0.31586813839E+03  0.31586813839E+03  0.00000000000E+00 0.  1.
         24    2    1    2    0    0 -0.53051871548E+03 -0.16624624845E+03  0.20153926035E+04  0.20916475162E+04  0.63984869123E+02 0.  0.
        254    2    1    2    0    0  0.53051871548E+03  0.16624624845E+03  0.74021568354E+03  0.12956970475E+04  0.90654490141E+03 0.  0.
         23    2    4    4    0    0 -0.82994005489E+02 -0.10873377501E+03  0.57366297484E+03  0.59710794525E+03  0.93475402133E+02 0.  0.
         23    2    4    4    0    0  0.61351272097E+03  0.27498002345E+03  0.16655270869E+03  0.69858910229E+03  0.90967340188E+02 0.  0.
          4    1    3    3  502    0 -0.44574840634E+01 -0.67754038126E+01  0.56835242502E+02  0.57410975007E+02  0.00000000000E+00 0. -1.
         -3    1    3    3    0  502 -0.52606123142E+03 -0.15947084463E+03  0.19585573610E+04  0.20342365412E+04  0.00000000000E+00 0.  1.
         13    1    5    5    0    0 -0.10359754556E+03 -0.85248137928E+02  0.47810525449E+03  0.49657258366E+03  0.00000000000E+00 0. -1.
        -13    1    5    5    0    0  0.20603540074E+02 -0.23485637077E+02  0.95557720350E+02  0.10053536160E+03  0.00000000000E+00 0.  1.
          3    1    6    6  503    0  0.57539298236E+03  0.24715445801E+03  0.17592885890E+03  0.65047165477E+03  0.00000000000E+00 0. -1.
         -3    1    6    6    0  503  0.38119738610E+02  0.27825565440E+02 -0.93761502031E+01  0.48117447526E+02  0.00000000000E+00 0.  1.
<mgrwt>
<rscale>  0 0.19699559E+04</rscale>
<asrwt>0</asrwt>
<pdfrwt beam="1">  1        2 0.47253481E+00 0.19699559E+04</pdfrwt>
<pdfrwt beam="2">  1       -1 0.48595100E-01 0.19699559E+04</pdfrwt>
<totfact> 0.70700737E+00</totfact>
</mgrwt>
</event>
<event>
12    7  0.1857704E-007  0.1633684E+04  0.7818608E-02  0.8800118E-01
         -3   -1    0    0    0  501 -0.00000000000E+00  0.00000000000E+00  0.41673885005E+03  0.41673885005E+03  0.00000000000E+00 0.  1.
          4   -1    0    0  501    0  0.00000000000E+00 -0.00000000000E+00 -0.16010763924E+04  0.16010763924E+04  0.00000000000E+00 0. -1.
         24    2    1    2    0    0  0.34642255801E+03 -0.11741766191E+03  0.11717751160E+03  0.39254601573E+03  0.81032766289E+02 0.  0.
        254    2    1    2    0    0 -0.34642255801E+03  0.11741766191E+03 -0.13015150539E+04  0.16252692267E+04  0.90208820390E+03 0.  0.
         23    2    4    4    0    0 -0.53318849626E+03  0.35117133370E+03 -0.10095706928E+04  0.11979253229E+04  0.90447870706E+02 0.  0.
         23    2    4    4    0    0  0.18676593825E+03 -0.23375367179E+03 -0.29194436117E+03  0.42734390384E+03  0.88707425601E+02 0.  0.
          4    1    3    3  502    0  0.73600439014E+02 -0.55315059879E+02  0.50096017036E+02  0.10481598826E+03  0.00000000000E+00 0. -1.
         -3    1    3    3    0  502  0.27282211900E+03 -0.62102602029E+02  0.67081494564E+02  0.28773002747E+03  0.00000000000E+00 0.  1.
         13    1    5    5    0    0 -0.26980392364E+03  0.18576793896E+03 -0.60067252924E+03  0.68418664978E+03  0.00000000000E+00 0. -1.
        -13    1    5    5    0    0 -0.26338457263E+03  0.16540339474E+03 -0.40889816353E+03  0.51373867309E+03  0.00000000000E+00 0.  1.
          2    1    6    6  503    0  0.14297542577E+02 -0.10613111512E+01 -0.43318902074E+02  0.45629742296E+02  0.00000000000E+00 0.  1.
         -2    1    6    6    0  503  0.17246839568E+03 -0.23269236064E+03 -0.24862545910E+03  0.38171416154E+03  0.00000000000E+00 0. -1.
<mgrwt>
<rscale>  0 0.16336839E+04</rscale>
<asrwt>0</asrwt>
<pdfrwt beam="1">  1        4 0.24631944E+00 0.16336839E+04</pdfrwt>
<pdfrwt beam="2">  1       -3 0.64113670E-01 0.16336839E+04</pdfrwt>
<totfact> 0.34354289E-01</totfact>
</mgrwt>
</event>
<event>
12    7  0.1857704E-007  0.1578344E+04  0.7818608E-02  0.8833964E-01
          2   -1    0    0  501    0  0.00000000000E+00  0.00000000000E+00  0.27102347241E+04  0.27102347241E+04  0.00000000000E+00 0. -1.
         -1   -1    0    0    0  501 -0.00000000000E+00 -0.00000000000E+00 -0.22979286750E+03  0.22979286750E+03  0.00000000000E+00 0.  1.
         24    2    1    2    0    0 -0.17196074106E+03 -0.45731947576E+03  0.13144476464E+04  0.14043818883E+04  0.76185784791E+02 0.  0.
        254    2    1    2    0    0  0.17196074106E+03  0.45731947576E+03  0.11659942102E+04  0.15356457033E+04  0.87175319236E+03 0.  0.
         23    2    4    4    0    0 -0.35212678769E+02  0.75172364390E+02  0.10748040168E+04  0.10823680690E+04  0.97088336159E+02 0.  0.
         23    2    4    4    0    0  0.20717341983E+03  0.38214711137E+03  0.91190193419E+02  0.45327763434E+03  0.90486031006E+02 0.  0.
          2    1    3    3  502    0 -0.48269577364E+02 -0.10054769968E+03  0.39421193319E+03  0.40968627055E+03  0.00000000000E+00 0. -1.
         -1    1    3    3    0  502 -0.12369116370E+03 -0.35677177608E+03  0.92023571321E+03  0.99469561779E+03  0.00000000000E+00 0.  1.
         13    1    5    5    0    0 -0.42804151661E+02  0.80204015912E+02  0.10654179012E+04  0.10692895697E+04  0.00000000000E+00 0.  1.
        -13    1    5    5    0    0  0.75914728916E+01 -0.50316515222E+01  0.93861156153E+01  0.13078499304E+02  0.00000000000E+00 0. -1.
          2    1    6    6  503    0  0.57716464119E+01 -0.23254002990E+01 -0.58405885222E+01  0.85341586076E+01  0.00000000000E+00 0. -1.
         -2    1    6    6    0  503  0.20140177342E+03  0.38447251167E+03  0.97030781941E+02  0.44474347574E+03  0.00000000000E+00 0.  1.
<mgrwt>
<rscale>  0 0.15783442E+04</rscale>
<asrwt>0</asrwt>
<pdfrwt beam="1">  1        2 0.41695917E+00 0.15783442E+04</pdfrwt>
<pdfrwt beam="2">  1       -1 0.35352751E-01 0.15783442E+04</pdfrwt>
<totfact> 0.21908195E+01</totfact>
</mgrwt>
</event>
<event>
12    7  0.1857704E-007  0.2443891E+04  0.7818608E-02  0.8423252E-01
         -1   -1    0    0    0  501 -0.00000000000E+00  0.00000000000E+00  0.50084455189E+03  0.50084455189E+03  0.00000000000E+00 0.  1.
          2   -1    0    0  501    0  0.00000000000E+00 -0.00000000000E+00 -0.29812669767E+04  0.29812669767E+04  0.00000000000E+00 0. -1.
         24    2    1    2    0    0  0.35217752877E+03 -0.98253811298E+03 -0.85552172824E+03  0.13518934280E+04  0.79298536949E+02 0.  0.
        254    2    1    2    0    0 -0.35217752877E+03  0.98253811298E+03 -0.16249006966E+04  0.21302181006E+04  0.89895312844E+03 0.  0.
         23    2    4    4    0    0 -0.62644388763E+03  0.82567731203E+03 -0.13281949379E+04  0.16871000394E+04  0.89609050073E+02 0.  0.
         23    2    4    4    0    0  0.27426635886E+03  0.15686080095E+03 -0.29670575869E+03  0.44311806122E+03  0.92151844601E+02 0.  0.
          2    1    3    3  502    0  0.41848956723E+02 -0.19019184234E+03 -0.18361319420E+03  0.26765290426E+03  0.00000000000E+00 0. -1.
         -1    1    3    3    0  502  0.31032857205E+03 -0.79234627064E+03 -0.67190853404E+03  0.10842405237E+04  0.00000000000E+00 0.  1.
         13    1    5    5    0    0 -0.48115488848E+03  0.59275678285E+03 -0.92592186460E+03  0.12000841344E+04  0.00000000000E+00 0. -1.
        -13    1    5    5    0    0 -0.14528899916E+03  0.23292052918E+03 -0.40227307331E+03  0.48701590498E+03  0.00000000000E+00 0.  1.
          3    1    6    6  503    0  0.27255979381E+03  0.15844956129E+03 -0.30246893611E+03  0.43690108948E+03  0.00000000000E+00 0. -1.
         -3    1    6    6    0  503  0.17065650540E+01 -0.15887603423E+01  0.57631774201E+01  0.62169717455E+01  0.00000000000E+00 0.  1.
<mgrwt>
<rscale>  0 0.24438914E+04</rscale>
<asrwt>0</asrwt>
<pdfrwt beam="1">  1        2 0.45865646E+00 0.24438914E+04</pdfrwt>
<pdfrwt beam="2">  1       -1 0.77053007E-01 0.24438914E+04</pdfrwt>
<totfact> 0.30802454E+00</totfact>
</mgrwt>
</event>
<event>
12    7  0.1857704E-007  0.1980924E+04  0.7818608E-02  0.8615592E-01
          2   -1    0    0  501    0  0.00000000000E+00  0.00000000000E+00  0.75611584585E+03  0.75611584585E+03  0.00000000000E+00 0. -1.
         -1   -1    0    0    0  501 -0.00000000000E+00 -0.00000000000E+00 -0.12974398104E+04  0.12974398104E+04  0.00000000000E+00 0.  1.
         24    2    1    2    0    0 -0.28439190815E+03  0.71708242708E+03 -0.36327579455E+03  0.85649236371E+03  0.80770672501E+02 0.  0.
        254    2    1    2    0    0  0.28439190815E+03 -0.71708242708E+03 -0.17804816998E+03  0.11970632925E+04  0.89787160040E+03 0.  0.
         23    2    4    4    0    0 -0.11505160486E+03 -0.40647701388E+03 -0.44307242304E+03  0.61886983275E+03  0.90698749920E+02 0.  0.
         23    2    4    4    0    0  0.39944351301E+03 -0.31060541320E+03  0.26502425307E+03  0.57819345977E+03  0.89660355815E+02 0.  0.
          2    1    3    3  502    0 -0.12109750003E+02  0.28464898802E+02 -0.34364913307E+02  0.46236822723E+02  0.00000000000E+00 0. -1.
         -1    1    3    3    0  502 -0.27228215815E+03  0.68861752828E+03 -0.32891088124E+03  0.81025554099E+03  0.00000000000E+00 0.  1.
         13    1    5    5    0    0 -0.79896066957E+02 -0.24616947985E+03 -0.33084826778E+03  0.42005162852E+03  0.00000000000E+00 0.  1.
        -13    1    5    5    0    0 -0.35155537905E+02 -0.16030753402E+03 -0.11222415526E+03  0.19881820423E+03  0.00000000000E+00 0. -1.
          2    1    6    6  503    0  0.12443374498E+03 -0.48741207576E+02  0.80270274688E+02  0.15589348673E+03  0.00000000000E+00 0. -1.
         -2    1    6    6    0  503  0.27500976804E+03 -0.26186420563E+03  0.18475397838E+03  0.42229997304E+03  0.00000000000E+00 0.  1.
<mgrwt>
<rscale>  0 0.19809238E+04</rscale>
<asrwt>0</asrwt>
<pdfrwt beam="1">  1        2 0.11632552E+00 0.19809238E+04</pdfrwt>
<pdfrwt beam="2">  1       -1 0.19960612E+00 0.19809238E+04</pdfrwt>
<totfact> 0.59678322E+00</totfact>
</mgrwt>
</event>
<event>
12    7  0.1857704E-007  0.1297057E+04  0.7818608E-02  0.9031902E-01
         -1   -1    0    0    0  501 -0.00000000000E+00  0.00000000000E+00  0.78626310539E+03  0.78626310539E+03  0.00000000000E+00 0.  1.
          2   -1    0    0  501    0  0.00000000000E+00 -0.00000000000E+00 -0.53492192954E+03  0.53492192954E+03  0.00000000000E+00 0. -1.
         24    2    1    2    0    0 -0.14500409462E+03  0.10763632557E+02  0.35840904557E+03  0.39490349519E+03  0.79684900234E+02 0.  0.
        254    2    1    2    0    0  0.14500409462E+03 -0.10763632557E+02 -0.10706786972E+03  0.92628153974E+03  0.90851082486E+03 0.  0.
         23    2    4    4    0    0 -0.71435024551E+02 -0.22179373431E+03 -0.41542290242E+03  0.48505757164E+03  0.91701890040E+02 0.  0.
         23    2    4    4    0    0  0.21643911917E+03  0.21103010175E+03  0.30835503270E+03  0.44122396810E+03  0.90643078534E+02 0.  0.
          2    1    3    3  502    0 -0.58424492928E+02  0.30193907680E+01  0.58824691897E+02  0.82963139233E+02  0.00000000000E+00 0. -1.
         -1    1    3    3    0  502 -0.86579601692E+02  0.77442417889E+01  0.29958435367E+03  0.31194035596E+03  0.00000000000E+00 0.  1.
         13    1    5    5    0    0 -0.74298226276E+02 -0.82704442131E+02 -0.19180195246E+03  0.22169402370E+03  0.00000000000E+00 0.  1.
        -13    1    5    5    0    0  0.28632017248E+01 -0.13908929218E+03 -0.22362094996E+03  0.26336354794E+03  0.00000000000E+00 0. -1.
          4    1    6    6  503    0  0.10142492369E+03  0.15730337274E+03  0.20438880400E+03  0.27713922389E+03  0.00000000000E+00 0. -1.
         -4    1    6    6    0  503  0.11501419548E+03  0.53726729013E+02  0.10396622870E+03  0.16408474421E+03  0.00000000000E+00 0.  1.
<mgrwt>
<rscale>  0 0.12970573E+04</rscale>
<asrwt>0</asrwt>
<pdfrwt beam="1">  1        2 0.82295681E-01 0.12970573E+04</pdfrwt>
<pdfrwt beam="2">  1       -1 0.12096356E+00 0.12970573E+04</pdfrwt>
<totfact> 0.38723610E+01</totfact>
</mgrwt>
</event>
<event>
12    7  0.1857704E-007  0.1956193E+04  0.7818608E-02  0.8627380E-01
          2   -1    0    0  501    0  0.00000000000E+00  0.00000000000E+00  0.74214681863E+03  0.74214681863E+03  0.00000000000E+00 0. -1.
         -1   -1    0    0    0  501 -0.00000000000E+00 -0.00000000000E+00 -0.12890608028E+04  0.12890608028E+04  0.00000000000E+00 0.  1.
         24    2    1    2    0    0 -0.60595961955E+03  0.41563948640E+03 -0.34328571379E+03  0.81497636896E+03  0.79988483488E+02 0.  0.
        254    2    1    2    0    0  0.60595961955E+03 -0.41563948640E+03 -0.20362827042E+03  0.12162312525E+04  0.94752875623E+03 0.  0.
         23    2    4    4    0    0  0.37975132425E+03 -0.69238126730E+03 -0.27496112075E+03  0.84062957431E+03  0.86322509877E+02 0.  0.
         23    2    4    4    0    0  0.22620829530E+03  0.27674178090E+03  0.71332850326E+02  0.37560167820E+03  0.90730584547E+02 0.  0.
          4    1    3    3  502    0 -0.35972939462E+02  0.44313270358E+01 -0.19275020462E+02  0.41051375698E+02  0.00000000000E+00 0. -1.
         -3    1    3    3    0  502 -0.56998668009E+03  0.41120815937E+03 -0.32401069333E+03  0.77392499326E+03  0.00000000000E+00 0.  1.
         13    1    5    5    0    0 -0.19017466088E+01 -0.12824681291E+02 -0.13073851202E+02  0.18412351170E+02  0.00000000000E+00 0. -1.
        -13    1    5    5    0    0  0.38165307086E+03 -0.67955658601E+03 -0.26188726955E+03  0.82221722314E+03  0.00000000000E+00 0.  1.
          1    1    6    6  503    0  0.95741992159E+02  0.67967459649E+02  0.52734230245E+02  0.12871287299E+03  0.00000000000E+00 0. -1.
         -1    1    6    6    0  503  0.13046630314E+03  0.20877432125E+03  0.18598620081E+02  0.24688880521E+03  0.00000000000E+00 0.  1.
<mgrwt>
<rscale>  0 0.19561926E+04</rscale>
<asrwt>0</asrwt>
<pdfrwt beam="1">  1        2 0.11417644E+00 0.19561926E+04</pdfrwt>
<pdfrwt beam="2">  1       -1 0.19831704E+00 0.19561926E+04</pdfrwt>
<totfact> 0.62538681E+00</totfact>
</mgrwt>
</event>
<event>
12    7  0.1857704E-007  0.1407004E+04  0.7818608E-02  0.8948764E-01
         -1   -1    0    0    0  501 -0.00000000000E+00  0.00000000000E+00  0.28912596967E+03  0.28912596967E+03  0.00000000000E+00 0.  1.
          2   -1    0    0  501    0  0.00000000000E+00 -0.00000000000E+00 -0.17117625554E+04  0.17117625554E+04  0.00000000000E+00 0. -1.
         24    2    1    2    0    0  0.73048654957E+02  0.25569768139E+03 -0.81557393457E+03  0.86124696718E+03  0.76603429864E+02 0.  0.
        254    2    1    2    0    0 -0.73048654957E+02 -0.25569768139E+03 -0.60706265115E+03  0.11396415579E+04  0.92711402091E+03 0.  0.
         23    2    4    4    0    0 -0.34815597107E+03 -0.27066382175E+03 -0.70243737964E+03  0.83431080724E+03  0.90469697473E+02 0.  0.
         23    2    4    4    0    0  0.27510731611E+03  0.14966140361E+02  0.95374728486E+02  0.30533075064E+03  0.90678044296E+02 0.  0.
          4    1    3    3  502    0  0.39880328657E+02  0.22259555094E+03 -0.72214510752E+03  0.75672503343E+03  0.00000000000E+00 0. -1.
         -3    1    3    3    0  502  0.33168326300E+02  0.33102130447E+02 -0.93428827055E+02  0.10452193375E+03  0.00000000000E+00 0.  1.
         13    1    5    5    0    0 -0.58706450843E+02 -0.81631797242E+02 -0.20766056539E+03  0.23072301166E+03  0.00000000000E+00 0.  1.
        -13    1    5    5    0    0 -0.28944952023E+03 -0.18903202451E+03 -0.49477681425E+03  0.60358779557E+03  0.00000000000E+00 0. -1.
          3    1    6    6  503    0  0.13536320727E+03  0.15497722376E+02  0.94091836852E+02  0.16557974225E+03  0.00000000000E+00 0. -1.
         -3    1    6    6    0  503  0.13974410884E+03 -0.53158201439E+00  0.12828916336E+01  0.13975100839E+03  0.00000000000E+00 0.  1.
<mgrwt>
<rscale>  0 0.14070039E+04</rscale>
<asrwt>0</asrwt>
<pdfrwt beam="1">  1        2 0.26334809E+00 0.14070039E+04</pdfrwt>
<pdfrwt beam="2">  1       -1 0.44480918E-01 0.14070039E+04</pdfrwt>
<totfact> 0.53580356E+01</totfact>
</mgrwt>
</event>
<event>
12    7  0.1857704E-007  0.1931536E+04  0.7818608E-02  0.8639316E-01
          2   -1    0    0  501    0  0.00000000000E+00  0.00000000000E+00  0.21803674459E+04  0.21803674459E+04  0.00000000000E+00 0. -1.
         -1   -1    0    0    0  501 -0.00000000000E+00 -0.00000000000E+00 -0.42777536006E+03  0.42777536006E+03  0.00000000000E+00 0.  1.
         24    2    1    2    0    0 -0.60485988138E+03 -0.35817221346E+02  0.12914738794E+04  0.14285910980E+04  0.76350472429E+02 0.  0.
        254    2    1    2    0    0  0.60485988138E+03  0.35817221346E+02  0.46111820638E+03  0.11795517079E+04  0.90087395452E+03 0.  0.
         23    2    4    4    0    0  0.31698381274E+03  0.21581437707E+03 -0.19238124633E+03  0.43871932705E+03  0.91703441077E+02 0.  0.
         23    2    4    4    0    0  0.28787606864E+03 -0.17999715572E+03  0.65349945271E+03  0.74083238086E+03  0.80619320698E+02 0.  0.
          2    1    3    3  502    0 -0.40217803683E+03 -0.41427715926E+02  0.78400938212E+03  0.88211911906E+03  0.00000000000E+00 0. -1.
         -1    1    3    3    0  502 -0.20268184455E+03  0.56104945808E+01  0.50746449729E+03  0.54647197894E+03  0.00000000000E+00 0.  1.
         13    1    5    5    0    0  0.17057940475E+03  0.95589448272E+02 -0.50259860800E+02  0.20189286653E+03  0.00000000000E+00 0.  1.
        -13    1    5    5    0    0  0.14640440798E+03  0.12022492879E+03 -0.14212138553E+03  0.23682646053E+03  0.00000000000E+00 0. -1.
          3    1    6    6  503    0  0.29123090859E+03 -0.17689289517E+03  0.62392784814E+03  0.71090962728E+03  0.00000000000E+00 0. -1.
         -3    1    6    6    0  503 -0.33548399439E+01 -0.31042605465E+01  0.29571604574E+02  0.29922753578E+02  0.00000000000E+00 0.  1.
<mgrwt>
<rscale>  0 0.19315356E+04</rscale>
<asrwt>0</asrwt>
<pdfrwt beam="1">  1        2 0.33544114E+00 0.19315356E+04</pdfrwt>
<pdfrwt beam="2">  1       -1 0.65811595E-01 0.19315356E+04</pdfrwt>
<totfact> 0.13185627E+01</totfact>
</mgrwt>
</event>
<event>
12    7  0.1857704E-007  0.1573272E+04  0.7818608E-02  0.8837139E-01
          2   -1    0    0  501    0  0.00000000000E+00  0.00000000000E+00  0.28175278380E+04  0.28175278380E+04  0.00000000000E+00 0. -1.
         -1   -1    0    0    0  501 -0.00000000000E+00 -0.00000000000E+00 -0.21962367201E+03  0.21962367201E+03  0.00000000000E+00 0.  1.
         24    2    1    2    0    0 -0.51704065240E+03  0.11645147147E+03  0.99691176808E+03  0.11322235017E+04  0.84882289057E+02 0.  0.
        254    2    1    2    0    0  0.51704065240E+03 -0.11645147147E+03  0.16009923979E+04  0.19049280083E+04  0.88582282499E+03 0.  0.
         23    2    4    4    0    0  0.21785575304E+03 -0.44120868651E+03  0.46815651746E+03  0.68574671412E+03  0.94613936128E+02 0.  0.
         23    2    4    4    0    0  0.29918489937E+03  0.32475721504E+03  0.11328358804E+04  0.12191812942E+04  0.90039121319E+02 0.  0.
          4    1    3    3  502    0 -0.34803109030E+03  0.61765265019E+02  0.73736791902E+03  0.81771146242E+03  0.00000000000E+00 0. -1.
         -3    1    3    3    0  502 -0.16900956211E+03  0.54686206450E+02  0.25954384906E+03  0.31451203927E+03  0.00000000000E+00 0.  1.
         13    1    5    5    0    0  0.45003143587E+02 -0.10373133209E+03  0.57645695823E+02  0.12691925952E+03  0.00000000000E+00 0.  1.
        -13    1    5    5    0    0  0.17285260945E+03 -0.33747735441E+03  0.41051082163E+03  0.55882745460E+03  0.00000000000E+00 0. -1.
          1    1    6    6  503    0  0.24020077872E+03  0.20097961715E+03  0.80952450895E+03  0.86799720690E+03  0.00000000000E+00 0. -1.
         -1    1    6    6    0  503  0.58984120645E+02  0.12377759789E+03  0.32331137145E+03  0.35118408725E+03  0.00000000000E+00 0.  1.
<mgrwt>
<rscale>  0 0.15732715E+04</rscale>
<asrwt>0</asrwt>
<pdfrwt beam="1">  1        2 0.43346580E+00 0.15732715E+04</pdfrwt>
<pdfrwt beam="2">  1       -1 0.33788259E-01 0.15732715E+04</pdfrwt>
<totfact> 0.20501391E+01</totfact>
</mgrwt>
</event>
<event>
12    7  0.1857704E-007  0.1222880E+04  0.7818608E-02  0.9093062E-01
         -1   -1    0    0    0  501 -0.00000000000E+00  0.00000000000E+00  0.39344160517E+03  0.39344160517E+03  0.00000000000E+00 0.  1.
          2   -1    0    0  501    0  0.00000000000E+00 -0.00000000000E+00 -0.95022707361E+03  0.95022707361E+03  0.00000000000E+00 0. -1.
         24    2    1    2    0    0 -0.19743841381E+03  0.11332511913E+03 -0.28754160803E+03  0.37642544683E+03  0.84802304198E+02 0.  0.
        254    2    1    2    0    0  0.19743841381E+03 -0.11332511913E+03 -0.26924386040E+03  0.96724323196E+03  0.90069012625E+03 0.  0.
         23    2    4    4    0    0  0.51835459796E+03 -0.11853522904E+03 -0.30037849452E+01  0.54147615426E+03  0.10220231480E+03 0.  0.
         23    2    4    4    0    0 -0.32091618415E+03  0.52101099132E+01 -0.26624007546E+03  0.42576707770E+03  0.85903924102E+02 0.  0.
          4    1    3    3  502    0 -0.11546738683E+03  0.11040867030E+03 -0.20689207038E+03  0.26139456897E+03  0.00000000000E+00 0. -1.
         -3    1    3    3    0  502 -0.81971026978E+02  0.29164488215E+01 -0.80649537651E+02  0.11503087786E+03  0.00000000000E+00 0.  1.
         13    1    5    5    0    0  0.50316190843E+03 -0.93014334386E+02 -0.71670994379E+00  0.51168748877E+03  0.00000000000E+00 0.  1.
        -13    1    5    5    0    0  0.15192689537E+02 -0.25520894653E+02 -0.22870750014E+01  0.29788665484E+02  0.00000000000E+00 0. -1.
          3    1    6    6  503    0 -0.25007652998E+02 -0.23870064302E+02 -0.21970580681E+02  0.40961800421E+02  0.00000000000E+00 0. -1.
         -3    1    6    6    0  503 -0.29590853115E+03  0.29080174215E+02 -0.24426949478E+03  0.38480527728E+03  0.00000000000E+00 0.  1.
<mgrwt>
<rscale>  0 0.12228800E+04</rscale>
<asrwt>0</asrwt>
<pdfrwt beam="1">  1        2 0.14618878E+00 0.12228800E+04</pdfrwt>
<pdfrwt beam="2">  1       -1 0.60529479E-01 0.12228800E+04</pdfrwt>
<totfact> 0.84448769E+01</totfact>
</mgrwt>
</event>
<event>
12    7  0.1857704E-007  0.1477818E+04  0.7818608E-02  0.8899339E-01
          2   -1    0    0  501    0  0.00000000000E+00  0.00000000000E+00  0.27863179809E+04  0.27863179809E+04  0.00000000000E+00 0. -1.
         -1   -1    0    0    0  501 -0.00000000000E+00 -0.00000000000E+00 -0.19595276195E+03  0.19595276195E+03  0.00000000000E+00 0.  1.
         24    2    1    2    0    0  0.36780745064E+03 -0.17193486790E+03  0.12524020433E+04  0.13185351911E+04  0.71973972257E+02 0.  0.
        254    2    1    2    0    0 -0.36780745064E+03  0.17193486790E+03  0.13379631756E+04  0.16637355517E+04  0.90167988059E+03 0.  0.
         23    2    4    4    0    0 -0.33439547618E+03  0.46776341792E+03  0.11715007455E+04  0.13080913052E+04  0.89810446778E+02 0.  0.
         23    2    4    4    0    0 -0.33411974463E+02 -0.29582855002E+03  0.16646243009E+03  0.35564424647E+03  0.10070848213E+03 0.  0.
          2    1    3    3  502    0  0.32469615185E+03 -0.16653006159E+03  0.11669073853E+04  0.12226335094E+04  0.00000000000E+00 0. -1.
         -1    1    3    3    0  502  0.43111298793E+02 -0.54048063033E+01  0.85494657964E+02  0.95901681712E+02  0.00000000000E+00 0.  1.
         13    1    5    5    0    0 -0.29149495347E+03  0.38972425432E+03  0.10514109283E+04  0.11585850173E+04  0.00000000000E+00 0.  1.
        -13    1    5    5    0    0 -0.42900522705E+02  0.78039163596E+02  0.12008981724E+03  0.14950628785E+03  0.00000000000E+00 0. -1.
          4    1    6    6  503    0  0.13256174821E+02 -0.13746562732E+03  0.12296721087E+03  0.18491473661E+03  0.00000000000E+00 0. -1.
         -4    1    6    6    0  503 -0.46668149284E+02 -0.15836292270E+03  0.43495219220E+02  0.17072950987E+03  0.00000000000E+00 0.  1.
<mgrwt>
<rscale>  0 0.14778183E+04</rscale>
<asrwt>0</asrwt>
<pdfrwt beam="1">  1        2 0.42866428E+00 0.14778183E+04</pdfrwt>
<pdfrwt beam="2">  1       -1 0.30146581E-01 0.14778183E+04</pdfrwt>
<totfact> 0.26422039E+01</totfact>
</mgrwt>
</event>
<event>
12    7  0.1857704E-007  0.2994220E+04  0.7818608E-02  0.8245383E-01
          2   -1    0    0  501    0  0.00000000000E+00  0.00000000000E+00  0.27804504282E+04  0.27804504282E+04  0.00000000000E+00 0. -1.
         -1   -1    0    0    0  501 -0.00000000000E+00 -0.00000000000E+00 -0.80610617031E+03  0.80610617031E+03  0.00000000000E+00 0.  1.
         24    2    1    2    0    0 -0.12842027442E+04 -0.33327097430E+03  0.53231534873E+03  0.14317212024E+04  0.78865330650E+02 0.  0.
        254    2    1    2    0    0  0.12842027442E+04  0.33327097430E+03  0.14420289092E+04  0.21548353961E+04  0.89644965209E+03 0.  0.
         23    2    4    4    0    0 -0.22426398735E+02 -0.17358380002E+03  0.16477762403E+03  0.25681521036E+03  0.90377585182E+02 0.  0.
         23    2    4    4    0    0  0.13066291430E+04  0.50685477432E+03  0.12772512851E+04  0.18980201857E+04  0.83236413336E+02 0.  0.
          4    1    3    3  502    0 -0.34789558416E+03 -0.11675552061E+03  0.12119038451E+03  0.38645866321E+03  0.00000000000E+00 0. -1.
         -3    1    3    3    0  502 -0.93630716008E+03 -0.21651545370E+03  0.41112496421E+03  0.10452625392E+04  0.00000000000E+00 0.  1.
         13    1    5    5    0    0 -0.24050432952E+02 -0.50741299522E+02  0.66093965436E+01  0.56540135524E+02  0.00000000000E+00 0.  1.
        -13    1    5    5    0    0  0.16240342173E+01 -0.12284250050E+03  0.15816822749E+03  0.20027507484E+03  0.00000000000E+00 0. -1.
          2    1    6    6  503    0  0.34777100235E+03  0.12266392683E+03  0.38408655817E+03  0.53245994515E+03  0.00000000000E+00 0.  1.
         -2    1    6    6    0  503  0.95885814063E+03  0.38419084749E+03  0.89316472695E+03  0.13655602406E+04  0.00000000000E+00 0. -1.
<mgrwt>
<rscale>  0 0.29942199E+04</rscale>
<asrwt>0</asrwt>
<pdfrwt beam="1">  1        2 0.42776160E+00 0.29942199E+04</pdfrwt>
<pdfrwt beam="2">  1       -1 0.12401634E+00 0.29942199E+04</pdfrwt>
<totfact> 0.13192583E+00</totfact>
</mgrwt>
</event>
<event>
12    7  0.1857704E-007  0.2065625E+04  0.7818608E-02  0.8576539E-01
         -1   -1    0    0    0  501 -0.00000000000E+00  0.00000000000E+00  0.97853763443E+03  0.97853763443E+03  0.00000000000E+00 0.  1.
          2   -1    0    0  501    0  0.00000000000E+00 -0.00000000000E+00 -0.10900973007E+04  0.10900973007E+04  0.00000000000E+00 0. -1.
         24    2    1    2    0    0  0.40924232377E+03  0.66870588409E+03  0.24063805021E+03  0.82370107931E+03  0.77006219657E+02 0.  0.
        254    2    1    2    0    0 -0.40924232377E+03 -0.66870588409E+03 -0.35219771645E+03  0.12449338558E+04  0.90064989582E+03 0.  0.
         23    2    4    4    0    0 -0.65931734605E+02 -0.26255751517E+03 -0.59040149777E+03  0.65509683407E+03  0.85407792596E+02 0.  0.
         23    2    4    4    0    0 -0.34331058916E+03 -0.40614836893E+03  0.23820378132E+03  0.58983702172E+03  0.91367458918E+02 0.  0.
          4    1    3    3  502    0 -0.16235217193E+01  0.39794068867E+00  0.39195171584E+01  0.42610790088E+01  0.00000000000E+00 0. -1.
         -3    1    3    3    0  502  0.41086584549E+03  0.66830794340E+03  0.23671853305E+03  0.81944000030E+03  0.00000000000E+00 0.  1.
         13    1    5    5    0    0  0.32616041623E+01 -0.36108482137E+02 -0.15801771467E+03  0.16212359080E+03  0.00000000000E+00 0.  1.
        -13    1    5    5    0    0 -0.69193338768E+02 -0.22644903303E+03 -0.43238378310E+03  0.49297324327E+03  0.00000000000E+00 0. -1.
          3    1    6    6  503    0 -0.32679911850E+03 -0.34104541544E+03  0.20496974441E+03  0.51490021885E+03  0.00000000000E+00 0. -1.
         -3    1    6    6    0  503 -0.16511470659E+02 -0.65102953483E+02  0.33234036911E+02  0.74936802874E+02  0.00000000000E+00 0.  1.
<mgrwt>
<rscale>  0 0.20656246E+04</rscale>
<asrwt>0</asrwt>
<pdfrwt beam="1">  1        2 0.16770728E+00 0.20656246E+04</pdfrwt>
<pdfrwt beam="2">  1       -1 0.15054425E+00 0.20656246E+04</pdfrwt>
<totfact> 0.80459901E+00</totfact>
</mgrwt>
</event>
<event>
12    7  0.1857704E-007  0.2502306E+04  0.7818608E-02  0.8402164E-01
          2   -1    0    0  501    0  0.00000000000E+00  0.00000000000E+00  0.14865093520E+04  0.14865093520E+04  0.00000000000E+00 0. -1.
         -1   -1    0    0    0  501 -0.00000000000E+00 -0.00000000000E+00 -0.10530602841E+04  0.10530602841E+04  0.00000000000E+00 0.  1.
         24    2    1    2    0    0  0.10756885574E+03  0.25662895184E+03  0.12554946448E+04  0.12883850513E+04  0.78992149233E+02 0.  0.
        254    2    1    2    0    0 -0.10756885574E+03 -0.25662895184E+03 -0.82204557688E+03  0.12511845848E+04  0.90126270145E+03 0.  0.
         23    2    4    4    0    0 -0.23023705625E+03 -0.24731524078E+03 -0.97469116451E+03  0.10354335987E+04  0.89027753150E+02 0.  0.
         23    2    4    4    0    0  0.12266820051E+03 -0.93137110609E+01  0.15264558763E+03  0.21575098602E+03  0.90075412386E+02 0.  0.
          4    1    3    3  502    0  0.90289680643E+02  0.21887832248E+03  0.90577038376E+03  0.93620507079E+03  0.00000000000E+00 0. -1.
         -3    1    3    3    0  502  0.17279175097E+02  0.37750629364E+02  0.34972426103E+03  0.35217998050E+03  0.00000000000E+00 0.  1.
         13    1    5    5    0    0 -0.13722967834E+03 -0.20559369436E+03 -0.67005434605E+03  0.71419435621E+03  0.00000000000E+00 0.  1.
        -13    1    5    5    0    0 -0.93007377910E+02 -0.41721546426E+02 -0.30463681846E+03  0.32123924253E+03  0.00000000000E+00 0. -1.
          1    1    6    6  503    0  0.88581006732E+02 -0.47400127866E+02  0.11191829597E+03  0.15039638243E+03  0.00000000000E+00 0. -1.
         -1    1    6    6    0  503  0.34087193777E+02  0.38086416805E+02  0.40727291664E+02  0.65354603593E+02  0.00000000000E+00 0.  1.
<mgrwt>
<rscale>  0 0.25023061E+04</rscale>
<asrwt>0</asrwt>
<pdfrwt beam="1">  1        2 0.22869375E+00 0.25023061E+04</pdfrwt>
<pdfrwt beam="2">  1       -1 0.16200927E+00 0.25023061E+04</pdfrwt>
<totfact> 0.37029607E+00</totfact>
</mgrwt>
</event>
<event>
12    7  0.1857704E-007  0.1275307E+04  0.7818608E-02  0.9049379E-01
         -1   -1    0    0    0  501 -0.00000000000E+00  0.00000000000E+00  0.35422418270E+03  0.35422418270E+03  0.00000000000E+00 0.  1.
          2   -1    0    0  501    0  0.00000000000E+00 -0.00000000000E+00 -0.11478671234E+04  0.11478671234E+04  0.00000000000E+00 0. -1.
         24    2    1    2    0    0  0.17451976525E+03  0.59604625684E+02 -0.50155708048E+03  0.54021106052E+03  0.79111472406E+02 0.  0.
        254    2    1    2    0    0 -0.17451976525E+03 -0.59604625684E+02 -0.29208586023E+03  0.96188024558E+03  0.89771353851E+03 0.  0.
         23    2    4    4    0    0 -0.86815836320E+02  0.35213384191E+03 -0.36718353523E+03  0.52449934402E+03  0.93491075893E+02 0.  0.
         23    2    4    4    0    0 -0.87703928929E+02 -0.41173846760E+03  0.75097674997E+02  0.43738090157E+03  0.91879526647E+02 0.  0.
          2    1    3    3  502    0  0.13823513845E+03  0.78158652587E+02 -0.42048648054E+03  0.44947370201E+03  0.00000000000E+00 0. -1.
         -1    1    3    3    0  502  0.36284626798E+02 -0.18554026903E+02 -0.81070599933E+02  0.90737358512E+02  0.00000000000E+00 0.  1.
         13    1    5    5    0    0 -0.94885695758E+02  0.34865541478E+03 -0.34082586040E+03  0.49671537185E+03  0.00000000000E+00 0.  1.
        -13    1    5    5    0    0  0.80698594383E+01  0.34784271302E+01 -0.26357674832E+02  0.27783972164E+02  0.00000000000E+00 0. -1.
          1    1    6    6  503    0  0.16955416947E+02 -0.49373791727E+02  0.21322821764E+02  0.56390781173E+02  0.00000000000E+00 0.  1.
         -1    1    6    6    0  503 -0.10465934588E+03 -0.36236467587E+03  0.53774853233E+02  0.38099012039E+03  0.00000000000E+00 0. -1.
<mgrwt>
<rscale>  0 0.12753075E+04</rscale>
<asrwt>0</asrwt>
<pdfrwt beam="1">  1        2 0.17659494E+00 0.12753075E+04</pdfrwt>
<pdfrwt beam="2">  1       -1 0.54496028E-01 0.12753075E+04</pdfrwt>
<totfact> 0.77529174E+01</totfact>
</mgrwt>
</event>
<event>
12    7  0.1857704E-007  0.1710850E+04  0.7818608E-02  0.8755200E-01
         -1   -1    0    0    0  501 -0.00000000000E+00  0.00000000000E+00  0.47187685072E+03  0.47187685072E+03  0.00000000000E+00 0.  1.
          2   -1    0    0  501    0  0.00000000000E+00 -0.00000000000E+00 -0.15507261057E+04  0.15507261057E+04  0.00000000000E+00 0. -1.
         24    2    1    2    0    0 -0.56640390584E+03  0.22000899288E+03 -0.25679889002E+03  0.66487603919E+03  0.83048998077E+02 0.  0.
        254    2    1    2    0    0  0.56640390584E+03 -0.22000899288E+03 -0.82205036495E+03  0.13577269172E+04  0.89355371285E+03 0.  0.
         23    2    4    4    0    0  0.46483868109E+03 -0.45860277507E+03 -0.85522350946E+03  0.10804161497E+04  0.97469486096E+02 0.  0.
         23    2    4    4    0    0  0.10156522474E+03  0.23859378219E+03  0.33173144515E+02  0.27731076749E+03  0.92511169431E+02 0.  0.
          2    1    3    3  502    0 -0.92388474474E+02  0.17621443858E+02 -0.67627508648E+02  0.11584310694E+03  0.00000000000E+00 0. -1.
         -1    1    3    3    0  502 -0.47401543136E+03  0.20238754902E+03 -0.18917138137E+03  0.54903293225E+03  0.00000000000E+00 0.  1.
         13    1    5    5    0    0  0.37065067806E+03 -0.35924139638E+03 -0.73544185591E+03  0.89850488559E+03  0.00000000000E+00 0. -1.
        -13    1    5    5    0    0  0.94188003035E+02 -0.99361378695E+02 -0.11978165356E+03  0.18191126414E+03  0.00000000000E+00 0.  1.
          2    1    6    6  503    0  0.47885061624E+02  0.71893220659E+02  0.52553657817E+02  0.10111133098E+03  0.00000000000E+00 0. -1.
         -2    1    6    6    0  503  0.53680163116E+02  0.16670056153E+03 -0.19380513302E+02  0.17619943650E+03  0.00000000000E+00 0.  1.
<mgrwt>
<rscale>  0 0.17108498E+04</rscale>
<asrwt>0</asrwt>
<pdfrwt beam="1">  1        2 0.23857325E+00 0.17108498E+04</pdfrwt>
<pdfrwt beam="2">  1       -1 0.72596438E-01 0.17108498E+04</pdfrwt>
<totfact> 0.24636383E+01</totfact>
</mgrwt>
</event>
<event>
12    7  0.1857704E-007  0.2151551E+04  0.7818608E-02  0.8538869E-01
         -1   -1    0    0    0  501 -0.00000000000E+00  0.00000000000E+00  0.89031018270E+03  0.89031018270E+03  0.00000000000E+00 0.  1.
          2   -1    0    0  501    0  0.00000000000E+00 -0.00000000000E+00 -0.12998756085E+04  0.12998756085E+04  0.00000000000E+00 0. -1.
         24    2    1    2    0    0 -0.57880793699E+03 -0.42554588853E+03 -0.68886691519E+03  0.99850536833E+03  0.79796068612E+02 0.  0.
        254    2    1    2    0    0  0.57880793699E+03  0.42554588853E+03  0.27930148941E+03  0.11916804228E+04  0.90883715649E+03 0.  0.
         23    2    4    4    0    0  0.43381143795E+03 -0.18155121790E+03  0.29249038211E+03  0.56114273180E+03  0.90428609448E+02 0.  0.
         23    2    4    4    0    0  0.14499649905E+03  0.60709710643E+03 -0.13188892701E+02  0.63053769104E+03  0.88390902010E+02 0.  0.
          2    1    3    3  502    0 -0.31281261087E+03 -0.23470934450E+03 -0.42925319233E+03  0.58068796185E+03  0.00000000000E+00 0. -1.
         -1    1    3    3    0  502 -0.26599532613E+03 -0.19083654403E+03 -0.25961372286E+03  0.41781740648E+03  0.00000000000E+00 0.  1.
         13    1    5    5    0    0  0.10447260554E+03 -0.87052915981E+02  0.74699046637E+02  0.15515374007E+03  0.00000000000E+00 0. -1.
        -13    1    5    5    0    0  0.32933883240E+03 -0.94498301918E+02  0.21779133547E+03  0.40598899173E+03  0.00000000000E+00 0.  1.
          3    1    6    6  503    0  0.50098097462E+02  0.10065885153E+03 -0.24862088143E+02  0.11515271246E+03  0.00000000000E+00 0. -1.
         -3    1    6    6    0  503  0.94898401583E+02  0.50643825491E+03  0.11673195442E+02  0.51538497858E+03  0.00000000000E+00 0.  1.
<mgrwt>
<rscale>  0 0.21515506E+04</rscale>
<asrwt>0</asrwt>
<pdfrwt beam="1">  1        2 0.19998086E+00 0.21515506E+04</pdfrwt>
<pdfrwt beam="2">  1       -1 0.13697080E+00 0.21515506E+04</pdfrwt>
<totfact> 0.76747900E+00</totfact>
</mgrwt>
</event>
<event>
12    7  0.1857704E-007  0.1402635E+04  0.7818608E-02  0.8951914E-01
          2   -1    0    0  501    0  0.00000000000E+00  0.00000000000E+00  0.16138612038E+04  0.16138612038E+04  0.00000000000E+00 0. -1.
         -1   -1    0    0    0  501 -0.00000000000E+00 -0.00000000000E+00 -0.30476358085E+03  0.30476358085E+03  0.00000000000E+00 0.  1.
         24    2    1    2    0    0 -0.19124176027E+03 -0.18392053381E+03 -0.24477092878E+02  0.28300816709E+03  0.95364149136E+02 0.  0.
        254    2    1    2    0    0  0.19124176027E+03  0.18392053381E+03  0.13335747158E+04  0.16356166176E+04  0.90907646726E+03 0.  0.
         23    2    4    4    0    0 -0.24583666235E+03  0.12187191121E+03  0.10808521211E+04  0.11186446821E+04  0.88522255485E+02 0.  0.
         23    2    4    4    0    0  0.43707842262E+03  0.62048622598E+02  0.25272259472E+03  0.51697193549E+03  0.92215471162E+02 0.  0.
          4    1    3    3  502    0 -0.47018294187E+02 -0.45330506859E+01 -0.23663925831E+02  0.52832281065E+02  0.00000000000E+00 0. -1.
         -3    1    3    3    0  502 -0.14422346608E+03 -0.17938748312E+03 -0.81316704696E+00  0.23017588603E+03  0.00000000000E+00 0.  1.
         13    1    5    5    0    0 -0.17363082803E+03  0.38220860713E+02  0.67316190787E+03  0.69624381709E+03  0.00000000000E+00 0. -1.
        -13    1    5    5    0    0 -0.72205834320E+02  0.83651050496E+02  0.40769021325E+03  0.42240086499E+03  0.00000000000E+00 0.  1.
          3    1    6    6  503    0  0.42386153292E+03  0.46447021723E+02  0.22383127128E+03  0.48157695431E+03  0.00000000000E+00 0. -1.
         -3    1    6    6    0  503  0.13216889694E+02  0.15601600875E+02  0.28891323435E+02  0.35394981182E+02  0.00000000000E+00 0.  1.
<mgrwt>
<rscale>  0 0.14026348E+04</rscale>
<asrwt>0</asrwt>
<pdfrwt beam="1">  1        2 0.24828633E+00 0.14026348E+04</pdfrwt>
<pdfrwt beam="2">  1       -1 0.46886706E-01 0.14026348E+04</pdfrwt>
<totfact> 0.55061834E+01</totfact>
</mgrwt>
</event>
<event>
12    7  0.1857704E-007  0.1501612E+04  0.7818608E-02  0.8883382E-01
         -1   -1    0    0    0  501 -0.00000000000E+00  0.00000000000E+00  0.34611407123E+03  0.34611407123E+03  0.00000000000E+00 0.  1.
          2   -1    0    0  501    0  0.00000000000E+00 -0.00000000000E+00 -0.16286816797E+04  0.16286816797E+04  0.00000000000E+00 0. -1.
         24    2    1    2    0    0 -0.46364585273E+03 -0.37913753285E+02 -0.51748916304E+03  0.69969333686E+03  0.73285758072E+02 0.  0.
        254    2    1    2    0    0  0.46364585273E+03  0.37913753285E+02 -0.76507844539E+03  0.12751024140E+04  0.90781948053E+03 0.  0.
         23    2    4    4    0    0  0.13197875983E+03 -0.26631109879E+03 -0.75453268267E+03  0.81610443207E+03  0.91470653480E+02 0.  0.
         23    2    4    4    0    0  0.33166709290E+03  0.30422485208E+03 -0.10545762721E+02  0.45899798196E+03  0.89510408315E+02 0.  0.
          2    1    3    3  502    0 -0.96638162759E+02 -0.37996641552E+02 -0.10871962177E+03  0.15034172883E+03  0.00000000000E+00 0. -1.
         -1    1    3    3    0  502 -0.36700768997E+03  0.82888266824E-01 -0.40876954127E+03  0.54935160802E+03  0.00000000000E+00 0.  1.
         13    1    5    5    0    0  0.12351110338E+03 -0.14977446874E+03 -0.47205327398E+03  0.51041324201E+03  0.00000000000E+00 0. -1.
        -13    1    5    5    0    0  0.84676564552E+01 -0.11653663005E+03 -0.28247940869E+03  0.30569119007E+03  0.00000000000E+00 0.  1.
          4    1    6    6  503    0  0.20689487757E+03  0.16592637079E+03  0.34273662425E+02  0.26741678112E+03  0.00000000000E+00 0. -1.
         -4    1    6    6    0  503  0.12477221533E+03  0.13829848129E+03 -0.44819425146E+02  0.19158120084E+03  0.00000000000E+00 0.  1.
<mgrwt>
<rscale>  0 0.15016120E+04</rscale>
<asrwt>0</asrwt>
<pdfrwt beam="1">  1        2 0.25056642E+00 0.15016120E+04</pdfrwt>
<pdfrwt beam="2">  1       -1 0.53248318E-01 0.15016120E+04</pdfrwt>
<totfact> 0.42077450E+01</totfact>
</mgrwt>
</event>
<event>
12    7  0.1857704E-007  0.1417196E+04  0.7818608E-02  0.8941465E-01
         -1   -1    0    0    0  501 -0.00000000000E+00  0.00000000000E+00  0.10808964229E+04  0.10808964229E+04  0.00000000000E+00 0.  1.
          2   -1    0    0  501    0  0.00000000000E+00 -0.00000000000E+00 -0.46453195365E+03  0.46453195365E+03  0.00000000000E+00 0. -1.
         24    2    1    2    0    0  0.16446618985E+03  0.37920830258E+03  0.22145216586E+03  0.47554419914E+03  0.79076919679E+02 0.  0.
        254    2    1    2    0    0 -0.16446618985E+03 -0.37920830258E+03  0.39491230334E+03  0.10698841774E+04  0.90434968971E+03 0.  0.
         23    2    4    4    0    0 -0.28984953568E+03  0.67561116323E+02  0.49674041851E+03  0.58615298218E+03  0.90813090272E+02 0.  0.
         23    2    4    4    0    0  0.12538334583E+03 -0.44676941890E+03 -0.10182811516E+03  0.48373119518E+03  0.91120837744E+02 0.  0.
          4    1    3    3  502    0  0.41617980611E+02  0.15322973837E+03  0.12008949278E+03  0.19908012283E+03  0.00000000000E+00 0. -1.
         -3    1    3    3    0  502  0.12284820924E+03  0.22597856421E+03  0.10136267307E+03  0.27646407631E+03  0.00000000000E+00 0.  1.
         13    1    5    5    0    0 -0.18815099350E+03  0.76350841400E+02  0.38174094554E+03  0.43238454741E+03  0.00000000000E+00 0.  1.
        -13    1    5    5    0    0 -0.10169854217E+03 -0.87897250776E+01  0.11499947297E+03  0.15376843477E+03  0.00000000000E+00 0. -1.
          1    1    6    6  503    0 -0.13968986991E+02 -0.32213501424E+02 -0.22273414982E+01  0.35182429162E+02  0.00000000000E+00 0. -1.
         -1    1    6    6    0  503  0.13935233282E+03 -0.41455591748E+03 -0.99600773665E+02  0.44854876602E+03  0.00000000000E+00 0.  1.
<mgrwt>
<rscale>  0 0.14171957E+04</rscale>
<asrwt>0</asrwt>
<pdfrwt beam="1">  1        2 0.71466455E-01 0.14171957E+04</pdfrwt>
<pdfrwt beam="2">  1       -1 0.16629176E+00 0.14171957E+04</pdfrwt>
<totfact> 0.19539148E+01</totfact>
</mgrwt>
</event>
<event>
12    7  0.1857704E-007  0.1561103E+04  0.7818608E-02  0.8844807E-01
          2   -1    0    0  501    0  0.00000000000E+00  0.00000000000E+00  0.14697060414E+04  0.14697060414E+04  0.00000000000E+00 0. -1.
         -1   -1    0    0    0  501 -0.00000000000E+00 -0.00000000000E+00 -0.41454590712E+03  0.41454590712E+03  0.00000000000E+00 0.  1.
         24    2    1    2    0    0  0.10539093648E+03 -0.77332943662E+02 -0.24752078100E+03  0.29160498540E+03  0.81726965056E+02 0.  0.
        254    2    1    2    0    0 -0.10539093648E+03  0.77332943662E+02  0.13026809152E+04  0.15926469631E+04  0.90689533487E+03 0.  0.
         23    2    4    4    0    0  0.25225918227E+03  0.17574628790E+03  0.10855490529E+03  0.33860692068E+03  0.91373007618E+02 0.  0.
         23    2    4    4    0    0 -0.35765011874E+03 -0.98413344240E+02  0.11941260099E+04  0.12540400424E+04  0.95292741265E+02 0.  0.
          2    1    3    3  502    0  0.58801055050E+02  0.32509609261E+01 -0.12059021976E+03  0.13420184024E+03  0.00000000000E+00 0. -1.
         -1    1    3    3    0  502  0.46589881426E+02 -0.80583904588E+02 -0.12693056124E+03  0.15740314516E+03  0.00000000000E+00 0.  1.
         13    1    5    5    0    0  0.17171139690E+03  0.80261080619E+02  0.32371179225E+02  0.19228764425E+03  0.00000000000E+00 0.  1.
        -13    1    5    5    0    0  0.80547785366E+02  0.95485207282E+02  0.76183726065E+02  0.14631927643E+03  0.00000000000E+00 0. -1.
          1    1    6    6  503    0 -0.13359956890E+03 -0.57368835446E+02  0.33419905885E+03  0.36445718408E+03  0.00000000000E+00 0. -1.
         -1    1    6    6    0  503 -0.22405054984E+03 -0.41044508793E+02  0.85992695109E+03  0.88958285831E+03  0.00000000000E+00 0.  1.
<mgrwt>
<rscale>  0 0.15611030E+04</rscale>
<asrwt>0</asrwt>
<pdfrwt beam="1">  1        2 0.22610862E+00 0.15611030E+04</pdfrwt>
<pdfrwt beam="2">  1       -1 0.63776294E-01 0.15611030E+04</pdfrwt>
<totfact> 0.36085668E+01</totfact>
</mgrwt>
</event>
<event>
12    7  0.1857704E-007  0.4166206E+04  0.7818608E-02  0.7971832E-01
          2   -1    0    0  501    0  0.00000000000E+00  0.00000000000E+00  0.33539507919E+04  0.33539507919E+04  0.00000000000E+00 0. -1.
         -1   -1    0    0    0  501 -0.00000000000E+00 -0.00000000000E+00 -0.12937931173E+04  0.12937931173E+04  0.00000000000E+00 0.  1.
         24    2    1    2    0    0 -0.18209325315E+04  0.32512588389E+03  0.17995321174E+04  0.25822419820E+04  0.90308843053E+02 0.  0.
        254    2    1    2    0    0  0.18209325315E+04 -0.32512588389E+03  0.26062555714E+03  0.20655019273E+04  0.88140252193E+03 0.  0.
         23    2    4    4    0    0  0.10347547074E+04 -0.56787899802E+03 -0.43420457853E+02  0.11843776859E+04  0.87528886030E+02 0.  0.
         23    2    4    4    0    0  0.78617782417E+03  0.24275311413E+03  0.30404601499E+03  0.88112424135E+03  0.83254452305E+02 0.  0.
          2    1    3    3  502    0 -0.17519101842E+04  0.30958074813E+03  0.17526943489E+04  0.24973920424E+04  0.00000000000E+00 0. -1.
         -1    1    3    3    0  502 -0.69022347373E+02  0.15545135760E+02  0.46837768586E+02  0.84849939593E+02  0.00000000000E+00 0.  1.
         13    1    5    5    0    0  0.72650845407E+03 -0.37112465661E+03 -0.62422098921E+02  0.81819591969E+03  0.00000000000E+00 0.  1.
        -13    1    5    5    0    0  0.30824625331E+03 -0.19675434141E+03  0.19001641068E+02  0.36618176621E+03  0.00000000000E+00 0. -1.
          2    1    6    6  503    0  0.49802335739E+03  0.11781671498E+03  0.16565077566E+03  0.53791097991E+03  0.00000000000E+00 0. -1.
         -2    1    6    6    0  503  0.28815446678E+03  0.12493639915E+03  0.13839523933E+03  0.34321326144E+03  0.00000000000E+00 0.  1.
<mgrwt>
<rscale>  0 0.41662062E+04</rscale>
<asrwt>0</asrwt>
<pdfrwt beam="1">  1        2 0.51599243E+00 0.41662062E+04</pdfrwt>
<pdfrwt beam="2">  1       -1 0.19904510E+00 0.41662062E+04</pdfrwt>
<totfact> 0.13815490E-01</totfact>
</mgrwt>
</event>
<event>
12    7  0.1857704E-007  0.1348565E+04  0.7818608E-02  0.8991915E-01
          4   -1    0    0  501    0  0.00000000000E+00  0.00000000000E+00  0.27588661117E+03  0.27588661117E+03  0.00000000000E+00 0. -1.
         -3   -1    0    0    0  501 -0.00000000000E+00 -0.00000000000E+00 -0.16479850165E+04  0.16479850165E+04  0.00000000000E+00 0.  1.
         24    2    1    2    0    0  0.17773868114E+03  0.32618250257E+03 -0.40030781760E+03  0.55155092659E+03  0.77304670169E+02 0.  0.
        254    2    1    2    0    0 -0.17773868114E+03 -0.32618250257E+03 -0.97179058769E+03  0.13723207010E+04  0.89493077745E+03 0.  0.
         23    2    4    4    0    0  0.25943909813E+03  0.58697407321E+02 -0.63244326920E+03  0.69219226644E+03  0.91605751496E+02 0.  0.
         23    2    4    4    0    0 -0.43717777927E+03 -0.38487990989E+03 -0.33934731850E+03  0.68012843460E+03  0.90338968655E+02 0.  0.
          2    1    3    3  502    0  0.11877549035E+03  0.19832501072E+03 -0.29971766033E+03  0.37851169453E+03  0.00000000000E+00 0. -1.
         -1    1    3    3    0  502  0.58963190787E+02  0.12785749185E+03 -0.10059015728E+03  0.17303923205E+03  0.00000000000E+00 0.  1.
         13    1    5    5    0    0  0.97376641748E+02  0.26472833713E+02 -0.35700873883E+03  0.37099630845E+03  0.00000000000E+00 0. -1.
        -13    1    5    5    0    0  0.16206245638E+03  0.32224573608E+02 -0.27543453037E+03  0.32119595799E+03  0.00000000000E+00 0.  1.
          3    1    6    6  503    0 -0.43483034442E+03 -0.38786439025E+03 -0.32909001888E+03  0.66919089517E+03  0.00000000000E+00 0. -1.
         -3    1    6    6    0  503 -0.23474348495E+01  0.29844803575E+01 -0.10257299619E+02  0.10937539433E+02  0.00000000000E+00 0.  1.
<mgrwt>
<rscale>  0 0.13485652E+04</rscale>
<asrwt>0</asrwt>
<pdfrwt beam="1">  1        4 0.42444095E-01 0.13485652E+04</pdfrwt>
<pdfrwt beam="2">  1       -3 0.25353615E+00 0.13485652E+04</pdfrwt>
<totfact> 0.84705459E-01</totfact>
</mgrwt>
</event>
<event>
12    7  0.1857704E-007  0.1719221E+04  0.7818608E-02  0.8750477E-01
          2   -1    0    0  501    0  0.00000000000E+00  0.00000000000E+00  0.80768118811E+03  0.80768118811E+03  0.00000000000E+00 0. -1.
         -1   -1    0    0    0  501 -0.00000000000E+00 -0.00000000000E+00 -0.91487870378E+03  0.91487870378E+03  0.00000000000E+00 0.  1.
         24    2    1    2    0    0  0.27573901916E+03  0.14814336454E+03  0.49684235509E+03  0.59305682514E+03  0.82979569082E+02 0.  0.
        254    2    1    2    0    0 -0.27573901916E+03 -0.14814336454E+03 -0.60403987077E+03  0.11295030667E+04  0.90162883115E+03 0.  0.
         23    2    4    4    0    0 -0.56254471682E+03  0.68622270976E+02 -0.43848152654E+03  0.72185582633E+03  0.87431175139E+02 0.  0.
         23    2    4    4    0    0  0.28680569766E+03 -0.21676563551E+03 -0.16555834423E+03  0.40764724042E+03  0.97580009876E+02 0.  0.
          4    1    3    3  502    0  0.27047834931E+03  0.15567127736E+03  0.49211998506E+03  0.58272992349E+03  0.00000000000E+00 0. -1.
         -3    1    3    3    0  502  0.52606698533E+01 -0.75279128285E+01  0.47223700362E+01  0.10326901647E+02  0.00000000000E+00 0.  1.
         13    1    5    5    0    0 -0.45639399056E+03  0.79336970767E+02 -0.38587661481E+03  0.60290180909E+03  0.00000000000E+00 0.  1.
        -13    1    5    5    0    0 -0.10615072627E+03 -0.10714699791E+02 -0.52604911724E+02  0.11895401723E+03  0.00000000000E+00 0. -1.
          2    1    6    6  503    0 -0.47915739816E+01  0.12219350195E+00  0.43532073117E+01  0.64749151633E+01  0.00000000000E+00 0. -1.
         -2    1    6    6    0  503  0.29159727164E+03 -0.21688782901E+03 -0.16991155154E+03  0.40117232526E+03  0.00000000000E+00 0.  1.
<mgrwt>
<rscale>  0 0.17192211E+04</rscale>
<asrwt>0</asrwt>
<pdfrwt beam="1">  1        2 0.12425864E+00 0.17192211E+04</pdfrwt>
<pdfrwt beam="2">  1       -1 0.14075057E+00 0.17192211E+04</pdfrwt>
<totfact> 0.15247918E+01</totfact>
</mgrwt>
</event>
<event>
12    7  0.1857704E-007  0.1335284E+04  0.7818608E-02  0.9002043E-01
          2   -1    0    0  501    0  0.00000000000E+00  0.00000000000E+00  0.65582916637E+03  0.65582916637E+03  0.00000000000E+00 0. -1.
         -1   -1    0    0    0  501 -0.00000000000E+00 -0.00000000000E+00 -0.67966732397E+03  0.67966732397E+03  0.00000000000E+00 0.  1.
         24    2    1    2    0    0 -0.68120227871E+02 -0.68460319053E+02  0.33028375132E+03  0.35364016259E+03  0.81528077900E+02 0.  0.
        254    2    1    2    0    0  0.68120227871E+02  0.68460319053E+02 -0.35412190891E+03  0.98185632775E+03  0.91066587793E+03 0.  0.
         23    2    4    4    0    0 -0.34048354820E+03  0.27470788379E+03 -0.16005868669E+03  0.47610573737E+03  0.98307791963E+02 0.  0.
         23    2    4    4    0    0  0.40860377607E+03 -0.20624756474E+03 -0.19406322222E+03  0.50575059037E+03  0.92887144760E+02 0.  0.
          2    1    3    3  502    0 -0.76965229679E+02 -0.75384265064E+02  0.32238144351E+03  0.33990620636E+03  0.00000000000E+00 0. -1.
         -1    1    3    3    0  502  0.88450018072E+01  0.69239460104E+01  0.79023078053E+01  0.13733956239E+02  0.00000000000E+00 0.  1.
         13    1    5    5    0    0 -0.33397593690E+03  0.26243514465E+03 -0.13198513515E+03  0.44478332643E+03  0.00000000000E+00 0. -1.
        -13    1    5    5    0    0 -0.65076113022E+01  0.12272739146E+02 -0.28073551537E+02  0.31322410937E+02  0.00000000000E+00 0.  1.
          4    1    6    6  503    0  0.25503814825E+03 -0.17176636497E+03 -0.15107817389E+03  0.34259707504E+03  0.00000000000E+00 0. -1.
         -4    1    6    6    0  503  0.15356562782E+03 -0.34481199766E+02 -0.42985048332E+02  0.16315351533E+03  0.00000000000E+00 0.  1.
<mgrwt>
<rscale>  0 0.13352837E+04</rscale>
<asrwt>0</asrwt>
<pdfrwt beam="1">  1        2 0.10089679E+00 0.13352837E+04</pdfrwt>
<pdfrwt beam="2">  1       -1 0.10456420E+00 0.13352837E+04</pdfrwt>
<totfact> 0.42722758E+01</totfact>
</mgrwt>
</event>
<event>
12    7  0.4128825E-007  0.2685668E+04  0.7818608E-02  0.8339670E-01
          2   -1    0    0  501    0  0.00000000000E+00  0.00000000000E+00  0.10726484866E+04  0.10726484866E+04  0.00000000000E+00 0. -1.
         -1   -1    0    0    0  501 -0.00000000000E+00 -0.00000000000E+00 -0.16810759641E+04  0.16810759641E+04  0.00000000000E+00 0.  1.
         24    2    1    2    0    0 -0.56963614467E+03 -0.65490537280E+03  0.56443520748E+03  0.10385648601E+04  0.81507549601E+02 0.  0.
        254    2    1    2    0    0  0.56963614467E+03  0.65490537280E+03 -0.11728626850E+04  0.17151595906E+04  0.90154265486E+03 0.  0.
         23    2    4    4    0    0  0.73077243366E+03  0.20871042917E+03 -0.78995033126E+03  0.10996316806E+04  0.87062702274E+02 0.  0.
         23    2    4    4    0    0 -0.16113628899E+03  0.44619494362E+03 -0.38291235375E+03  0.61552790993E+03  0.84840473216E+02 0.  0.
          4    1    3    3  502    0 -0.38002744967E+03 -0.45975525027E+03  0.34547354020E+03  0.68930959636E+03  0.00000000000E+00 0. -1.
         -3    1    3    3    0  502 -0.18960869500E+03 -0.19515012253E+03  0.21896166727E+03  0.34925526378E+03  0.00000000000E+00 0.  1.
         13    1    5    5    0    0  0.27686861927E+02 -0.85909071587E+01 -0.32923852057E+02  0.43867368777E+02  0.00000000000E+00 0. -1.
        -13    1    5    5    0    0  0.70308557174E+03  0.21730133633E+03 -0.75702647921E+03  0.10557643119E+04  0.00000000000E+00 0.  1.
          2    1    6    6  503    0  0.93470769059E+01  0.42226085527E+02 -0.39692504151E+02  0.58701831585E+02  0.00000000000E+00 0. -1.
         -2    1    6    6    0  503 -0.17048336590E+03  0.40396885810E+03 -0.34321984960E+03  0.55682607834E+03  0.00000000000E+00 0.  1.
<mgrwt>
<rscale>  0 0.26856683E+04</rscale>
<asrwt>0</asrwt>
<pdfrwt beam="1">  1        2 0.16502284E+00 0.26856683E+04</pdfrwt>
<pdfrwt beam="2">  1       -1 0.25862707E+00 0.26856683E+04</pdfrwt>
<totfact> 0.13890213E+00</totfact>
</mgrwt>
</event>
<event>
12    7  0.1857704E-007  0.1685413E+04  0.7818608E-02  0.8769728E-01
          2   -1    0    0  501    0  0.00000000000E+00  0.00000000000E+00  0.96387970946E+03  0.96387970946E+03  0.00000000000E+00 0. -1.
         -1   -1    0    0    0  501 -0.00000000000E+00 -0.00000000000E+00 -0.73676623143E+03  0.73676623143E+03  0.00000000000E+00 0.  1.
         24    2    1    2    0    0  0.21099398195E+03  0.15358988268E+03 -0.45393775345E+03  0.52942105348E+03  0.78223112801E+02 0.  0.
        254    2    1    2    0    0 -0.21099398195E+03 -0.15358988268E+03  0.68105123148E+03  0.11712248874E+04  0.91642165215E+03 0.  0.
         23    2    4    4    0    0  0.82709711779E+02  0.18521605887E+03 -0.11689361509E+03  0.25149981700E+03  0.91881204919E+02 0.  0.
         23    2    4    4    0    0 -0.29370369373E+03 -0.33880594155E+03  0.79794484657E+03  0.91972507042E+03  0.90149327483E+02 0.  0.
          2    1    3    3  502    0  0.47605808278E+02  0.69521126116E+02 -0.10112795224E+03  0.13162964211E+03  0.00000000000E+00 0. -1.
         -1    1    3    3    0  502  0.16338817367E+03  0.84068756566E+02 -0.35280980121E+03  0.39779141136E+03  0.00000000000E+00 0.  1.
         13    1    5    5    0    0  0.80178503234E+02  0.17552978132E+03 -0.13169553442E+03  0.23363007147E+03  0.00000000000E+00 0.  1.
        -13    1    5    5    0    0  0.25312085451E+01  0.96862775505E+01  0.14801919328E+02  0.17869745529E+02  0.00000000000E+00 0. -1.
          2    1    6    6  503    0 -0.19344744207E+03 -0.16617401598E+03  0.39741592669E+03  0.47220243034E+03  0.00000000000E+00 0. -1.
         -2    1    6    6    0  503 -0.10025625166E+03 -0.17263192557E+03  0.40052891988E+03  0.44752264008E+03  0.00000000000E+00 0.  1.
<mgrwt>
<rscale>  0 0.16854127E+04</rscale>
<asrwt>0</asrwt>
<pdfrwt beam="1">  1        2 0.14828919E+00 0.16854127E+04</pdfrwt>
<pdfrwt beam="2">  1       -1 0.11334865E+00 0.16854127E+04</pdfrwt>
<totfact> 0.20539644E+01</totfact>
</mgrwt>
</event>
<event>
12    7  0.1857704E-007  0.1459024E+04  0.7818608E-02  0.8912169E-01
          2   -1    0    0  501    0  0.00000000000E+00  0.00000000000E+00  0.88825527946E+03  0.88825527946E+03  0.00000000000E+00 0. -1.
         -3   -1    0    0    0  501 -0.00000000000E+00 -0.00000000000E+00 -0.59913791634E+03  0.59913791634E+03  0.00000000000E+00 0.  1.
         24    2    1    2    0    0 -0.11721258083E+03  0.16026624038E+03  0.46406360913E+03  0.50756161540E+03  0.53288865579E+02 0.  0.
        254    2    1    2    0    0  0.11721258083E+03 -0.16026624038E+03 -0.17494624602E+03  0.97983158039E+03  0.94341914334E+03 0.  0.
         23    2    4    4    0    0  0.45417493891E+03 -0.11729457359E+03  0.15061244024E+03  0.50071447968E+03  0.89431487078E+02 0.  0.
         23    2    4    4    0    0 -0.33696235808E+03 -0.42971666794E+02 -0.32555868626E+03  0.47911710071E+03  0.90413179828E+02 0.  0.
          2    1    3    3  502    0 -0.11274573920E+03  0.15086648106E+03  0.39368194550E+03  0.43641467784E+03  0.00000000000E+00 0. -1.
         -1    1    3    3    0  502 -0.44668416345E+01  0.93997593191E+01  0.70381663632E+02  0.71146937566E+02  0.00000000000E+00 0.  1.
         13    1    5    5    0    0  0.66402025379E+02 -0.50992879352E+02  0.18685275777E+02  0.85782528814E+02  0.00000000000E+00 0.  1.
        -13    1    5    5    0    0  0.38777291353E+03 -0.66301694236E+02  0.13192716446E+03  0.41493195087E+03  0.00000000000E+00 0. -1.
          2    1    6    6  503    0 -0.20646112697E+03 -0.55597506159E+02 -0.15548312480E+03  0.26437148435E+03  0.00000000000E+00 0. -1.
         -2    1    6    6    0  503 -0.13050123111E+03  0.12625839366E+02 -0.17007556145E+03  0.21474561635E+03  0.00000000000E+00 0.  1.
<mgrwt>
<rscale>  0 0.14590235E+04</rscale>
<asrwt>0</asrwt>
<pdfrwt beam="1">  1        2 0.13665466E+00 0.14590235E+04</pdfrwt>
<pdfrwt beam="2">  1       -3 0.92175064E-01 0.14590235E+04</pdfrwt>
<totfact> 0.19356628E+01</totfact>
</mgrwt>
</event>
<event>
12    7  0.1857704E-007  0.1579287E+04  0.7818608E-02  0.8833375E-01
         -1   -1    0    0    0  501 -0.00000000000E+00  0.00000000000E+00  0.96252766866E+03  0.96252766866E+03  0.00000000000E+00 0.  1.
          2   -1    0    0  501    0  0.00000000000E+00 -0.00000000000E+00 -0.64781169614E+03  0.64781169614E+03  0.00000000000E+00 0. -1.
         24    2    1    2    0    0  0.19130377223E+03  0.44911944191E+03  0.28089753974E+03  0.56893113764E+03  0.80459960070E+02 0.  0.
        254    2    1    2    0    0 -0.19130377223E+03 -0.44911944191E+03  0.33818432775E+02  0.10414082272E+04  0.91928341812E+03 0.  0.
         23    2    4    4    0    0 -0.46298203987E+03 -0.15343758203E+02  0.17143489236E+03  0.50366517563E+03  0.98493079322E+02 0.  0.
         23    2    4    4    0    0  0.27167826764E+03 -0.43377568371E+03 -0.13761645958E+03  0.53774305153E+03  0.90878350725E+02 0.  0.
          2    1    3    3  502    0  0.25141949997E+02  0.12661706426E+03  0.47517964046E+02  0.13755709912E+03  0.00000000000E+00 0. -1.
         -1    1    3    3    0  502  0.16616182223E+03  0.32250237765E+03  0.23337957569E+03  0.43137403852E+03  0.00000000000E+00 0.  1.
         13    1    5    5    0    0 -0.37823203667E+03 -0.35337153044E+02  0.10495271815E+03  0.39411072174E+03  0.00000000000E+00 0. -1.
        -13    1    5    5    0    0 -0.84750003199E+02  0.19993394841E+02  0.66482174210E+02  0.10955445389E+03  0.00000000000E+00 0.  1.
          3    1    6    6  503    0  0.21862063710E+03 -0.26870312183E+03 -0.94893056932E+02  0.35916715176E+03  0.00000000000E+00 0. -1.
         -3    1    6    6    0  503  0.53057630538E+02 -0.16507256188E+03 -0.42723402651E+02  0.17857589977E+03  0.00000000000E+00 0.  1.
<mgrwt>
<rscale>  0 0.15792868E+04</rscale>
<asrwt>0</asrwt>
<pdfrwt beam="1">  1        2 0.99663338E-01 0.15792868E+04</pdfrwt>
<pdfrwt beam="2">  1       -1 0.14808118E+00 0.15792868E+04</pdfrwt>
<totfact> 0.17894742E+01</totfact>
</mgrwt>
</event>
<event>
12    7  0.1857704E-007  0.1499250E+04  0.7818608E-02  0.8884952E-01
         -3   -1    0    0    0  501 -0.00000000000E+00  0.00000000000E+00  0.27029141041E+03  0.27029141041E+03  0.00000000000E+00 0.  1.
          2   -1    0    0  501    0  0.00000000000E+00 -0.00000000000E+00 -0.20790074849E+04  0.20790074849E+04  0.00000000000E+00 0. -1.
         24    2    1    2    0    0 -0.17163551175E+03 -0.17464681674E+03 -0.11815816389E+04  0.12090757797E+04  0.75952697954E+02 0.  0.
        254    2    1    2    0    0  0.17163551175E+03  0.17464681674E+03 -0.62713443562E+03  0.11402231156E+04  0.92024501817E+03 0.  0.
         23    2    4    4    0    0 -0.75781680381E+01 -0.36028128971E+03 -0.16553433099E+03  0.40559430585E+03  0.85118093552E+02 0.  0.
         23    2    4    4    0    0  0.17921367979E+03  0.53492810645E+03 -0.46160010463E+03  0.73462880973E+03  0.91319271776E+02 0.  0.
          2    1    3    3  502    0 -0.94724628332E+02 -0.11748968471E+03 -0.87330951889E+03  0.88625396868E+03  0.00000000000E+00 0. -1.
         -3    1    3    3    0  502 -0.76910883418E+02 -0.57157132028E+02 -0.30827211997E+03  0.32282181104E+03  0.00000000000E+00 0.  1.
         13    1    5    5    0    0 -0.60251958341E+00 -0.21133231244E+03 -0.50543918089E+02  0.21729334312E+03  0.00000000000E+00 0. -1.
        -13    1    5    5    0    0 -0.69756484547E+01 -0.14894897728E+03 -0.11499041290E+03  0.18830096272E+03  0.00000000000E+00 0.  1.
          4    1    6    6  503    0  0.63201902730E+02  0.12809906680E+03 -0.16347269592E+03  0.21708794010E+03  0.00000000000E+00 0. -1.
         -4    1    6    6    0  503  0.11601177706E+03  0.40682903965E+03 -0.29812740871E+03  0.51754086963E+03  0.00000000000E+00 0.  1.
<mgrwt>
<rscale>  0 0.14992503E+04</rscale>
<asrwt>0</asrwt>
<pdfrwt beam="1">  1        2 0.31984731E+00 0.14992503E+04</pdfrwt>
<pdfrwt beam="2">  1       -3 0.41583294E-01 0.14992503E+04</pdfrwt>
<totfact> 0.21640373E+01</totfact>
</mgrwt>
</event>
<event>
12    7  0.1857704E-007  0.1842399E+04  0.7818608E-02  0.8684072E-01
         -1   -1    0    0    0  501 -0.00000000000E+00  0.00000000000E+00  0.98008400717E+03  0.98008400717E+03  0.00000000000E+00 0.  1.
          2   -1    0    0  501    0  0.00000000000E+00 -0.00000000000E+00 -0.86585247135E+03  0.86585247135E+03  0.00000000000E+00 0. -1.
         24    2    1    2    0    0  0.20787562681E+03  0.39979341002E+03 -0.49216308028E+03  0.67170912574E+03  0.76951966189E+02 0.  0.
        254    2    1    2    0    0 -0.20787562681E+03 -0.39979341002E+03  0.60639461610E+03  0.11742273528E+04  0.89891512317E+03 0.  0.
         23    2    4    4    0    0 -0.27700833623E+03 -0.52012536243E+03  0.55670027587E+02  0.59941520425E+03  0.94527372382E+02 0.  0.
         23    2    4    4    0    0  0.69132709422E+02  0.12033195241E+03  0.55072458851E+03  0.57481214853E+03  0.88613336621E+02 0.  0.
          2    1    3    3  502    0  0.10016494668E+03  0.26911569467E+03 -0.32647316549E+03  0.43478845597E+03  0.00000000000E+00 0. -1.
         -1    1    3    3    0  502  0.10771068012E+03  0.13067771535E+03 -0.16568991479E+03  0.23692066977E+03  0.00000000000E+00 0.  1.
         13    1    5    5    0    0 -0.93770815608E+01 -0.91391655131E+01  0.16767404470E+02  0.21274394410E+02  0.00000000000E+00 0. -1.
        -13    1    5    5    0    0 -0.26763125467E+03 -0.51098619692E+03  0.38902623117E+02  0.57814080984E+03  0.00000000000E+00 0.  1.
          4    1    6    6  503    0  0.23713444273E+02 -0.21421560996E+01  0.31957308560E+02  0.39852049413E+02  0.00000000000E+00 0. -1.
         -4    1    6    6    0  503  0.45419265150E+02  0.12247410851E+03  0.51876727995E+03  0.53496009912E+03  0.00000000000E+00 0.  1.
<mgrwt>
<rscale>  0 0.18423986E+04</rscale>
<asrwt>0</asrwt>
<pdfrwt beam="1">  1        2 0.13320807E+00 0.18423986E+04</pdfrwt>
<pdfrwt beam="2">  1       -1 0.15078215E+00 0.18423986E+04</pdfrwt>
<totfact> 0.11431285E+01</totfact>
</mgrwt>
</event>
<event>
12    7  0.1857704E-007  0.1609123E+04  0.7818608E-02  0.8814963E-01
          2   -1    0    0  501    0  0.00000000000E+00  0.00000000000E+00  0.77249778646E+03  0.77249778646E+03  0.00000000000E+00 0. -1.
         -1   -1    0    0    0  501 -0.00000000000E+00 -0.00000000000E+00 -0.83795587869E+03  0.83795587869E+03  0.00000000000E+00 0.  1.
         24    2    1    2    0    0 -0.68850129090E+02  0.40206348763E+03 -0.38828976480E+03  0.56880773711E+03  0.79861830607E+02 0.  0.
        254    2    1    2    0    0  0.68850129090E+02 -0.40206348763E+03  0.32283167258E+03  0.10416459280E+04  0.90244698582E+03 0.  0.
         23    2    4    4    0    0 -0.17198131105E+03 -0.61578426479E+03  0.14437229969E+03  0.66201528733E+03  0.93021758926E+02 0.  0.
         23    2    4    4    0    0  0.24083144014E+03  0.21372077716E+03  0.17845937289E+03  0.37963064070E+03  0.92710961817E+02 0.  0.
          4    1    3    3  502    0  0.15428108010E+02  0.31612620412E+02 -0.41640664307E+02  0.54509900110E+02  0.00000000000E+00 0. -1.
         -3    1    3    3    0  502 -0.84278237100E+02  0.37045086722E+03 -0.34664910049E+03  0.51429783700E+03  0.00000000000E+00 0.  1.
         13    1    5    5    0    0 -0.10116487800E+02 -0.14666100795E+03  0.73954375722E+01  0.14719540440E+03  0.00000000000E+00 0. -1.
        -13    1    5    5    0    0 -0.16186482325E+03 -0.46912325684E+03  0.13697686212E+03  0.51481988294E+03  0.00000000000E+00 0.  1.
          1    1    6    6  503    0  0.15343705436E+03  0.19020055253E+03  0.13586828944E+03  0.27960574370E+03  0.00000000000E+00 0. -1.
         -1    1    6    6    0  503  0.87394385775E+02  0.23520224631E+02  0.42591083450E+02  0.10002489701E+03  0.00000000000E+00 0.  1.
<mgrwt>
<rscale>  0 0.16091228E+04</rscale>
<asrwt>0</asrwt>
<pdfrwt beam="1">  1        2 0.11884581E+00 0.16091228E+04</pdfrwt>
<pdfrwt beam="2">  1       -1 0.12891629E+00 0.16091228E+04</pdfrwt>
<totfact> 0.20451346E+01</totfact>
</mgrwt>
</event>
<event>
12    7  0.1857704E-007  0.1938322E+04  0.7818608E-02  0.8636013E-01
          2   -1    0    0  501    0  0.00000000000E+00  0.00000000000E+00  0.98405316729E+03  0.98405316729E+03  0.00000000000E+00 0. -1.
         -1   -1    0    0    0  501 -0.00000000000E+00 -0.00000000000E+00 -0.95449422617E+03  0.95449422617E+03  0.00000000000E+00 0.  1.
         24    2    1    2    0    0 -0.64781777094E+03  0.34742404435E+03 -0.18913455110E+03  0.76327930121E+03  0.80324854850E+02 0.  0.
        254    2    1    2    0    0  0.64781777094E+03 -0.34742404435E+03  0.21869349221E+03  0.11752680922E+04  0.89053742997E+03 0.  0.
         23    2    4    4    0    0  0.24434125008E+02  0.23226575715E+03  0.19882573351E+03  0.31914870752E+03  0.88203269753E+02 0.  0.
         23    2    4    4    0    0  0.62338364593E+03 -0.57968980150E+03  0.19867758699E+02  0.85611938472E+03  0.88872026450E+02 0.  0.
          2    1    3    3  502    0 -0.38283180112E+03  0.20186125794E+03 -0.15183660802E+03  0.45865293081E+03  0.00000000000E+00 0. -1.
         -1    1    3    3    0  502 -0.26498596982E+03  0.14556278640E+03 -0.37297943082E+02  0.30462637041E+03  0.00000000000E+00 0.  1.
         13    1    5    5    0    0  0.30933984969E+02  0.12598594952E+03  0.56741755376E+02  0.14159448331E+03  0.00000000000E+00 0.  1.
        -13    1    5    5    0    0 -0.64998599606E+01  0.10627980763E+03  0.14208397814E+03  0.17755422421E+03  0.00000000000E+00 0. -1.
          3    1    6    6  503    0  0.25595643629E+03 -0.25065607570E+03 -0.34528456723E+02  0.35990884941E+03  0.00000000000E+00 0. -1.
         -3    1    6    6    0  503  0.36742720964E+03 -0.32903372580E+03  0.54396215422E+02  0.49621053531E+03  0.00000000000E+00 0.  1.
<mgrwt>
<rscale>  0 0.19383220E+04</rscale>
<asrwt>0</asrwt>
<pdfrwt beam="1">  1        2 0.15139280E+00 0.19383220E+04</pdfrwt>
<pdfrwt beam="2">  1       -1 0.14684526E+00 0.19383220E+04</pdfrwt>
<totfact> 0.10149714E+01</totfact>
</mgrwt>
</event>
<event>
12    7  0.1857704E-007  0.3295038E+04  0.7818608E-02  0.8164159E-01
         -1   -1    0    0    0  501 -0.00000000000E+00  0.00000000000E+00  0.90487817741E+03  0.90487817741E+03  0.00000000000E+00 0.  1.
          2   -1    0    0  501    0  0.00000000000E+00 -0.00000000000E+00 -0.29996505398E+04  0.29996505398E+04  0.00000000000E+00 0. -1.
         24    2    1    2    0    0  0.76310540610E+03 -0.13158960685E+04 -0.10510692498E+04  0.18507066167E+04  0.80349792519E+02 0.  0.
        254    2    1    2    0    0 -0.76310540610E+03  0.13158960685E+04 -0.10437031126E+04  0.20538221005E+04  0.90274952751E+03 0.  0.
         23    2    4    4    0    0 -0.79582232786E+03  0.93282496813E+03 -0.38969216554E+03  0.12897401868E+04  0.89856368620E+02 0.  0.
         23    2    4    4    0    0  0.32716921767E+02  0.38307110039E+03 -0.65401094702E+03  0.76408191366E+03  0.90977948132E+02 0.  0.
          4    1    3    3  502    0  0.31245550453E+03 -0.59607564328E+03 -0.43112823680E+03  0.79925350884E+03  0.00000000000E+00 0. -1.
         -3    1    3    3    0  502  0.45064990157E+03 -0.71982042523E+03 -0.61994101299E+03  0.10514531078E+04  0.00000000000E+00 0.  1.
         13    1    5    5    0    0 -0.59484087729E+03  0.74669893500E+03 -0.28255898192E+03  0.99560762708E+03  0.00000000000E+00 0. -1.
        -13    1    5    5    0    0 -0.20098145058E+03  0.18612603313E+03 -0.10713318362E+03  0.29413255977E+03  0.00000000000E+00 0.  1.
          1    1    6    6  503    0  0.35826414980E+02  0.24114838915E+03 -0.48905766497E+03  0.54645537537E+03  0.00000000000E+00 0. -1.
         -1    1    6    6    0  503 -0.31094932126E+01  0.14192271124E+03 -0.16495328204E+03  0.21762653829E+03  0.00000000000E+00 0.  1.
<mgrwt>
<rscale>  0 0.32950377E+04</rscale>
<asrwt>0</asrwt>
<pdfrwt beam="1">  1        2 0.46148469E+00 0.32950377E+04</pdfrwt>
<pdfrwt beam="2">  1       -1 0.13921203E+00 0.32950377E+04</pdfrwt>
<totfact> 0.70274061E-01</totfact>
</mgrwt>
</event>
<event>
12    7  0.1857704E-007  0.1042591E+04  0.7818608E-02  0.9263027E-01
         -1   -1    0    0    0  501 -0.00000000000E+00  0.00000000000E+00  0.17239156016E+03  0.17239156016E+03  0.00000000000E+00 0.  1.
          2   -1    0    0  501    0  0.00000000000E+00 -0.00000000000E+00 -0.15763463897E+04  0.15763463897E+04  0.00000000000E+00 0. -1.
         24    2    1    2    0    0  0.92288313945E+02 -0.41893005003E+02 -0.49945803881E+02  0.13764583788E+03  0.78610664677E+02 0.  0.
        254    2    1    2    0    0 -0.92288313945E+02  0.41893005003E+02 -0.13540090257E+04  0.16110921120E+04  0.86718233089E+03 0.  0.
         23    2    4    4    0    0  0.30612118763E+03 -0.21319056452E+03 -0.52713759127E+03  0.65342385225E+03  0.99640816131E+02 0.  0.
         23    2    4    4    0    0 -0.39840950158E+03  0.25508356952E+03 -0.82687143443E+03  0.95766825978E+03  0.98052885377E+02 0.  0.
          4    1    3    3  502    0  0.88131643066E+02 -0.22781761878E+02 -0.65922205116E+02  0.11239186942E+03  0.00000000000E+00 0. -1.
         -3    1    3    3    0  502  0.41566708787E+01 -0.19111243126E+02  0.15976401235E+02  0.25253968461E+02  0.00000000000E+00 0.  1.
         13    1    5    5    0    0  0.10954374094E+03 -0.24383505606E+02 -0.17916321796E+03  0.21140918900E+03  0.00000000000E+00 0. -1.
        -13    1    5    5    0    0  0.19657744669E+03 -0.18880705891E+03 -0.34797437331E+03  0.44201466324E+03  0.00000000000E+00 0.  1.
          1    1    6    6  503    0 -0.35657286123E+03  0.19561876925E+03 -0.65425024025E+03  0.77035984131E+03  0.00000000000E+00 0. -1.
         -1    1    6    6    0  503 -0.41836640345E+02  0.59464800276E+02 -0.17262119419E+03  0.18730841847E+03  0.00000000000E+00 0.  1.
<mgrwt>
<rscale>  0 0.10425906E+04</rscale>
<asrwt>0</asrwt>
<pdfrwt beam="1">  1        2 0.24251481E+00 0.10425906E+04</pdfrwt>
<pdfrwt beam="2">  1       -1 0.26521780E-01 0.10425906E+04</pdfrwt>
<totfact> 0.16498758E+02</totfact>
</mgrwt>
</event>
<event>
12    7  0.1857704E-007  0.3227122E+04  0.7818608E-02  0.8181691E-01
          2   -1    0    0  501    0  0.00000000000E+00  0.00000000000E+00  0.23035261795E+04  0.23035261795E+04  0.00000000000E+00 0. -1.
         -1   -1    0    0    0  501 -0.00000000000E+00 -0.00000000000E+00 -0.11302579037E+04  0.11302579037E+04  0.00000000000E+00 0.  1.
         24    2    1    2    0    0  0.90800974163E+03 -0.14549626829E+02 -0.70627099267E+03  0.11531477700E+04  0.78978995949E+02 0.  0.
        254    2    1    2    0    0 -0.90800974163E+03  0.14549626829E+02  0.18795392684E+04  0.22806363132E+04  0.91866247816E+03 0.  0.
         23    2    4    4    0    0 -0.30423710487E+03 -0.26181649744E+03  0.13924802688E+04  0.14522136629E+04  0.93888920388E+02 0.  0.
         23    2    4    4    0    0 -0.60377263676E+03  0.27636612427E+03  0.48705899966E+03  0.82842265029E+03  0.90210791091E+02 0.  0.
          4    1    3    3  502    0  0.42616513421E+03  0.30661421780E+02 -0.34658008193E+03  0.55015870219E+03  0.00000000000E+00 0. -1.
         -3    1    3    3    0  502  0.48184460741E+03 -0.45211048609E+02 -0.35969091074E+03  0.60298906779E+03  0.00000000000E+00 0.  1.
         13    1    5    5    0    0 -0.29828658984E+03 -0.26638602226E+03  0.13851402975E+04  0.14417177415E+04  0.00000000000E+00 0. -1.
        -13    1    5    5    0    0 -0.59505150297E+01  0.45695248184E+01  0.73399713111E+01  0.10495921352E+02  0.00000000000E+00 0.  1.
          3    1    6    6  503    0 -0.45826616867E+03  0.23256583696E+03  0.33498402857E+03  0.61344033880E+03  0.00000000000E+00 0. -1.
         -3    1    6    6    0  503 -0.14550646809E+03  0.43800287303E+02  0.15207497109E+03  0.21498231149E+03  0.00000000000E+00 0.  1.
<mgrwt>
<rscale>  0 0.32271217E+04</rscale>
<asrwt>0</asrwt>
<pdfrwt beam="1">  1        2 0.35438864E+00 0.32271217E+04</pdfrwt>
<pdfrwt beam="2">  1       -1 0.17388583E+00 0.32271217E+04</pdfrwt>
<totfact> 0.99325350E-01</totfact>
</mgrwt>
</event>
<event>
12    7  0.1857704E-007  0.1923355E+04  0.7818608E-02  0.8643318E-01
         -1   -1    0    0    0  501 -0.00000000000E+00  0.00000000000E+00  0.67107453446E+03  0.67107453446E+03  0.00000000000E+00 0.  1.
          2   -1    0    0  501    0  0.00000000000E+00 -0.00000000000E+00 -0.13781230256E+04  0.13781230256E+04  0.00000000000E+00 0. -1.
         24    2    1    2    0    0  0.18597028656E+03 -0.24978227831E+03  0.44560243869E+03  0.54949596758E+03  0.80050927434E+02 0.  0.
        254    2    1    2    0    0 -0.18597028656E+03  0.24978227831E+03 -0.11526509298E+04  0.14997015924E+04  0.90748254330E+03 0.  0.
         23    2    4    4    0    0  0.33962544427E+03  0.23946635612E+03 -0.51976799615E+03  0.67189334256E+03  0.92694745502E+02 0.  0.
         23    2    4    4    0    0 -0.52559573083E+03  0.10315922193E+02 -0.63288293364E+03  0.82780824988E+03  0.91478961336E+02 0.  0.
          2    1    3    3  502    0  0.86641328681E+02 -0.64138639839E+02  0.18888859677E+03  0.21748422229E+03  0.00000000000E+00 0. -1.
         -1    1    3    3    0  502  0.99328957876E+02 -0.18564363847E+03  0.25671384192E+03  0.33201174529E+03  0.00000000000E+00 0.  1.
         13    1    5    5    0    0  0.25872974683E+03  0.15370755023E+03 -0.42431935835E+03  0.52020573888E+03  0.00000000000E+00 0.  1.
        -13    1    5    5    0    0  0.80895697447E+02  0.85758805891E+02 -0.95448637802E+02  0.15168760368E+03  0.00000000000E+00 0. -1.
          4    1    6    6  503    0 -0.38622966486E+03 -0.15539667225E+02 -0.51192877366E+03  0.64147167091E+03  0.00000000000E+00 0. -1.
         -4    1    6    6    0  503 -0.13936606597E+03  0.25855589418E+02 -0.12095415997E+03  0.18633657898E+03  0.00000000000E+00 0.  1.
<mgrwt>
<rscale>  0 0.19233546E+04</rscale>
<asrwt>0</asrwt>
<pdfrwt beam="1">  1        2 0.21201893E+00 0.19233546E+04</pdfrwt>
<pdfrwt beam="2">  1       -1 0.10324224E+00 0.19233546E+04</pdfrwt>
<totfact> 0.14052752E+01</totfact>
</mgrwt>
</event>
<event>
12    7  0.1857704E-007  0.2818952E+04  0.7818608E-02  0.8297408E-01
         -1   -1    0    0    0  501 -0.00000000000E+00  0.00000000000E+00  0.75431993508E+03  0.75431993508E+03  0.00000000000E+00 0.  1.
          2   -1    0    0  501    0  0.00000000000E+00 -0.00000000000E+00 -0.26336611522E+04  0.26336611522E+04  0.00000000000E+00 0. -1.
         24    2    1    2    0    0  0.11449980041E+04 -0.43235505306E+03 -0.48928506420E+03  0.13204772396E+04  0.79428867819E+02 0.  0.
        254    2    1    2    0    0 -0.11449980041E+04  0.43235505306E+03 -0.13900561529E+04  0.20675038476E+04  0.91889320946E+03 0.  0.
         23    2    4    4    0    0 -0.41990392715E+02  0.20803026768E+03  0.50814197944E+02  0.23685927932E+03  0.92089359537E+02 0.  0.
         23    2    4    4    0    0 -0.11030076114E+04  0.22432478539E+03 -0.14408703508E+04  0.18306445683E+04  0.90580171009E+02 0.  0.
          2    1    3    3  502    0  0.36887100582E+03 -0.15029630792E+03 -0.12102930065E+03  0.41629663790E+03  0.00000000000E+00 0. -1.
         -1    1    3    3    0  502  0.77612699827E+03 -0.28205874514E+03 -0.36825576354E+03  0.90418060173E+03  0.00000000000E+00 0.  1.
         13    1    5    5    0    0  0.15408236209E+02  0.71467053114E+02 -0.15212815185E+02  0.74675184430E+02  0.00000000000E+00 0. -1.
        -13    1    5    5    0    0 -0.57398628924E+02  0.13656321456E+03  0.66027013129E+02  0.16218409489E+03  0.00000000000E+00 0.  1.
          1    1    6    6  503    0 -0.98547640128E+03  0.22604001037E+03 -0.12717153507E+04  0.16246592741E+04  0.00000000000E+00 0. -1.
         -1    1    6    6    0  503 -0.11753121011E+03 -0.17152249799E+01 -0.16915500010E+03  0.20598529414E+03  0.00000000000E+00 0.  1.
<mgrwt>
<rscale>  0 0.28189524E+04</rscale>
<asrwt>0</asrwt>
<pdfrwt beam="1">  1        2 0.40517864E+00 0.28189524E+04</pdfrwt>
<pdfrwt beam="2">  1       -1 0.11604922E+00 0.28189524E+04</pdfrwt>
<totfact> 0.19276707E+00</totfact>
</mgrwt>
</event>
<event>
12    7  0.1857704E-007  0.2277676E+04  0.7818608E-02  0.8486775E-01
          2   -1    0    0  501    0  0.00000000000E+00  0.00000000000E+00  0.14278689525E+04  0.14278689525E+04  0.00000000000E+00 0. -1.
         -1   -1    0    0    0  501 -0.00000000000E+00 -0.00000000000E+00 -0.90831341871E+03  0.90831341871E+03  0.00000000000E+00 0.  1.
         24    2    1    2    0    0  0.60418988301E+03 -0.72110684954E+03  0.45470518627E+02  0.94496224412E+03  0.76456337581E+02 0.  0.
        254    2    1    2    0    0 -0.60418988301E+03  0.72110684954E+03  0.47408501518E+03  0.13912201271E+04  0.90867834644E+03 0.  0.
         23    2    4    4    0    0 -0.76634582510E+03  0.26602445256E+03  0.31643398806E+03  0.87552618985E+03  0.91436903428E+02 0.  0.
         23    2    4    4    0    0  0.16215594209E+03  0.45508239698E+03  0.15765102712E+03  0.51569393726E+03  0.87703209670E+02 0.  0.
          2    1    3    3  502    0  0.51488065007E+03 -0.59795848320E+03  0.11886286136E+02  0.78917533872E+03  0.00000000000E+00 0. -1.
         -1    1    3    3    0  502  0.89309232937E+02 -0.12314836634E+03  0.33584232492E+02  0.15578690540E+03  0.00000000000E+00 0.  1.
         13    1    5    5    0    0 -0.26860253615E+03  0.47685392223E+02  0.10328802437E+03  0.29170127705E+03  0.00000000000E+00 0. -1.
        -13    1    5    5    0    0 -0.49774328895E+03  0.21833906034E+03  0.21314596369E+03  0.58382491280E+03  0.00000000000E+00 0.  1.
          2    1    6    6  503    0  0.47081987793E+02  0.23741803587E+03  0.10542643139E+03  0.26400524572E+03  0.00000000000E+00 0. -1.
         -2    1    6    6    0  503  0.11507395430E+03  0.21766436111E+03  0.52224595731E+02  0.25168869155E+03  0.00000000000E+00 0.  1.
<mgrwt>
<rscale>  0 0.22776765E+04</rscale>
<asrwt>0</asrwt>
<pdfrwt beam="1">  1        2 0.21967215E+00 0.22776765E+04</pdfrwt>
<pdfrwt beam="2">  1       -1 0.13974053E+00 0.22776765E+04</pdfrwt>
<totfact> 0.60803728E+00</totfact>
</mgrwt>
</event>
<event>
12    7  0.1857704E-007  0.1298486E+04  0.7818608E-02  0.9030767E-01
         -1   -1    0    0    0  501 -0.00000000000E+00  0.00000000000E+00  0.20138291269E+03  0.20138291269E+03  0.00000000000E+00 0.  1.
          2   -1    0    0  501    0  0.00000000000E+00 -0.00000000000E+00 -0.20931095607E+04  0.20931095607E+04  0.00000000000E+00 0. -1.
         24    2    1    2    0    0 -0.23831375905E+02  0.32137924272E+03 -0.37131864853E+03  0.49781092526E+03  0.78010425190E+02 0.  0.
        254    2    1    2    0    0  0.23831375905E+02 -0.32137924272E+03 -0.15204079995E+04  0.17966815482E+04  0.90142750589E+03 0.  0.
         23    2    4    4    0    0 -0.21124854358E+03 -0.44282573988E+03 -0.39309815108E+03  0.63551746062E+03  0.92928484902E+02 0.  0.
         23    2    4    4    0    0  0.23507991948E+03  0.12144649715E+03 -0.11273098484E+04  0.11611640875E+04  0.86387056940E+02 0.  0.
          4    1    3    3  502    0  0.94748706771E+01  0.65888468011E+02 -0.38440538427E+02  0.76868318479E+02  0.00000000000E+00 0. -1.
         -3    1    3    3    0  502 -0.33306246582E+02  0.25549077471E+03 -0.33287811010E+03  0.42094260679E+03  0.00000000000E+00 0.  1.
         13    1    5    5    0    0 -0.54921784516E+02 -0.46286226178E+02 -0.73486787994E+02  0.10275760389E+03  0.00000000000E+00 0. -1.
        -13    1    5    5    0    0 -0.15632675906E+03 -0.39653951370E+03 -0.31961136309E+03  0.53275985673E+03  0.00000000000E+00 0.  1.
          3    1    6    6  503    0  0.61304841209E+01 -0.10354582201E+02 -0.87346161339E+02  0.88171152361E+02  0.00000000000E+00 0. -1.
         -3    1    6    6    0  503  0.22894943536E+03  0.13180107936E+03 -0.10399636871E+04  0.10729929352E+04  0.00000000000E+00 0.  1.
<mgrwt>
<rscale>  0 0.12984860E+04</rscale>
<asrwt>0</asrwt>
<pdfrwt beam="1">  1        2 0.32201686E+00 0.12984860E+04</pdfrwt>
<pdfrwt beam="2">  1       -1 0.30981986E-01 0.12984860E+04</pdfrwt>
<totfact> 0.63909649E+01</totfact>
</mgrwt>
</event>
<event>
12    7  0.1857704E-007  0.1243564E+04  0.7818608E-02  0.9075557E-01
          2   -1    0    0  501    0  0.00000000000E+00  0.00000000000E+00  0.17331203918E+04  0.17331203918E+04  0.00000000000E+00 0. -1.
         -1   -1    0    0    0  501 -0.00000000000E+00 -0.00000000000E+00 -0.22307328998E+03  0.22307328998E+03  0.00000000000E+00 0.  1.
         24    2    1    2    0    0 -0.10450613961E+01  0.11641032327E+03  0.83212895120E+03  0.84745255946E+03  0.11038475259E+03 0.  0.
        254    2    1    2    0    0  0.10450613961E+01 -0.11641032327E+03  0.67791815061E+03  0.11087411223E+04  0.86958691447E+03 0.  0.
         23    2    4    4    0    0  0.19099400549E+03 -0.31677343033E+03  0.11357405746E+02  0.38136666876E+03  0.92127243986E+02 0.  0.
         23    2    4    4    0    0 -0.18994894409E+03  0.20036310706E+03  0.66656074486E+03  0.72737445353E+03  0.92435886043E+02 0.  0.
          4    1    3    3  502    0  0.16003492260E+02  0.13448072735E+03  0.71609419077E+03  0.72878808157E+03  0.00000000000E+00 0. -1.
         -3    1    3    3    0  502 -0.17048553656E+02 -0.18070404073E+02  0.11603476043E+03  0.11866447789E+03  0.00000000000E+00 0.  1.
         13    1    5    5    0    0  0.94423137397E+02 -0.11610546534E+03 -0.35471925826E+02  0.15380008283E+03  0.00000000000E+00 0. -1.
        -13    1    5    5    0    0  0.96570868091E+02 -0.20066796499E+03  0.46829331572E+02  0.22756658593E+03  0.00000000000E+00 0.  1.
          3    1    6    6  503    0 -0.12156485545E+03  0.61734735234E+02  0.29787968151E+03  0.32759959749E+03  0.00000000000E+00 0. -1.
         -3    1    6    6    0  503 -0.68384088640E+02  0.13862837182E+03  0.36868106335E+03  0.39977485604E+03  0.00000000000E+00 0.  1.
<mgrwt>
<rscale>  0 0.12435640E+04</rscale>
<asrwt>0</asrwt>
<pdfrwt beam="1">  1        2 0.26663390E+00 0.12435640E+04</pdfrwt>
<pdfrwt beam="2">  1       -1 0.34318969E-01 0.12435640E+04</pdfrwt>
<totfact> 0.84688286E+01</totfact>
</mgrwt>
</event>
<event>
12    7  0.1857704E-007  0.1279615E+04  0.7818608E-02  0.9045889E-01
         -1   -1    0    0    0  501 -0.00000000000E+00  0.00000000000E+00  0.57885129742E+03  0.57885129742E+03  0.00000000000E+00 0.  1.
          2   -1    0    0  501    0  0.00000000000E+00 -0.00000000000E+00 -0.70718265973E+03  0.70718265973E+03  0.00000000000E+00 0. -1.
         24    2    1    2    0    0 -0.20907405330E+02  0.29892236514E+03 -0.12086035887E+03  0.33303462261E+03  0.80703987088E+02 0.  0.
        254    2    1    2    0    0  0.20907405330E+02 -0.29892236514E+03 -0.74710034393E+01  0.95299933453E+03  0.90463264133E+03 0.  0.
         23    2    4    4    0    0 -0.37959054769E+03  0.18750814476E+02 -0.14242722302E+03  0.41595257495E+03  0.91051929196E+02 0.  0.
         23    2    4    4    0    0  0.40049795302E+03 -0.31767317961E+03  0.13495621958E+03  0.53704675959E+03  0.94293061045E+02 0.  0.
          2    1    3    3  502    0 -0.23946650986E+02  0.28653080929E+03 -0.92675125602E+02  0.30209605372E+03  0.00000000000E+00 0. -1.
         -1    1    3    3    0  502  0.30392456562E+01  0.12391555844E+02 -0.28185233269E+02  0.30938568888E+02  0.00000000000E+00 0.  1.
         13    1    5    5    0    0 -0.33455218130E+03 -0.29595719399E+01 -0.14762117177E+03  0.36568556361E+03  0.00000000000E+00 0. -1.
        -13    1    5    5    0    0 -0.45038366387E+02  0.21710386416E+02  0.51939487467E+01  0.50267011336E+02  0.00000000000E+00 0.  1.
          1    1    6    6  503    0  0.38456767386E+03 -0.28868307302E+03  0.10451145246E+03  0.49209029265E+03  0.00000000000E+00 0. -1.
         -1    1    6    6    0  503  0.15930279158E+02 -0.28990106598E+02  0.30444767117E+02  0.44956466937E+02  0.00000000000E+00 0.  1.
<mgrwt>
<rscale>  0 0.12796149E+04</rscale>
<asrwt>0</asrwt>
<pdfrwt beam="1">  1        2 0.10879733E+00 0.12796149E+04</pdfrwt>
<pdfrwt beam="2">  1       -1 0.89054046E-01 0.12796149E+04</pdfrwt>
<totfact> 0.56091390E+01</totfact>
</mgrwt>
</event>
<event>
12    7  0.1857704E-007  0.2051391E+04  0.7818608E-02  0.8582964E-01
          4   -1    0    0  501    0  0.00000000000E+00  0.00000000000E+00  0.81602576819E+03  0.81602576819E+03  0.00000000000E+00 0. -1.
         -3   -1    0    0    0  501 -0.00000000000E+00 -0.00000000000E+00 -0.12892373047E+04  0.12892373047E+04  0.00000000000E+00 0.  1.
         24    2    1    2    0    0 -0.68562472927E+02  0.23269403522E+03  0.61915931377E+03  0.67115707145E+03  0.90808766132E+02 0.  0.
        254    2    1    2    0    0  0.68562472927E+02 -0.23269403522E+03 -0.10923708502E+04  0.14341060014E+04  0.89696076952E+03 0.  0.
         23    2    4    4    0    0 -0.70977576817E+02 -0.17208854645E+02 -0.11498449880E+04  0.11557557958E+04  0.91071411481E+02 0.  0.
         23    2    4    4    0    0  0.13954004974E+03 -0.21548518058E+03  0.57474137813E+02  0.27835020555E+03  0.90941035203E+02 0.  0.
          2    1    3    3  502    0 -0.77719857221E+02  0.20753511267E+03  0.47015187596E+03  0.51976339393E+03  0.00000000000E+00 0. -1.
         -1    1    3    3    0  502  0.91573842935E+01  0.25158922551E+02  0.14900743781E+03  0.15139367752E+03  0.00000000000E+00 0.  1.
         13    1    5    5    0    0 -0.24898876539E+02 -0.38674314414E+02 -0.87767545044E+03  0.87887988540E+03  0.00000000000E+00 0.  1.
        -13    1    5    5    0    0 -0.46078700278E+02  0.21465459769E+02 -0.27216953761E+03  0.27687591044E+03  0.00000000000E+00 0. -1.
          4    1    6    6  503    0  0.49801800950E+02 -0.45714122604E+02  0.53615737809E+02  0.86282372036E+02  0.00000000000E+00 0. -1.
         -4    1    6    6    0  503  0.89738248794E+02 -0.16977105797E+03  0.38584000038E+01  0.19206783352E+03  0.00000000000E+00 0.  1.
<mgrwt>
<rscale>  0 0.20513906E+04</rscale>
<asrwt>0</asrwt>
<pdfrwt beam="1">  1        4 0.12554243E+00 0.20513906E+04</pdfrwt>
<pdfrwt beam="2">  1       -3 0.19834420E+00 0.20513906E+04</pdfrwt>
<totfact> 0.14997952E-01</totfact>
</mgrwt>
</event>
<event>
12    7  0.1857704E-007  0.1384164E+04  0.7818608E-02  0.8965362E-01
          2   -1    0    0  501    0  0.00000000000E+00  0.00000000000E+00  0.67564659478E+03  0.67564659478E+03  0.00000000000E+00 0. -1.
         -1   -1    0    0    0  501 -0.00000000000E+00 -0.00000000000E+00 -0.70891722626E+03  0.70891722626E+03  0.00000000000E+00 0.  1.
         24    2    1    2    0    0 -0.98449854631E+02  0.36133589179E+03  0.10838351802E+03  0.39809567425E+03  0.80480918903E+02 0.  0.
        254    2    1    2    0    0  0.98449854631E+02 -0.36133589179E+03 -0.14165414950E+03  0.98646814679E+03  0.90155283039E+03 0.  0.
         23    2    4    4    0    0 -0.41867301230E+02  0.65698041501E+02  0.31634111287E+03  0.33831937950E+03  0.91209644673E+02 0.  0.
         23    2    4    4    0    0  0.14031715586E+03 -0.42703393329E+03 -0.45799526237E+03  0.64814876729E+03  0.91050973542E+02 0.  0.
          4    1    3    3  502    0 -0.11254861886E+03  0.32149931083E+03  0.10009726108E+03  0.35503304092E+03  0.00000000000E+00 0. -1.
         -3    1    3    3    0  502  0.14098764225E+02  0.39836580964E+02  0.82862569413E+01  0.43062633334E+02  0.00000000000E+00 0.  1.
         13    1    5    5    0    0 -0.65625535241E+02  0.41037250179E+02  0.15342025916E+03  0.17183871129E+03  0.00000000000E+00 0. -1.
        -13    1    5    5    0    0  0.23758234011E+02  0.24660791322E+02  0.16292085371E+03  0.16648066820E+03  0.00000000000E+00 0.  1.
          2    1    6    6  503    0  0.44139178042E+02 -0.18610304368E+03 -0.13617820086E+03  0.23479163591E+03  0.00000000000E+00 0. -1.
         -2    1    6    6    0  503  0.96177977819E+02 -0.24093088961E+03 -0.32181706151E+03  0.41335713138E+03  0.00000000000E+00 0.  1.
<mgrwt>
<rscale>  0 0.13841640E+04</rscale>
<asrwt>0</asrwt>
<pdfrwt beam="1">  1        2 0.10394563E+00 0.13841640E+04</pdfrwt>
<pdfrwt beam="2">  1       -1 0.10906419E+00 0.13841640E+04</pdfrwt>
<totfact> 0.37155885E+01</totfact>
</mgrwt>
</event>
<event>
12    7  0.1857704E-007  0.1689977E+04  0.7818608E-02  0.8767101E-01
          2   -1    0    0  501    0  0.00000000000E+00  0.00000000000E+00  0.21584167424E+04  0.21584167424E+04  0.00000000000E+00 0. -1.
         -1   -1    0    0    0  501 -0.00000000000E+00 -0.00000000000E+00 -0.33080070982E+03  0.33080070982E+03  0.00000000000E+00 0.  1.
         24    2    1    2    0    0 -0.12175095738E+03 -0.58996084826E+03  0.59242985528E+03  0.84841090579E+03  0.77141645998E+02 0.  0.
        254    2    1    2    0    0  0.12175095738E+03  0.58996084826E+03  0.12351861773E+04  0.16408065464E+04  0.89648431781E+03 0.  0.
         23    2    4    4    0    0  0.48195101382E+03  0.19232848956E+03  0.71638931581E+03  0.88892069219E+03  0.87745755270E+02 0.  0.
         23    2    4    4    0    0 -0.36020005644E+03  0.39763235869E+03  0.51879686150E+03  0.75188585424E+03  0.91250101191E+02 0.  0.
          4    1    3    3  502    0 -0.21406255469E+02 -0.26462292860E+02  0.23282315675E+02  0.41237688342E+02  0.00000000000E+00 0. -1.
         -3    1    3    3    0  502 -0.10034470191E+03 -0.56349855540E+03  0.56914753960E+03  0.80717321745E+03  0.00000000000E+00 0.  1.
         13    1    5    5    0    0  0.17798136943E+03  0.59443016406E+02  0.33031077416E+03  0.37988952024E+03  0.00000000000E+00 0. -1.
        -13    1    5    5    0    0  0.30396964439E+03  0.13288547316E+03  0.38607854165E+03  0.50903117194E+03  0.00000000000E+00 0.  1.
          1    1    6    6  503    0 -0.11594630278E+03  0.19482203074E+03  0.22033832099E+03  0.31614576462E+03  0.00000000000E+00 0. -1.
         -1    1    6    6    0  503 -0.24425375366E+03  0.20281032796E+03  0.29845854051E+03  0.43574008962E+03  0.00000000000E+00 0.  1.
<mgrwt>
<rscale>  0 0.16899773E+04</rscale>
<asrwt>0</asrwt>
<pdfrwt beam="1">  1        2 0.33206411E+00 0.16899773E+04</pdfrwt>
<pdfrwt beam="2">  1       -1 0.50892418E-01 0.16899773E+04</pdfrwt>
<totfact> 0.22943831E+01</totfact>
</mgrwt>
</event>
<event>
12    7  0.1857704E-007  0.2053925E+04  0.7818608E-02  0.8581816E-01
         -1   -1    0    0    0  501 -0.00000000000E+00  0.00000000000E+00  0.41634390307E+03  0.41634390307E+03  0.00000000000E+00 0.  1.
          2   -1    0    0  501    0  0.00000000000E+00 -0.00000000000E+00 -0.25331268633E+04  0.25331268633E+04  0.00000000000E+00 0. -1.
         24    2    1    2    0    0 -0.11955266544E+03 -0.22024193201E+03 -0.20515936718E+04  0.20686304788E+04  0.86000670395E+02 0.  0.
        254    2    1    2    0    0  0.11955266544E+03  0.22024193201E+03 -0.65189288419E+02  0.88084028753E+03  0.84192079223E+03 0.  0.
         23    2    4    4    0    0  0.25468259260E+03 -0.48154331398E+02  0.29423655703E+03  0.40306754329E+03  0.93307182796E+02 0.  0.
         23    2    4    4    0    0 -0.13512992716E+03  0.26839626341E+03 -0.35942584545E+03  0.47777274424E+03  0.93718756592E+02 0.  0.
          2    1    3    3  502    0 -0.52269092262E+02 -0.17364210062E+03 -0.15187815959E+04  0.15295689501E+04  0.00000000000E+00 0. -1.
         -1    1    3    3    0  502 -0.67283573177E+02 -0.46599831384E+02 -0.53281207590E+03  0.53906152871E+03  0.00000000000E+00 0.  1.
         13    1    5    5    0    0  0.10661002443E+03  0.26063602042E+02  0.11204710057E+03  0.15684247322E+03  0.00000000000E+00 0. -1.
        -13    1    5    5    0    0  0.14807256817E+03 -0.74217933440E+02  0.18218945646E+03  0.24622507008E+03  0.00000000000E+00 0.  1.
          4    1    6    6  503    0 -0.42423341882E+02  0.15582623255E+02 -0.44582896767E+02  0.63483799257E+02  0.00000000000E+00 0. -1.
         -4    1    6    6    0  503 -0.92706585277E+02  0.25281364015E+03 -0.31484294868E+03  0.41428894498E+03  0.00000000000E+00 0.  1.
<mgrwt>
<rscale>  0 0.20539250E+04</rscale>
<asrwt>0</asrwt>
<pdfrwt beam="1">  1        2 0.38971183E+00 0.20539250E+04</pdfrwt>
<pdfrwt beam="2">  1       -1 0.64052908E-01 0.20539250E+04</pdfrwt>
<totfact> 0.86707501E+00</totfact>
</mgrwt>
</event>
<event>
12    7  0.1857704E-007  0.1435208E+04  0.7818608E-02  0.8928720E-01
         -1   -1    0    0    0  501 -0.00000000000E+00  0.00000000000E+00  0.37164590143E+03  0.37164590143E+03  0.00000000000E+00 0.  1.
          2   -1    0    0  501    0  0.00000000000E+00 -0.00000000000E+00 -0.13856075843E+04  0.13856075843E+04  0.00000000000E+00 0. -1.
         24    2    1    2    0    0 -0.12164441705E+03  0.38993759172E+03 -0.47452052548E+03  0.63128803951E+03  0.80660833656E+02 0.  0.
        254    2    1    2    0    0  0.12164441705E+03 -0.38993759172E+03 -0.53944115739E+03  0.11259654462E+04  0.89997374081E+03 0.  0.
         23    2    4    4    0    0  0.11742133804E+03 -0.67274985708E+03 -0.41201430066E+03  0.80287443274E+03  0.92040371449E+02 0.  0.
         23    2    4    4    0    0  0.42230790153E+01  0.28281226535E+03 -0.12742685673E+03  0.32309101348E+03  0.90275064908E+02 0.  0.
          2    1    3    3  502    0 -0.27360778480E+02  0.16574557949E+03 -0.14620390147E+03  0.22270112286E+03  0.00000000000E+00 0. -1.
         -1    1    3    3    0  502 -0.94283638573E+02  0.22419201223E+03 -0.32831662401E+03  0.40858691664E+03  0.00000000000E+00 0.  1.
         13    1    5    5    0    0  0.11148760976E+03 -0.60280025156E+03 -0.39911385633E+03  0.73149812079E+03  0.00000000000E+00 0. -1.
        -13    1    5    5    0    0  0.59337282797E+01 -0.69949605515E+02 -0.12900444331E+02  0.71376311946E+02  0.00000000000E+00 0.  1.
          2    1    6    6  503    0 -0.17042028619E+02  0.17364901169E+03 -0.11972534742E+03  0.21160947241E+03  0.00000000000E+00 0.  1.
         -2    1    6    6    0  503  0.21265107634E+02  0.10916325367E+03 -0.77015093144E+01  0.11148154107E+03  0.00000000000E+00 0. -1.
<mgrwt>
<rscale>  0 0.14352078E+04</rscale>
<asrwt>0</asrwt>
<pdfrwt beam="1">  1        2 0.21317040E+00 0.14352078E+04</pdfrwt>
<pdfrwt beam="2">  1       -1 0.57176293E-01 0.14352078E+04</pdfrwt>
<totfact> 0.50541997E+01</totfact>
</mgrwt>
</event>
<event>
12    7  0.1857704E-007  0.1585540E+04  0.7818608E-02  0.8829481E-01
         -1   -1    0    0    0  501 -0.00000000000E+00  0.00000000000E+00  0.33346068558E+03  0.33346068558E+03  0.00000000000E+00 0.  1.
          2   -1    0    0  501    0  0.00000000000E+00 -0.00000000000E+00 -0.18847328783E+04  0.18847328783E+04  0.00000000000E+00 0. -1.
         24    2    1    2    0    0 -0.37573912072E+03 -0.35723002660E+03 -0.69359092248E+03  0.86970271754E+03  0.80754383149E+02 0.  0.
        254    2    1    2    0    0  0.37573912072E+03  0.35723002660E+03 -0.85768127023E+03  0.13484908463E+04  0.90222903002E+03 0.  0.
         23    2    4    4    0    0  0.31478432516E+03  0.17737938821E+03 -0.10178882582E+04  0.10842038786E+04  0.94068726891E+02 0.  0.
         23    2    4    4    0    0  0.60954795552E+02  0.17985063839E+03  0.16020698799E+03  0.26428696776E+03  0.90108729283E+02 0.  0.
          4    1    3    3  502    0 -0.37791625383E+03 -0.34735662587E+03 -0.66990444701E+03  0.84394862910E+03  0.00000000000E+00 0. -1.
         -1    1    3    3    0  502  0.21771331136E+01 -0.98734007291E+01 -0.23686475475E+02  0.25754088432E+02  0.00000000000E+00 0.  1.
         13    1    5    5    0    0  0.71644050588E+02  0.27078271873E+02 -0.33988499273E+03  0.34840767942E+03  0.00000000000E+00 0. -1.
        -13    1    5    5    0    0  0.24314027458E+03  0.15030111633E+03 -0.67800326549E+03  0.73579619917E+03  0.00000000000E+00 0.  1.
          1    1    6    6  503    0  0.36950306659E+02  0.52814734533E+02  0.85800599238E+01  0.65025677807E+02  0.00000000000E+00 0. -1.
         -1    1    6    6    0  503  0.24004488893E+02  0.12703590386E+03  0.15162692807E+03  0.19926128995E+03  0.00000000000E+00 0.  1.
<mgrwt>
<rscale>  0 0.15855401E+04</rscale>
<asrwt>0</asrwt>
<pdfrwt beam="1">  1        2 0.28995890E+00 0.15855401E+04</pdfrwt>
<pdfrwt beam="2">  1       -1 0.51301644E-01 0.15855401E+04</pdfrwt>
<totfact> 0.32359467E+01</totfact>
</mgrwt>
</event>
<event>
12    7  0.1857704E-007  0.2317381E+04  0.7818608E-02  0.8471099E-01
          2   -1    0    0  501    0  0.00000000000E+00  0.00000000000E+00  0.20462278814E+04  0.20462278814E+04  0.00000000000E+00 0. -1.
         -1   -1    0    0    0  501 -0.00000000000E+00 -0.00000000000E+00 -0.65611667146E+03  0.65611667146E+03  0.00000000000E+00 0.  1.
         24    2    1    2    0    0 -0.21538312653E+03 -0.72035690177E+03  0.13192155816E+04  0.15205193773E+04  0.79658451405E+02 0.  0.
        254    2    1    2    0    0  0.21538312653E+03  0.72035690177E+03  0.70895628389E+02  0.11818251756E+04  0.90905478299E+03 0.  0.
         23    2    4    4    0    0  0.16249882127E+03  0.14901032421E+03  0.43478175713E+03  0.49617600623E+03  0.92441923320E+02 0.  0.
         23    2    4    4    0    0  0.52884305256E+02  0.57134657756E+03 -0.36388612874E+03  0.68564916938E+03  0.92021776510E+02 0.  0.
          2    1    3    3  502    0 -0.92957036921E+02 -0.36888042192E+03  0.59395349989E+03  0.70533292595E+03  0.00000000000E+00 0. -1.
         -1    1    3    3    0  502 -0.12242608961E+03 -0.35147647984E+03  0.72526208169E+03  0.81518645134E+03  0.00000000000E+00 0.  1.
         13    1    5    5    0    0  0.39851517339E+02  0.90340498605E+02  0.13750172750E+03  0.16928164162E+03  0.00000000000E+00 0. -1.
        -13    1    5    5    0    0  0.12264730394E+03  0.58669825600E+02  0.29728002963E+03  0.32689436461E+03  0.00000000000E+00 0.  1.
          4    1    6    6  503    0  0.13119453842E+02  0.35335329609E+03 -0.27043986364E+03  0.44516108520E+03  0.00000000000E+00 0. -1.
         -4    1    6    6    0  503  0.39764851413E+02  0.21799328147E+03 -0.93446265101E+02  0.24048808419E+03  0.00000000000E+00 0.  1.
<mgrwt>
<rscale>  0 0.23173815E+04</rscale>
<asrwt>0</asrwt>
<pdfrwt beam="1">  1        2 0.31480428E+00 0.23173815E+04</pdfrwt>
<pdfrwt beam="2">  1       -1 0.10094103E+00 0.23173815E+04</pdfrwt>
<totfact> 0.60509662E+00</totfact>
</mgrwt>
</event>
<event>
12    7  0.1857704E-007  0.1049861E+04  0.7818608E-02  0.9255488E-01
          2   -1    0    0  501    0  0.00000000000E+00  0.00000000000E+00  0.50059236200E+03  0.50059236200E+03  0.00000000000E+00 0. -1.
         -1   -1    0    0    0  501 -0.00000000000E+00 -0.00000000000E+00 -0.55045152660E+03  0.55045152660E+03  0.00000000000E+00 0.  1.
         24    2    1    2    0    0  0.88516807400E+02 -0.39843549223E+02 -0.76745082437E+02  0.14689079235E+03  0.79147732701E+02 0.  0.
        254    2    1    2    0    0 -0.88516807400E+02  0.39843549223E+02  0.26885917840E+02  0.90415309625E+03  0.89852503319E+03 0.  0.
         23    2    4    4    0    0 -0.24857822819E+02  0.12536876863E+02  0.45327321087E+03  0.46371746218E+03  0.93820021306E+02 0.  0.
         23    2    4    4    0    0 -0.63658984581E+02  0.27306672360E+02 -0.42638729303E+03  0.44043563407E+03  0.85902872074E+02 0.  0.
          2    1    3    3  502    0 -0.99919430073E+00 -0.17145880272E+02 -0.46730692832E+02  0.49786918484E+02  0.00000000000E+00 0. -1.
         -1    1    3    3    0  502  0.89516001700E+02 -0.22697668951E+02 -0.30014389605E+02  0.97103873865E+02  0.00000000000E+00 0.  1.
         13    1    5    5    0    0  0.59764441712E+00  0.48004299403E+02  0.31720124389E+03  0.32081365162E+03  0.00000000000E+00 0. -1.
        -13    1    5    5    0    0 -0.25455467236E+02 -0.35467422540E+02  0.13607196698E+03  0.14290381056E+03  0.00000000000E+00 0.  1.
          1    1    6    6  503    0 -0.72399342015E+02  0.19031462359E+02 -0.42036188035E+03  0.42697537603E+03  0.00000000000E+00 0. -1.
         -1    1    6    6    0  503  0.87403574343E+01  0.82752100007E+01 -0.60254126795E+01  0.13460258043E+02  0.00000000000E+00 0.  1.
<mgrwt>
<rscale>  0 0.10498606E+04</rscale>
<asrwt>0</asrwt>
<pdfrwt beam="1">  1        2 0.77014209E-01 0.10498606E+04</pdfrwt>
<pdfrwt beam="2">  1       -1 0.84684851E-01 0.10498606E+04</pdfrwt>
<totfact> 0.96703709E+01</totfact>
</mgrwt>
</event>
<event>
12    7  0.1857704E-007  0.3271283E+04  0.7818608E-02  0.8170241E-01
          2   -1    0    0  501    0  0.00000000000E+00  0.00000000000E+00  0.18561409395E+04  0.18561409395E+04  0.00000000000E+00 0. -1.
         -1   -1    0    0    0  501 -0.00000000000E+00 -0.00000000000E+00 -0.14413361662E+04  0.14413361662E+04  0.00000000000E+00 0.  1.
         24    2    1    2    0    0 -0.44073061449E+03  0.71105001440E+03  0.14646630925E+04  0.16898224789E+04  0.10210993072E+03 0.  0.
        254    2    1    2    0    0  0.44073061449E+03 -0.71105001440E+03 -0.10498583193E+04  0.16076546268E+04  0.88459895493E+03 0.  0.
         23    2    4    4    0    0  0.16023763079E+03 -0.84101183640E+03 -0.92136412760E+03  0.12607618569E+04  0.87359010919E+02 0.  0.
         23    2    4    4    0    0  0.28049298370E+03  0.12996182199E+03 -0.12849419169E+03  0.34689276999E+03  0.90870498443E+02 0.  0.
          2    1    3    3  502    0 -0.42134563240E+03  0.68568771560E+03  0.13588098591E+04  0.15792605923E+04  0.00000000000E+00 0. -1.
         -1    1    3    3    0  502 -0.19384982095E+02  0.25362298803E+02  0.10585323340E+03  0.11056188653E+03  0.00000000000E+00 0.  1.
         13    1    5    5    0    0  0.74030100608E+02 -0.58373511872E+03 -0.60436650242E+03  0.84349630341E+03  0.00000000000E+00 0.  1.
        -13    1    5    5    0    0  0.86207530183E+02 -0.25727671767E+03 -0.31699762518E+03  0.41726555344E+03  0.00000000000E+00 0. -1.
          3    1    6    6  503    0  0.20279217972E+02  0.37187975690E+02 -0.34411764563E+00  0.42359303989E+02  0.00000000000E+00 0. -1.
         -3    1    6    6    0  503  0.26021376573E+03  0.92773846302E+02 -0.12815007405E+03  0.30453346600E+03  0.00000000000E+00 0.  1.
<mgrwt>
<rscale>  0 0.32712830E+04</rscale>
<asrwt>0</asrwt>
<pdfrwt beam="1">  1        2 0.28556014E+00 0.32712830E+04</pdfrwt>
<pdfrwt beam="2">  1       -1 0.22174403E+00 0.32712830E+04</pdfrwt>
<totfact> 0.81954696E-01</totfact>
</mgrwt>
</event>
<event>
12    7  0.1857704E-007  0.1506192E+04  0.7818608E-02  0.8880346E-01
          2   -1    0    0  501    0  0.00000000000E+00  0.00000000000E+00  0.13323125793E+04  0.13323125793E+04  0.00000000000E+00 0. -1.
         -1   -1    0    0    0  501 -0.00000000000E+00 -0.00000000000E+00 -0.42569096063E+03  0.42569096063E+03  0.00000000000E+00 0.  1.
         24    2    1    2    0    0  0.44449881358E+03  0.13444195069E+03  0.40697076823E+03  0.62253798565E+03  0.79211766897E+02 0.  0.
        254    2    1    2    0    0 -0.44449881358E+03 -0.13444195069E+03  0.49965085048E+03  0.11354655543E+04  0.90773190935E+03 0.  0.
         23    2    4    4    0    0 -0.11349873952E+03  0.10556750274E+03  0.66365720769E+03  0.68748950914E+03  0.90412799735E+02 0.  0.
         23    2    4    4    0    0 -0.33100007406E+03 -0.24000945342E+03 -0.16400635720E+03  0.44797604517E+03  0.81356407762E+02 0.  0.
          2    1    3    3  502    0  0.12101396852E+03  0.47548805863E+02  0.71084655937E+02  0.14818332506E+03  0.00000000000E+00 0. -1.
         -1    1    3    3    0  502  0.32348484506E+03  0.86893144823E+02  0.33588611229E+03  0.47435466060E+03  0.00000000000E+00 0.  1.
         13    1    5    5    0    0 -0.12878005606E+03  0.10030422827E+03  0.59905743347E+03  0.62089858241E+03  0.00000000000E+00 0. -1.
        -13    1    5    5    0    0  0.15281316542E+02  0.52632744687E+01  0.64599774214E+02  0.66590926724E+02  0.00000000000E+00 0.  1.
          2    1    6    6  503    0 -0.19702277062E+03 -0.18368670969E+03 -0.84470715725E+02  0.28230140148E+03  0.00000000000E+00 0. -1.
         -2    1    6    6    0  503 -0.13397730344E+03 -0.56322743733E+02 -0.79535641479E+02  0.16567464369E+03  0.00000000000E+00 0.  1.
<mgrwt>
<rscale>  0 0.15061918E+04</rscale>
<asrwt>0</asrwt>
<pdfrwt beam="1">  1        2 0.20497116E+00 0.15061918E+04</pdfrwt>
<pdfrwt beam="2">  1       -1 0.65490918E-01 0.15061918E+04</pdfrwt>
<totfact> 0.41188353E+01</totfact>
</mgrwt>
</event>
<event>
12    7  0.1857704E-007  0.2492216E+04  0.7818608E-02  0.8405764E-01
         -1   -1    0    0    0  501 -0.00000000000E+00  0.00000000000E+00  0.13492357818E+04  0.13492357818E+04  0.00000000000E+00 0.  1.
          2   -1    0    0  501    0  0.00000000000E+00 -0.00000000000E+00 -0.11508627454E+04  0.11508627454E+04  0.00000000000E+00 0. -1.
         24    2    1    2    0    0 -0.28461810734E+03 -0.77757868582E+03  0.78208005266E+03  0.11420779796E+04  0.84004898988E+02 0.  0.
        254    2    1    2    0    0  0.28461810734E+03  0.77757868582E+03 -0.58370701620E+03  0.13580205476E+04  0.90436156884E+03 0.  0.
         23    2    4    4    0    0 -0.86798471577E+02 -0.87704251963E+02  0.10465121981E+03  0.18819672142E+03  0.96125530770E+02 0.  0.
         23    2    4    4    0    0  0.37141657892E+03  0.86528293778E+03 -0.68835823601E+03  0.11698238262E+04  0.89363782568E+02 0.  0.
          2    1    3    3  502    0 -0.35915207154E+01 -0.79432202608E+02  0.81920324453E+02  0.11416353792E+03  0.00000000000E+00 0. -1.
         -1    1    3    3    0  502 -0.28102658663E+03 -0.69814648321E+03  0.70015972821E+03  0.10279144417E+04  0.00000000000E+00 0.  1.
         13    1    5    5    0    0 -0.34236774060E+02 -0.90732894544E+02  0.92810772159E+02  0.13423283607E+03  0.00000000000E+00 0. -1.
        -13    1    5    5    0    0 -0.52561697517E+02  0.30286425808E+01  0.11840447648E+02  0.53963885352E+02  0.00000000000E+00 0.  1.
          1    1    6    6  503    0  0.67810806145E+02  0.25373819409E+03 -0.20763450025E+03  0.33480361746E+03  0.00000000000E+00 0. -1.
         -1    1    6    6    0  503  0.30360577278E+03  0.61154474369E+03 -0.48072373575E+03  0.83502020869E+03  0.00000000000E+00 0.  1.
<mgrwt>
<rscale>  0 0.24922160E+04</rscale>
<asrwt>0</asrwt>
<pdfrwt beam="1">  1        2 0.17705581E+00 0.24922160E+04</pdfrwt>
<pdfrwt beam="2">  1       -1 0.20757473E+00 0.24922160E+04</pdfrwt>
<totfact> 0.27544295E+00</totfact>
</mgrwt>
</event>
<event>
12    7  0.1857704E-007  0.1884622E+04  0.7818608E-02  0.8662549E-01
          2   -1    0    0  501    0  0.00000000000E+00  0.00000000000E+00  0.18858868522E+04  0.18858868522E+04  0.00000000000E+00 0. -1.
         -1   -1    0    0    0  501 -0.00000000000E+00 -0.00000000000E+00 -0.47083943307E+03  0.47083943307E+03  0.00000000000E+00 0.  1.
         24    2    1    2    0    0 -0.33615212506E+03 -0.18434435829E+03  0.12207919471E+04  0.12820301611E+04  0.79292257933E+02 0.  0.
        254    2    1    2    0    0  0.33615212506E+03  0.18434435829E+03  0.19425547203E+03  0.10746961242E+04  0.98501547061E+03 0.  0.
         23    2    4    4    0    0  0.14877739660E+03  0.42202178764E+02  0.58377295849E+03  0.61073216604E+03  0.91033916394E+02 0.  0.
         23    2    4    4    0    0  0.18737472846E+03  0.14214217953E+03 -0.38951748646E+03  0.46396395816E+03  0.90691753464E+02 0.  0.
          2    1    3    3  502    0 -0.33433813925E+03 -0.17016136131E+03  0.11446782034E+04  0.12045850196E+04  0.00000000000E+00 0. -1.
         -1    1    3    3    0  502 -0.18139858042E+01 -0.14182996981E+02  0.76113743750E+02  0.77445141458E+02  0.00000000000E+00 0.  1.
         13    1    5    5    0    0 -0.19869851191E+00 -0.14259985723E+02  0.18050254981E+02  0.23004312178E+02  0.00000000000E+00 0. -1.
        -13    1    5    5    0    0  0.14897609511E+03  0.56462164487E+02  0.56572270351E+03  0.58772785386E+03  0.00000000000E+00 0.  1.
          3    1    6    6  503    0  0.63295851813E+02  0.10173267878E+03 -0.21390326304E+03  0.24517444551E+03  0.00000000000E+00 0. -1.
         -3    1    6    6    0  503  0.12407887665E+03  0.40409500747E+02 -0.17561422342E+03  0.21878951266E+03  0.00000000000E+00 0.  1.
<mgrwt>
<rscale>  0 0.18846219E+04</rscale>
<asrwt>0</asrwt>
<pdfrwt beam="1">  1        2 0.29013643E+00 0.18846219E+04</pdfrwt>
<pdfrwt beam="2">  1       -1 0.72436837E-01 0.18846219E+04</pdfrwt>
<totfact> 0.15871191E+01</totfact>
</mgrwt>
</event>
<event>
12    7  0.1857704E-007  0.2506128E+04  0.7818608E-02  0.8400806E-01
          2   -1    0    0  501    0  0.00000000000E+00  0.00000000000E+00  0.19754088953E+04  0.19754088953E+04  0.00000000000E+00 0. -1.
         -1   -1    0    0    0  501 -0.00000000000E+00 -0.00000000000E+00 -0.79485794741E+03  0.79485794741E+03  0.00000000000E+00 0.  1.
         24    2    1    2    0    0  0.89708103485E+03  0.60458338579E+03  0.37314455933E+03  0.11472097731E+04  0.81104549613E+02 0.  0.
        254    2    1    2    0    0 -0.89708103485E+03 -0.60458338579E+03  0.80740638854E+03  0.16230570696E+04  0.90118462111E+03 0.  0.
         23    2    4    4    0    0 -0.66058739443E+03 -0.80301732518E+03  0.77355641199E+03  0.12991382803E+04  0.90322856897E+02 0.  0.
         23    2    4    4    0    0 -0.23649364042E+03  0.19843393938E+03  0.33849976551E+02  0.32391878930E+03  0.92045048177E+02 0.  0.
          2    1    3    3  502    0  0.16107287895E+03  0.86503051233E+02  0.37757705356E+02  0.18668929943E+03  0.00000000000E+00 0. -1.
         -1    1    3    3    0  502  0.73600815590E+03  0.51808033456E+03  0.33538685397E+03  0.96052047371E+03  0.00000000000E+00 0.  1.
         13    1    5    5    0    0 -0.10163881808E+03 -0.13545370749E+03  0.87264220736E+02  0.19050774376E+03  0.00000000000E+00 0. -1.
        -13    1    5    5    0    0 -0.55894857635E+03 -0.66756361769E+03  0.68629219125E+03  0.11086305365E+04  0.00000000000E+00 0.  1.
          3    1    6    6  503    0 -0.57857959205E+02  0.10401341375E+03 -0.15798878588E+00  0.11902251318E+03  0.00000000000E+00 0. -1.
         -3    1    6    6    0  503 -0.17863568121E+03  0.94420525636E+02  0.34007965337E+02  0.20489627612E+03  0.00000000000E+00 0.  1.
<mgrwt>
<rscale>  0 0.25061281E+04</rscale>
<asrwt>0</asrwt>
<pdfrwt beam="1">  1        2 0.30390906E+00 0.25061281E+04</pdfrwt>
<pdfrwt beam="2">  1       -1 0.12228584E+00 0.25061281E+04</pdfrwt>
<totfact> 0.41331585E+00</totfact>
</mgrwt>
</event>
<event>
12    7  0.1857704E-007  0.3262453E+04  0.7818608E-02  0.8172516E-01
         -1   -1    0    0    0  501 -0.00000000000E+00  0.00000000000E+00  0.14752313677E+04  0.14752313677E+04  0.00000000000E+00 0.  1.
          2   -1    0    0  501    0  0.00000000000E+00 -0.00000000000E+00 -0.18037165652E+04  0.18037165652E+04  0.00000000000E+00 0. -1.
         24    2    1    2    0    0 -0.47571302826E+03  0.11957355893E+04 -0.94217092683E+03  0.15970547571E+04  0.82530946213E+02 0.  0.
        254    2    1    2    0    0  0.47571302826E+03 -0.11957355893E+04  0.61368572935E+03  0.16818931757E+04  0.89222642603E+03 0.  0.
         23    2    4    4    0    0  0.42872572638E+03 -0.30707378885E+03  0.57632810592E+03  0.78641955685E+03  0.90562538933E+02 0.  0.
         23    2    4    4    0    0  0.46987301879E+02 -0.88866180049E+03  0.37357623428E+02  0.89547361889E+03  0.92465171285E+02 0.  0.
          4    1    3    3  502    0 -0.44558286153E+03  0.10654174267E+04 -0.82524591239E+03  0.14193974762E+04  0.00000000000E+00 0. -1.
         -3    1    3    3    0  502 -0.30130166731E+02  0.13031816266E+03 -0.11692501444E+03  0.17765728093E+03  0.00000000000E+00 0.  1.
         13    1    5    5    0    0  0.26360920277E+03 -0.14391248008E+03  0.28627245933E+03  0.41491268319E+03  0.00000000000E+00 0. -1.
        -13    1    5    5    0    0  0.16511652361E+03 -0.16316130878E+03  0.29005564660E+03  0.37150687366E+03  0.00000000000E+00 0.  1.
          1    1    6    6  503    0  0.49761470611E+02 -0.81228349420E+03  0.59281555018E+02  0.81596261046E+03  0.00000000000E+00 0. -1.
         -1    1    6    6    0  503 -0.27741687321E+01 -0.76378306290E+02 -0.21923931589E+02  0.79511008422E+02  0.00000000000E+00 0.  1.
<mgrwt>
<rscale>  0 0.32624526E+04</rscale>
<asrwt>0</asrwt>
<pdfrwt beam="1">  1        2 0.27749486E+00 0.32624526E+04</pdfrwt>
<pdfrwt beam="2">  1       -1 0.22695867E+00 0.32624526E+04</pdfrwt>
<totfact> 0.80957340E-01</totfact>
</mgrwt>
</event>
<event>
12    7  0.1857704E-007  0.1713139E+04  0.7818608E-02  0.8753906E-01
         -1   -1    0    0    0  501 -0.00000000000E+00  0.00000000000E+00  0.15729896047E+04  0.15729896047E+04  0.00000000000E+00 0.  1.
          2   -1    0    0  501    0  0.00000000000E+00 -0.00000000000E+00 -0.46644370299E+03  0.46644370299E+03  0.00000000000E+00 0. -1.
         24    2    1    2    0    0  0.54580371704E+02 -0.16225865673E+03 -0.30381047981E+03  0.35759625298E+03  0.79166810240E+02 0.  0.
        254    2    1    2    0    0 -0.54580371704E+02  0.16225865673E+03  0.14103563815E+04  0.16818370547E+04  0.90009103264E+03 0.  0.
         23    2    4    4    0    0 -0.30544887514E+03  0.26684549893E+03  0.24881300659E+03  0.48473730936E+03  0.92503033496E+02 0.  0.
         23    2    4    4    0    0  0.25086850344E+03 -0.10458684220E+03  0.11615433749E+04  0.11970997453E+04  0.99956865200E+02 0.  0.
          4    1    3    3  502    0  0.93713596003E+01 -0.12906280465E+03 -0.18012927466E+03  0.22179176160E+03  0.00000000000E+00 0. -1.
         -1    1    3    3    0  502  0.45209012103E+02 -0.33195852076E+02 -0.12368120515E+03  0.13580449138E+03  0.00000000000E+00 0.  1.
         13    1    5    5    0    0 -0.33705081275E+02  0.44786430393E+02  0.73544089213E+02  0.92469399854E+02  0.00000000000E+00 0. -1.
        -13    1    5    5    0    0 -0.27174379387E+03  0.22205906854E+03  0.17526891738E+03  0.39226790950E+03  0.00000000000E+00 0.  1.
          3    1    6    6  503    0  0.10856428030E+03 -0.10603412035E+02  0.30957297574E+03  0.32822867427E+03  0.00000000000E+00 0. -1.
         -3    1    6    6    0  503  0.14230422313E+03 -0.93983430170E+02  0.85197039918E+03  0.86887107108E+03  0.00000000000E+00 0.  1.
<mgrwt>
<rscale>  0 0.17131388E+04</rscale>
<asrwt>0</asrwt>
<pdfrwt beam="1">  1        2 0.71760570E-01 0.17131388E+04</pdfrwt>
<pdfrwt beam="2">  1       -1 0.24199840E+00 0.17131388E+04</pdfrwt>
<totfact> 0.57049950E+00</totfact>
</mgrwt>
</event>
<event>
12    7  0.1857704E-007  0.1981235E+04  0.7818608E-02  0.8615444E-01
          2   -1    0    0  501    0  0.00000000000E+00  0.00000000000E+00  0.21042189007E+04  0.21042189007E+04  0.00000000000E+00 0. -1.
         -1   -1    0    0    0  501 -0.00000000000E+00 -0.00000000000E+00 -0.46635996133E+03  0.46635996133E+03  0.00000000000E+00 0.  1.
         24    2    1    2    0    0  0.78551952087E+03 -0.42669088977E+02  0.61846728132E+03  0.10040184556E+04  0.81790661282E+02 0.  0.
        254    2    1    2    0    0 -0.78551952087E+03  0.42669088977E+02  0.10193916580E+04  0.15665604064E+04  0.89223908550E+03 0.  0.
         23    2    4    4    0    0  0.76857025346E+02  0.10297893879E+03  0.56302558633E+03  0.58469079996E+03  0.91399433920E+02 0.  0.
         23    2    4    4    0    0 -0.86237654621E+03 -0.60309849816E+02  0.45636607167E+03  0.98186960644E+03  0.92018189679E+02 0.  0.
          2    1    3    3  502    0  0.43388040824E+03 -0.21971916058E+02  0.28960259543E+03  0.52211553992E+03  0.00000000000E+00 0. -1.
         -1    1    3    3    0  502  0.35163911263E+03 -0.20697172918E+02  0.32886468590E+03  0.48190291567E+03  0.00000000000E+00 0.  1.
         13    1    5    5    0    0  0.52546144358E+02  0.96837274733E+02  0.28528057395E+03  0.30581622086E+03  0.00000000000E+00 0.  1.
        -13    1    5    5    0    0  0.24310880987E+02  0.61416640603E+01  0.27774501237E+03  0.27887457910E+03  0.00000000000E+00 0. -1.
          2    1    6    6  503    0 -0.62106916572E+03 -0.78358273125E+02  0.35372989746E+03  0.71902139602E+03  0.00000000000E+00 0.  1.
         -2    1    6    6    0  503 -0.24130738049E+03  0.18048423309E+02  0.10263617421E+03  0.26284821042E+03  0.00000000000E+00 0. -1.
<mgrwt>
<rscale>  0 0.19812354E+04</rscale>
<asrwt>0</asrwt>
<pdfrwt beam="1">  1        2 0.32372598E+00 0.19812354E+04</pdfrwt>
<pdfrwt beam="2">  1       -1 0.71747687E-01 0.19812354E+04</pdfrwt>
<totfact> 0.12139324E+01</totfact>
</mgrwt>
</event>
<event>
12    7  0.1857704E-007  0.1527164E+04  0.7818608E-02  0.8866588E-01
         -1   -1    0    0    0  501 -0.00000000000E+00  0.00000000000E+00  0.11501060866E+04  0.11501060866E+04  0.00000000000E+00 0.  1.
          2   -1    0    0  501    0  0.00000000000E+00 -0.00000000000E+00 -0.50695940440E+03  0.50695940440E+03  0.00000000000E+00 0. -1.
         24    2    1    2    0    0  0.23091976815E+03 -0.20209799997E+03  0.65705139847E+03  0.72959429000E+03  0.80148280435E+02 0.  0.
        254    2    1    2    0    0 -0.23091976815E+03  0.20209799997E+03 -0.13904716237E+02  0.92747120103E+03  0.87512396076E+03 0.  0.
         23    2    4    4    0    0 -0.33954209068E+03  0.43824252352E+03 -0.20084600604E+03  0.59531175145E+03  0.81924492781E+02 0.  0.
         23    2    4    4    0    0  0.10862232253E+03 -0.23614452355E+03  0.18694128981E+03  0.33215944957E+03  0.88429684798E+02 0.  0.
          4    1    3    3  502    0  0.27041665798E+01 -0.32992037290E+02  0.70974313789E+02  0.78314368153E+02  0.00000000000E+00 0. -1.
         -3    1    3    3    0  502  0.22821560157E+03 -0.16910596268E+03  0.58607708468E+03  0.65127992184E+03  0.00000000000E+00 0.  1.
         13    1    5    5    0    0 -0.34327837613E+03  0.42566686863E+03 -0.19234847164E+03  0.57968117195E+03  0.00000000000E+00 0.  1.
        -13    1    5    5    0    0  0.37362854532E+01  0.12575654885E+02 -0.84975344038E+01  0.15630579507E+02  0.00000000000E+00 0. -1.
          1    1    6    6  503    0  0.43345162842E+02 -0.76297001697E+02  0.16009117092E+02  0.89198247964E+02  0.00000000000E+00 0. -1.
         -1    1    6    6    0  503  0.65277159683E+02 -0.15984752185E+03  0.17093217272E+03  0.24296120161E+03  0.00000000000E+00 0.  1.
<mgrwt>
<rscale>  0 0.15271635E+04</rscale>
<asrwt>0</asrwt>
<pdfrwt beam="1">  1        2 0.77993755E-01 0.15271635E+04</pdfrwt>
<pdfrwt beam="2">  1       -1 0.17693940E+00 0.15271635E+04</pdfrwt>
<totfact> 0.14623811E+01</totfact>
</mgrwt>
</event>
<event>
12    7  0.1857704E-007  0.1800298E+04  0.7818608E-02  0.8706141E-01
          2   -1    0    0  501    0  0.00000000000E+00  0.00000000000E+00  0.12018747556E+04  0.12018747556E+04  0.00000000000E+00 0. -1.
         -1   -1    0    0    0  501 -0.00000000000E+00 -0.00000000000E+00 -0.67416996790E+03  0.67416996790E+03  0.00000000000E+00 0.  1.
         24    2    1    2    0    0 -0.16245094538E+03  0.27405914451E+03 -0.41958237236E+03  0.53269500419E+03  0.78840826666E+02 0.  0.
        254    2    1    2    0    0  0.16245094538E+03 -0.27405914451E+03  0.94728716006E+03  0.13433497193E+04  0.89762842003E+03 0.  0.
         23    2    4    4    0    0  0.15252935820E+02 -0.54162575740E+03  0.30737685907E+03  0.62818030755E+03  0.80863169417E+02 0.  0.
         23    2    4    4    0    0  0.14719800956E+03  0.26756661289E+03  0.63991030099E+03  0.71516941178E+03  0.93396723021E+02 0.  0.
          4    1    3    3  502    0 -0.93811542632E+02  0.12499320745E+03 -0.14717170188E+03  0.21467048533E+03  0.00000000000E+00 0. -1.
         -3    1    3    3    0  502 -0.68639402746E+02  0.14906593706E+03 -0.27241067048E+03  0.31802451886E+03  0.00000000000E+00 0.  1.
         13    1    5    5    0    0  0.13383438598E+02 -0.54418780855E+03  0.30375906999E+03  0.62336912019E+03  0.00000000000E+00 0. -1.
        -13    1    5    5    0    0  0.18694972220E+01  0.25620511519E+01  0.36177890765E+01  0.48111873556E+01  0.00000000000E+00 0.  1.
          4    1    6    6  503    0  0.12304182598E+03  0.21188941650E+03  0.41235265584E+03  0.47965730323E+03  0.00000000000E+00 0. -1.
         -4    1    6    6    0  503  0.24156183577E+02  0.55677196391E+02  0.22755764516E+03  0.23551210855E+03  0.00000000000E+00 0.  1.
<mgrwt>
<rscale>  0 0.18002976E+04</rscale>
<asrwt>0</asrwt>
<pdfrwt beam="1">  1        2 0.18490381E+00 0.18002976E+04</pdfrwt>
<pdfrwt beam="2">  1       -1 0.10371846E+00 0.18002976E+04</pdfrwt>
<totfact> 0.17817542E+01</totfact>
</mgrwt>
</event>
<event>
12    7  0.1857704E-007  0.2271870E+04  0.7818608E-02  0.8489096E-01
          2   -1    0    0  501    0  0.00000000000E+00  0.00000000000E+00  0.16587607180E+04  0.16587607180E+04  0.00000000000E+00 0. -1.
         -1   -1    0    0    0  501 -0.00000000000E+00 -0.00000000000E+00 -0.77789925805E+03  0.77789925805E+03  0.00000000000E+00 0.  1.
         24    2    1    2    0    0  0.14624759198E+03 -0.95386670206E+02 -0.63558526863E+03  0.66386492554E+03  0.79126674692E+02 0.  0.
        254    2    1    2    0    0 -0.14624759198E+03  0.95386670206E+02  0.15164467286E+04  0.17727950505E+04  0.90150132307E+03 0.  0.
         23    2    4    4    0    0 -0.11867823844E+03 -0.19195622082E+03  0.14403387709E+04  0.14607443577E+04  0.90920781470E+02 0.  0.
         23    2    4    4    0    0 -0.27569353547E+02  0.28734289102E+03  0.76107957665E+02  0.31205069284E+03  0.90869177415E+02 0.  0.
          2    1    3    3  502    0  0.16800979621E+01 -0.31646251734E+02 -0.74528158129E+02  0.80986136666E+02  0.00000000000E+00 0. -1.
         -1    1    3    3    0  502  0.14456749402E+03 -0.63740418471E+02 -0.56105711050E+03  0.58287878887E+03  0.00000000000E+00 0.  1.
         13    1    5    5    0    0 -0.32064696905E+02  0.63935776100E+00  0.17912142495E+03  0.18196988334E+03  0.00000000000E+00 0.  1.
        -13    1    5    5    0    0 -0.86613541530E+02 -0.19259557858E+03  0.12612173460E+04  0.12787744743E+04  0.00000000000E+00 0. -1.
          3    1    6    6  503    0  0.21638310530E+02  0.20452944722E+03  0.61130064729E+02  0.21456326824E+03  0.00000000000E+00 0. -1.
         -3    1    6    6    0  503 -0.49207664077E+02  0.82813443802E+02  0.14977892936E+02  0.97487424599E+02  0.00000000000E+00 0.  1.
<mgrwt>
<rscale>  0 0.22718704E+04</rscale>
<asrwt>0</asrwt>
<pdfrwt beam="1">  1        2 0.25519396E+00 0.22718704E+04</pdfrwt>
<pdfrwt beam="2">  1       -1 0.11967681E+00 0.22718704E+04</pdfrwt>
<totfact> 0.66680311E+00</totfact>
</mgrwt>
</event>
<event>
12    7  0.1857704E-007  0.1508555E+04  0.7818608E-02  0.8878783E-01
         -1   -1    0    0    0  501 -0.00000000000E+00  0.00000000000E+00  0.49377919427E+03  0.49377919427E+03  0.00000000000E+00 0.  1.
          2   -1    0    0  501    0  0.00000000000E+00 -0.00000000000E+00 -0.11522051107E+04  0.11522051107E+04  0.00000000000E+00 0. -1.
         24    2    1    2    0    0 -0.20428926880E+03 -0.43271251527E+03 -0.24812797386E+03  0.54391394546E+03  0.72805648386E+02 0.  0.
        254    2    1    2    0    0  0.20428926880E+03  0.43271251527E+03 -0.41029794255E+03  0.11020703595E+04  0.90401352278E+03 0.  0.
         23    2    4    4    0    0 -0.30384589515E+02  0.23994115274E+03  0.25702056391E+03  0.36258809350E+03  0.83159937552E+02 0.  0.
         23    2    4    4    0    0  0.23467385831E+03  0.19277136254E+03 -0.66731850646E+03  0.73948226598E+03  0.96371233516E+02 0.  0.
          4    1    3    3  502    0 -0.11017265171E+03 -0.21893180403E+03 -0.16728713085E+03  0.29673916518E+03  0.00000000000E+00 0. -1.
         -3    1    3    3    0  502 -0.94116617086E+02 -0.21378071124E+03 -0.80840843006E+02  0.24717478028E+03  0.00000000000E+00 0.  1.
         13    1    5    5    0    0 -0.17359276903E+02  0.23029740325E+01  0.13780711608E+02  0.22283540931E+02  0.00000000000E+00 0.  1.
        -13    1    5    5    0    0 -0.13025312612E+02  0.23763817871E+03  0.24323985230E+03  0.34030455256E+03  0.00000000000E+00 0. -1.
          4    1    6    6  503    0  0.20596643245E+03  0.16005311382E+03 -0.63101698763E+03  0.68280422466E+03  0.00000000000E+00 0. -1.
         -4    1    6    6    0  503  0.28707425864E+02  0.32718248713E+02 -0.36301518834E+02  0.56678041324E+02  0.00000000000E+00 0.  1.
<mgrwt>
<rscale>  0 0.15085555E+04</rscale>
<asrwt>0</asrwt>
<pdfrwt beam="1">  1        2 0.17726232E+00 0.15085555E+04</pdfrwt>
<pdfrwt beam="2">  1       -1 0.75966030E-01 0.15085555E+04</pdfrwt>
<totfact> 0.38795907E+01</totfact>
</mgrwt>
</event>
<event>
12    7  0.1857704E-007  0.1697080E+04  0.7818608E-02  0.8763032E-01
          2   -1    0    0  501    0  0.00000000000E+00  0.00000000000E+00  0.11678026263E+04  0.11678026263E+04  0.00000000000E+00 0. -1.
         -1   -1    0    0    0  501 -0.00000000000E+00 -0.00000000000E+00 -0.61655968869E+03  0.61655968869E+03  0.00000000000E+00 0.  1.
         24    2    1    2    0    0  0.25834125694E+03  0.53434513366E+03  0.69533952978E+02  0.60452891433E+03  0.91407388833E+02 0.  0.
        254    2    1    2    0    0 -0.25834125694E+03 -0.53434513366E+03  0.48170898464E+03  0.11798334007E+04  0.89872041290E+03 0.  0.
         23    2    4    4    0    0  0.97303037716E+02 -0.62772712902E+03  0.48126309433E+03  0.80217881861E+03  0.91473829095E+02 0.  0.
         23    2    4    4    0    0 -0.35564429466E+03  0.93381995362E+02  0.44589030682E+00  0.37765458206E+03  0.86137814878E+02 0.  0.
          2    1    3    3  502    0  0.13154701547E+02  0.28966095834E+01  0.88347636255E+01  0.16108679902E+02  0.00000000000E+00 0. -1.
         -1    1    3    3    0  502  0.24518655540E+03  0.53144852408E+03  0.60699189353E+02  0.58842023442E+03  0.00000000000E+00 0.  1.
         13    1    5    5    0    0  0.23076238052E+02 -0.27518921642E+03  0.15810358589E+03  0.31821119004E+03  0.00000000000E+00 0.  1.
        -13    1    5    5    0    0  0.74226799664E+02 -0.35253791260E+03  0.32315950844E+03  0.48396762857E+03  0.00000000000E+00 0. -1.
          3    1    6    6  503    0 -0.30083931400E+03  0.10692128308E+03  0.14057315655E+02  0.31958420134E+03  0.00000000000E+00 0. -1.
         -3    1    6    6    0  503 -0.54804980659E+02 -0.13539287717E+02 -0.13611425348E+02  0.58070380719E+02  0.00000000000E+00 0.  1.
<mgrwt>
<rscale>  0 0.16970799E+04</rscale>
<asrwt>0</asrwt>
<pdfrwt beam="1">  1        2 0.17966194E+00 0.16970799E+04</pdfrwt>
<pdfrwt beam="2">  1       -1 0.94855337E-01 0.16970799E+04</pdfrwt>
<totfact> 0.23098149E+01</totfact>
</mgrwt>
</event>
<event>
12    7  0.1857704E-007  0.2640864E+04  0.7818608E-02  0.8354452E-01
          2   -1    0    0  501    0  0.00000000000E+00  0.00000000000E+00  0.23531752133E+04  0.23531752133E+04  0.00000000000E+00 0. -1.
         -1   -1    0    0    0  501 -0.00000000000E+00 -0.00000000000E+00 -0.74093097983E+03  0.74093097983E+03  0.00000000000E+00 0.  1.
         24    2    1    2    0    0  0.14575517637E+03 -0.31614890907E+03  0.20102957825E+04  0.20418113166E+04  0.80682188346E+02 0.  0.
        254    2    1    2    0    0 -0.14575517637E+03  0.31614890907E+03 -0.39805154898E+03  0.10522948765E+04  0.90977182160E+03 0.  0.
         23    2    4    4    0    0  0.10198282356E+02 -0.10632994174E+02 -0.61478687314E+03  0.62151448392E+03  0.90001604528E+02 0.  0.
         23    2    4    4    0    0 -0.15595345873E+03  0.32678190324E+03  0.21673532415E+03  0.43078039260E+03  0.86542777521E+02 0.  0.
          2    1    3    3  502    0  0.12645784945E+03 -0.31130453558E+03  0.18477922927E+04  0.18780943689E+04  0.00000000000E+00 0. -1.
         -1    1    3    3    0  502  0.19297326919E+02 -0.48443734895E+01  0.16250348982E+03  0.16371694776E+03  0.00000000000E+00 0.  1.
         13    1    5    5    0    0  0.12086991670E+02  0.38443921233E+02 -0.21733773943E+03  0.22104235664E+03  0.00000000000E+00 0. -1.
        -13    1    5    5    0    0 -0.18887093149E+01 -0.49076915407E+02 -0.39744913371E+03  0.40047212728E+03  0.00000000000E+00 0.  1.
          1    1    6    6  503    0 -0.76268461507E+02  0.88963605519E+02  0.10035871205E+03  0.15428309179E+03  0.00000000000E+00 0. -1.
         -1    1    6    6    0  503 -0.79684997218E+02  0.23781829772E+03  0.11637661211E+03  0.27649730082E+03  0.00000000000E+00 0.  1.
<mgrwt>
<rscale>  0 0.26408638E+04</rscale>
<asrwt>0</asrwt>
<pdfrwt beam="1">  1        2 0.36202695E+00 0.26408638E+04</pdfrwt>
<pdfrwt beam="2">  1       -1 0.11398938E+00 0.26408638E+04</pdfrwt>
<totfact> 0.29715428E+00</totfact>
</mgrwt>
</event>
<event>
12    7  0.1857704E-007  0.1985139E+04  0.7818608E-02  0.8613600E-01
         -1   -1    0    0    0  501 -0.00000000000E+00  0.00000000000E+00  0.48043138258E+03  0.48043138258E+03  0.00000000000E+00 0.  1.
          2   -1    0    0  501    0  0.00000000000E+00 -0.00000000000E+00 -0.20506448621E+04  0.20506448621E+04  0.00000000000E+00 0. -1.
         24    2    1    2    0    0 -0.19191479553E+03 -0.73762969709E+03 -0.85239907378E+03  0.11463182124E+04  0.80823290414E+02 0.  0.
        254    2    1    2    0    0  0.19191479553E+03  0.73762969709E+03 -0.71781440573E+03  0.13847580323E+04  0.90629378688E+03 0.  0.
         23    2    4    4    0    0  0.28517623729E+03  0.18500619305E+03  0.11995302567E+03  0.37271032819E+03  0.94717910609E+02 0.  0.
         23    2    4    4    0    0 -0.93261441756E+02  0.55262350404E+03 -0.83776743141E+03  0.10120477041E+04  0.91081570680E+02 0.  0.
          4    1    3    3  502    0 -0.19611573515E+03 -0.66062555390E+03 -0.75813192075E+03  0.10245250184E+04  0.00000000000E+00 0. -1.
         -3    1    3    3    0  502  0.42009396187E+01 -0.77004143189E+02 -0.94267153031E+02  0.12179319399E+03  0.00000000000E+00 0.  1.
         13    1    5    5    0    0  0.60572482824E+02 -0.16063442572E+01  0.15131120528E+02  0.62454437999E+02  0.00000000000E+00 0.  1.
        -13    1    5    5    0    0  0.22460375446E+03  0.18661253731E+03  0.10482190514E+03  0.31025589019E+03  0.00000000000E+00 0. -1.
          1    1    6    6  503    0 -0.84349768953E+01  0.28232131750E+03 -0.46115083230E+03  0.54077404272E+03  0.00000000000E+00 0. -1.
         -1    1    6    6    0  503 -0.84826464861E+02  0.27030218654E+03 -0.37661659911E+03  0.47127366138E+03  0.00000000000E+00 0.  1.
<mgrwt>
<rscale>  0 0.19851389E+04</rscale>
<asrwt>0</asrwt>
<pdfrwt beam="1">  1        2 0.31548383E+00 0.19851389E+04</pdfrwt>
<pdfrwt beam="2">  1       -1 0.73912520E-01 0.19851389E+04</pdfrwt>
<totfact> 0.12222098E+01</totfact>
</mgrwt>
</event>
<event>
12    7  0.1857704E-007  0.1375521E+04  0.7818608E-02  0.8971731E-01
         -1   -1    0    0    0  501 -0.00000000000E+00  0.00000000000E+00  0.85232195874E+03  0.85232195874E+03  0.00000000000E+00 0.  1.
          2   -1    0    0  501    0  0.00000000000E+00 -0.00000000000E+00 -0.55497143664E+03  0.55497143664E+03  0.00000000000E+00 0. -1.
         24    2    1    2    0    0 -0.35949190425E+03  0.83068347666E+02  0.20553050325E+03  0.42979694938E+03  0.79673397852E+02 0.  0.
        254    2    1    2    0    0  0.35949190425E+03 -0.83068347666E+02  0.91820018854E+02  0.97749644600E+03  0.90051852089E+03 0.  0.
         23    2    4    4    0    0  0.46668107301E+03 -0.23229654661E+03 -0.24405827590E+03  0.58290019882E+03  0.91952652345E+02 0.  0.
         23    2    4    4    0    0 -0.10718916876E+03  0.14922819894E+03  0.33587829476E+03  0.39459624718E+03  0.95568803175E+02 0.  0.
          2    1    3    3  502    0 -0.12843433433E+02 -0.93483098466E+01 -0.86110618135E+00  0.15908682636E+02  0.00000000000E+00 0. -1.
         -1    1    3    3    0  502 -0.34664847082E+03  0.92416657512E+02  0.20639160943E+03  0.41388826675E+03  0.00000000000E+00 0.  1.
         13    1    5    5    0    0  0.45023859691E+03 -0.22004490467E+03 -0.25198073883E+03  0.56091786115E+03  0.00000000000E+00 0. -1.
        -13    1    5    5    0    0  0.16442476104E+02 -0.12251641934E+02  0.79224629256E+01  0.21982337667E+02  0.00000000000E+00 0.  1.
          1    1    6    6  503    0 -0.94256674550E+02  0.57603203366E+02  0.22113630123E+03  0.24719165329E+03  0.00000000000E+00 0. -1.
         -1    1    6    6    0  503 -0.12932494206E+02  0.91624995575E+02  0.11474199353E+03  0.14740459389E+03  0.00000000000E+00 0.  1.
<mgrwt>
<rscale>  0 0.13755208E+04</rscale>
<asrwt>0</asrwt>
<pdfrwt beam="1">  1        2 0.85380221E-01 0.13755208E+04</pdfrwt>
<pdfrwt beam="2">  1       -1 0.13112646E+00 0.13755208E+04</pdfrwt>
<totfact> 0.30127581E+01</totfact>
</mgrwt>
</event>
<event>
12    7  0.1857704E-007  0.1277103E+04  0.7818608E-02  0.9047922E-01
          4   -1    0    0  501    0  0.00000000000E+00  0.00000000000E+00  0.16985164122E+04  0.16985164122E+04  0.00000000000E+00 0. -1.
         -3   -1    0    0    0  501 -0.00000000000E+00 -0.00000000000E+00 -0.24006138407E+03  0.24006138407E+03  0.00000000000E+00 0.  1.
         24    2    1    2    0    0  0.27238898939E+03  0.15654064362E+02  0.62613379997E+03  0.68778039717E+03  0.80978565043E+02 0.  0.
        254    2    1    2    0    0 -0.27238898939E+03 -0.15654064362E+02  0.83232122814E+03  0.12507973991E+04  0.89291359910E+03 0.  0.
         23    2    4    4    0    0 -0.45216181145E+03 -0.20657175061E+03  0.83066185358E+03  0.97255816909E+03  0.93531200062E+02 0.  0.
         23    2    4    4    0    0  0.17977282206E+03  0.19091768625E+03  0.16593745591E+01  0.27823922999E+03  0.92986478077E+02 0.  0.
          4    1    3    3  502    0  0.11111755192E+01 -0.96092740128E+01  0.43909046249E+02  0.44961952811E+02  0.00000000000E+00 0. -1.
         -3    1    3    3    0  502  0.27127781387E+03  0.25263338375E+02  0.58222475372E+03  0.64281844436E+03  0.00000000000E+00 0.  1.
         13    1    5    5    0    0 -0.17855773136E+03 -0.36769859604E+02  0.26476480032E+03  0.32145806179E+03  0.00000000000E+00 0.  1.
        -13    1    5    5    0    0 -0.27360408009E+03 -0.16980189100E+03  0.56589705326E+03  0.65110010730E+03  0.00000000000E+00 0. -1.
          4    1    6    6  503    0  0.28893172344E+02  0.69461613695E+02 -0.31806009444E+02  0.81678353448E+02  0.00000000000E+00 0. -1.
         -4    1    6    6    0  503  0.15087964972E+03  0.12145607255E+03  0.33465384003E+02  0.19656087654E+03  0.00000000000E+00 0.  1.
<mgrwt>
<rscale>  0 0.12771033E+04</rscale>
<asrwt>0</asrwt>
<pdfrwt beam="1">  1        4 0.26131021E+00 0.12771033E+04</pdfrwt>
<pdfrwt beam="2">  1       -3 0.36932522E-01 0.12771033E+04</pdfrwt>
<totfact> 0.88118193E-01</totfact>
</mgrwt>
</event>
<event>
12    7  0.1857704E-007  0.1480324E+04  0.7818608E-02  0.8897644E-01
          2   -1    0    0  501    0  0.00000000000E+00  0.00000000000E+00  0.36033638439E+04  0.36033638439E+04  0.00000000000E+00 0. -1.
         -1   -1    0    0    0  501 -0.00000000000E+00 -0.00000000000E+00 -0.15203555530E+03  0.15203555530E+03  0.00000000000E+00 0.  1.
         24    2    1    2    0    0 -0.37018298786E+03  0.24596566346E+03  0.13800047221E+04  0.14518386747E+04  0.76732993626E+02 0.  0.
        254    2    1    2    0    0  0.37018298786E+03 -0.24596566346E+03  0.20713235664E+04  0.23035607244E+04  0.90469671277E+03 0.  0.
         23    2    4    4    0    0  0.52819468654E+02 -0.84129242403E+02  0.18875381153E+04  0.18924430790E+04  0.93129182709E+02 0.  0.
         23    2    4    4    0    0  0.31736351921E+03 -0.16183642106E+03  0.18378545113E+03  0.41111764546E+03  0.91268810964E+02 0.  0.
          2    1    3    3  502    0 -0.36558585478E+03  0.22934290622E+03  0.13491038865E+04  0.14164506636E+04  0.00000000000E+00 0. -1.
         -1    1    3    3    0  502 -0.45971330768E+01  0.16622757242E+02  0.30900835654E+02  0.35388011176E+02  0.00000000000E+00 0.  1.
         13    1    5    5    0    0  0.68517405896E+01  0.20625439128E+02  0.28621829911E+03  0.28704227882E+03  0.00000000000E+00 0. -1.
        -13    1    5    5    0    0  0.45967728064E+02 -0.10475468153E+03  0.16013198162E+04  0.16054008001E+04  0.00000000000E+00 0.  1.
          2    1    6    6  503    0  0.16725905982E+03 -0.10655026819E+03  0.14733516950E+03  0.24705506454E+03  0.00000000000E+00 0. -1.
         -2    1    6    6    0  503  0.15010445939E+03 -0.55286152867E+02  0.36450281634E+02  0.16406258092E+03  0.00000000000E+00 0.  1.
<mgrwt>
<rscale>  0 0.14803235E+04</rscale>
<asrwt>0</asrwt>
<pdfrwt beam="1">  1        2 0.55436360E+00 0.14803235E+04</pdfrwt>
<pdfrwt beam="2">  1       -1 0.23390088E-01 0.14803235E+04</pdfrwt>
<totfact> 0.12073198E+01</totfact>
</mgrwt>
</event>
<event>
12    7  0.1857704E-007  0.1544055E+04  0.7818608E-02  0.8855674E-01
         -1   -1    0    0    0  501 -0.00000000000E+00  0.00000000000E+00  0.58068660694E+03  0.58068660694E+03  0.00000000000E+00 0.  1.
          2   -1    0    0  501    0  0.00000000000E+00 -0.00000000000E+00 -0.10264162979E+04  0.10264162979E+04  0.00000000000E+00 0. -1.
         24    2    1    2    0    0 -0.25608881035E+03 -0.32941751543E+03  0.14676655684E+03  0.44967273805E+03  0.81041784739E+02 0.  0.
        254    2    1    2    0    0  0.25608881035E+03  0.32941751543E+03 -0.59249624777E+03  0.11574301668E+04  0.90249399390E+03 0.  0.
         23    2    4    4    0    0  0.29372321738E+03  0.34417997745E+03 -0.80210347303E+03  0.92542191079E+03  0.91118308882E+02 0.  0.
         23    2    4    4    0    0 -0.37634407027E+02 -0.14762462014E+02  0.20960722526E+03  0.23200825596E+03  0.90875536171E+02 0.  0.
          2    1    3    3  502    0 -0.59071161627E+02 -0.13228709260E+03  0.32651172105E+02  0.14851052503E+03  0.00000000000E+00 0. -1.
         -1    1    3    3    0  502 -0.19701764873E+03 -0.19713042283E+03  0.11411538474E+03  0.30116221301E+03  0.00000000000E+00 0.  1.
         13    1    5    5    0    0  0.22491843396E+03  0.30308454064E+03 -0.70357472402E+03  0.79841463725E+03  0.00000000000E+00 0. -1.
        -13    1    5    5    0    0  0.68804783416E+02  0.41095436810E+02 -0.98528749018E+02  0.12700727353E+03  0.00000000000E+00 0.  1.
          4    1    6    6  503    0 -0.14751209596E+02  0.20244124237E+02  0.82777047711E+01  0.26380734390E+02  0.00000000000E+00 0.  1.
         -4    1    6    6    0  503 -0.22883197430E+02 -0.35006586252E+02  0.20132952049E+03  0.20562752157E+03  0.00000000000E+00 0. -1.
<mgrwt>
<rscale>  0 0.15440547E+04</rscale>
<asrwt>0</asrwt>
<pdfrwt beam="1">  1        2 0.15791020E+00 0.15440547E+04</pdfrwt>
<pdfrwt beam="2">  1       -1 0.89336402E-01 0.15440547E+04</pdfrwt>
<totfact> 0.32688034E+01</totfact>
</mgrwt>
</event>
<event>
12    7  0.1857704E-007  0.1489047E+04  0.7818608E-02  0.8891770E-01
         -1   -1    0    0    0  501 -0.00000000000E+00  0.00000000000E+00  0.54253856418E+03  0.54253856418E+03  0.00000000000E+00 0.  1.
          2   -1    0    0  501    0  0.00000000000E+00 -0.00000000000E+00 -0.10217062270E+04  0.10217062270E+04  0.00000000000E+00 0. -1.
         24    2    1    2    0    0  0.73043449640E+02 -0.49203138179E+02 -0.63279485684E+03  0.64399552499E+03  0.80898770256E+02 0.  0.
        254    2    1    2    0    0 -0.73043449640E+02  0.49203138179E+02  0.15362719401E+03  0.92024926620E+03  0.90305099682E+03 0.  0.
         23    2    4    4    0    0  0.17893160177E+02 -0.92392821064E+00  0.52028028992E+03  0.52847333554E+03  0.90947608409E+02 0.  0.
         23    2    4    4    0    0 -0.90936609817E+02  0.50127066389E+02 -0.36665309591E+03  0.39177593066E+03  0.90948871952E+02 0.  0.
          4    1    3    3  502    0  0.66480706689E+02 -0.59395891500E+02 -0.61997403785E+03  0.62635083132E+03  0.00000000000E+00 0. -1.
         -3    1    3    3    0  502  0.65627429503E+01  0.10192753321E+02 -0.12820818993E+02  0.17644693677E+02  0.00000000000E+00 0.  1.
         13    1    5    5    0    0 -0.24727839522E+02 -0.15901398239E+02  0.69871887637E+02  0.75805020911E+02  0.00000000000E+00 0.  1.
        -13    1    5    5    0    0  0.42620999699E+02  0.14977470029E+02  0.45040840228E+03  0.45266831463E+03  0.00000000000E+00 0. -1.
          1    1    6    6  503    0 -0.89387143630E+02  0.72550742464E+02 -0.31749237903E+03  0.33772042050E+03  0.00000000000E+00 0. -1.
         -1    1    6    6    0  503 -0.15494661868E+01 -0.22423676075E+02 -0.49160716880E+02  0.54055510157E+02  0.00000000000E+00 0.  1.
<mgrwt>
<rscale>  0 0.14890467E+04</rscale>
<asrwt>0</asrwt>
<pdfrwt beam="1">  1        2 0.15718557E+00 0.14890467E+04</pdfrwt>
<pdfrwt beam="2">  1       -1 0.83467471E-01 0.14890467E+04</pdfrwt>
<totfact> 0.38334282E+01</totfact>
</mgrwt>
</event>
<event>
12    7  0.1857704E-007  0.1839630E+04  0.7818608E-02  0.8685504E-01
         -1   -1    0    0    0  501 -0.00000000000E+00  0.00000000000E+00  0.88817454476E+03  0.88817454476E+03  0.00000000000E+00 0.  1.
          2   -1    0    0  501    0  0.00000000000E+00 -0.00000000000E+00 -0.95258279891E+03  0.95258279891E+03  0.00000000000E+00 0. -1.
         24    2    1    2    0    0 -0.26280263037E+03  0.30185264705E+03  0.53151519764E+03  0.67022419251E+03  0.80695847729E+02 0.  0.
        254    2    1    2    0    0  0.26280263037E+03 -0.30185264705E+03 -0.59592345179E+03  0.11705331512E+04  0.92457712200E+03 0.  0.
         23    2    4    4    0    0 -0.58781372801E+02 -0.28824376502E+03 -0.74430917147E+03  0.80564514261E+03  0.92348444632E+02 0.  0.
         23    2    4    4    0    0  0.32158400317E+03 -0.13608882027E+02  0.14838571968E+03  0.36488800855E+03  0.86737905321E+02 0.  0.
          4    1    3    3  502    0 -0.87555641511E+02  0.70999345019E+02  0.10172770937E+03  0.15184012713E+03  0.00000000000E+00 0. -1.
         -3    1    3    3    0  502 -0.17524698885E+03  0.23085330203E+03  0.42978748827E+03  0.51838406538E+03  0.00000000000E+00 0.  1.
         13    1    5    5    0    0 -0.68632815894E+02 -0.28736824651E+03 -0.69237476322E+03  0.75277738095E+03  0.00000000000E+00 0. -1.
        -13    1    5    5    0    0  0.98514430937E+01 -0.87551850650E+00 -0.51934408244E+02  0.52867761664E+02  0.00000000000E+00 0.  1.
          4    1    6    6  503    0  0.27109060297E+03 -0.43852689637E+00  0.15502138588E+03  0.31228502590E+03  0.00000000000E+00 0. -1.
         -4    1    6    6    0  503  0.50493400196E+02 -0.13170355130E+02 -0.66356662011E+01  0.52602982649E+02  0.00000000000E+00 0.  1.
<mgrwt>
<rscale>  0 0.18396302E+04</rscale>
<asrwt>0</asrwt>
<pdfrwt beam="1">  1        2 0.14655120E+00 0.18396302E+04</pdfrwt>
<pdfrwt beam="2">  1       -1 0.13664224E+00 0.18396302E+04</pdfrwt>
<totfact> 0.12967656E+01</totfact>
</mgrwt>
</event>
<event>
12    7  0.1857704E-007  0.2043303E+04  0.7818608E-02  0.8586638E-01
         -1   -1    0    0    0  501 -0.00000000000E+00  0.00000000000E+00  0.92740196362E+03  0.92740196362E+03  0.00000000000E+00 0.  1.
          2   -1    0    0  501    0  0.00000000000E+00 -0.00000000000E+00 -0.11254798717E+04  0.11254798717E+04  0.00000000000E+00 0. -1.
         24    2    1    2    0    0  0.61724928266E+03 -0.42229164691E+03 -0.42335942340E+03  0.86276396648E+03  0.76167896712E+02 0.  0.
        254    2    1    2    0    0 -0.61724928266E+03  0.42229164691E+03  0.22528151531E+03  0.11901178688E+04  0.89794313217E+03 0.  0.
         23    2    4    4    0    0  0.39504211485E+01  0.18137865008E+03 -0.28198237960E+03  0.34783206630E+03  0.92516287272E+02 0.  0.
         23    2    4    4    0    0 -0.62119970381E+03  0.24091299683E+03  0.50726389491E+03  0.84228580254E+03  0.90556998825E+02 0.  0.
          2    1    3    3  502    0  0.99082017224E+02 -0.71570433924E+02 -0.38373420440E+02  0.12810968951E+03  0.00000000000E+00 0. -1.
         -3    1    3    3    0  502  0.51816726544E+03 -0.35072121299E+03 -0.38498600296E+03  0.73465427698E+03  0.00000000000E+00 0.  1.
         13    1    5    5    0    0  0.25400444654E+02  0.16234348118E+03 -0.27139280864E+03  0.31726116221E+03  0.00000000000E+00 0. -1.
        -13    1    5    5    0    0 -0.21450023506E+02  0.19035168908E+02 -0.10589570964E+02  0.30570904091E+02  0.00000000000E+00 0.  1.
          1    1    6    6  503    0 -0.34742097070E+03  0.18254754243E+03  0.29338436255E+03  0.48999930645E+03  0.00000000000E+00 0. -1.
         -1    1    6    6    0  503 -0.27377873311E+03  0.58365454394E+02  0.21387953235E+03  0.35228649609E+03  0.00000000000E+00 0.  1.
<mgrwt>
<rscale>  0 0.20433034E+04</rscale>
<asrwt>0</asrwt>
<pdfrwt beam="1">  1        2 0.17315075E+00 0.20433034E+04</pdfrwt>
<pdfrwt beam="2">  1       -1 0.14267723E+00 0.20433034E+04</pdfrwt>
<totfact> 0.88476825E+00</totfact>
</mgrwt>
</event>
<event>
12    7  0.1857704E-007  0.2014546E+04  0.7818608E-02  0.8599850E-01
          2   -1    0    0  501    0  0.00000000000E+00  0.00000000000E+00  0.34026223256E+04  0.34026223256E+04  0.00000000000E+00 0. -1.
         -1   -1    0    0    0  501 -0.00000000000E+00 -0.00000000000E+00 -0.29818131506E+03  0.29818131506E+03  0.00000000000E+00 0.  1.
         24    2    1    2    0    0  0.15368365765E+02  0.22203522204E+03  0.26674404771E+04  0.26779531382E+04  0.81599540644E+02 0.  0.
        254    2    1    2    0    0 -0.15368365765E+02 -0.22203522204E+03  0.43700053341E+03  0.10228505024E+04  0.89761787953E+03 0.  0.
         23    2    4    4    0    0  0.34698776620E+03 -0.25878975007E+03 -0.45310634165E+01  0.44452707809E+03  0.10105022506E+03 0.  0.
         23    2    4    4    0    0 -0.36235613197E+03  0.36754528031E+02  0.44153159683E+03  0.57832342435E+03  0.82794748900E+02 0.  0.
          2    1    3    3  502    0  0.27462892866E+02  0.10112500374E+03  0.84619478543E+03  0.85265825027E+03  0.00000000000E+00 0. -1.
         -1    1    3    3    0  502 -0.12094527101E+02  0.12091021830E+03  0.18212456917E+04  0.18252948880E+04  0.00000000000E+00 0.  1.
         13    1    5    5    0    0  0.25103486215E+02 -0.62623763694E+02 -0.38451479745E+01  0.67577407189E+02  0.00000000000E+00 0.  1.
        -13    1    5    5    0    0  0.32188427999E+03 -0.19616598638E+03 -0.68591544193E+00  0.37694967090E+03  0.00000000000E+00 0. -1.
          3    1    6    6  503    0 -0.16592154385E+03  0.10971191773E+01  0.14220433456E+03  0.21852513620E+03  0.00000000000E+00 0. -1.
         -3    1    6    6    0  503 -0.19643458812E+03  0.35657408854E+02  0.29932726227E+03  0.35979828815E+03  0.00000000000E+00 0.  1.
<mgrwt>
<rscale>  0 0.20145455E+04</rscale>
<asrwt>0</asrwt>
<pdfrwt beam="1">  1        2 0.52348033E+00 0.20145455E+04</pdfrwt>
<pdfrwt beam="2">  1       -1 0.45874051E-01 0.20145455E+04</pdfrwt>
<totfact> 0.47598750E+00</totfact>
</mgrwt>
</event>
<event>
12    7  0.1857704E-007  0.1835853E+04  0.7818608E-02  0.8687462E-01
          2   -1    0    0  501    0  0.00000000000E+00  0.00000000000E+00  0.72577296557E+03  0.72577296557E+03  0.00000000000E+00 0. -1.
         -1   -1    0    0    0  501 -0.00000000000E+00 -0.00000000000E+00 -0.11609543292E+04  0.11609543292E+04  0.00000000000E+00 0.  1.
         24    2    1    2    0    0  0.37192848836E+03 -0.49652225451E+03 -0.48899427538E+03  0.79393106211E+03  0.79661661676E+02 0.  0.
        254    2    1    2    0    0 -0.37192848836E+03  0.49652225451E+03  0.53812911768E+02  0.10927962326E+04  0.89802150693E+03 0.  0.
         23    2    4    4    0    0 -0.58709005504E+03  0.94656565041E+02  0.14510257070E+03  0.61902631338E+03  0.92218342003E+02 0.  0.
         23    2    4    4    0    0  0.21516156667E+03  0.40186568947E+03 -0.91289658935E+02  0.47376991926E+03  0.91288566741E+02 0.  0.
          4    1    3    3  502    0  0.21078564898E+03 -0.32511570879E+03 -0.33974584192E+03  0.51532324905E+03  0.00000000000E+00 0. -1.
         -3    1    3    3    0  502  0.16114283939E+03 -0.17140654573E+03 -0.14924843346E+03  0.27860781305E+03  0.00000000000E+00 0.  1.
         13    1    5    5    0    0 -0.41179219495E+01  0.10971886039E+02  0.84072170240E+01  0.14422928362E+02  0.00000000000E+00 0.  1.
        -13    1    5    5    0    0 -0.58297213309E+03  0.83684679002E+02  0.13669535368E+03  0.60460338502E+03  0.00000000000E+00 0. -1.
          3    1    6    6  503    0  0.15909660123E+03  0.33315430235E+03 -0.10546613784E+03  0.38396174800E+03  0.00000000000E+00 0. -1.
         -3    1    6    6    0  503  0.56064965446E+02  0.68711387117E+02  0.14176478904E+02  0.89808171255E+02  0.00000000000E+00 0.  1.
<mgrwt>
<rscale>  0 0.18358532E+04</rscale>
<asrwt>0</asrwt>
<pdfrwt beam="1">  1        2 0.11165738E+00 0.18358532E+04</pdfrwt>
<pdfrwt beam="2">  1       -1 0.17860836E+00 0.18358532E+04</pdfrwt>
<totfact> 0.89546765E+00</totfact>
</mgrwt>
</event>
<event>
12    7  0.1857704E-007  0.1857548E+04  0.7818608E-02  0.8676281E-01
          2   -1    0    0  501    0  0.00000000000E+00  0.00000000000E+00  0.13261706746E+04  0.13261706746E+04  0.00000000000E+00 0. -1.
         -1   -1    0    0    0  501 -0.00000000000E+00 -0.00000000000E+00 -0.65046028177E+03  0.65046028177E+03  0.00000000000E+00 0.  1.
         24    2    1    2    0    0 -0.28100210036E+02  0.56108659979E+03  0.70427303915E+03  0.90415766007E+03  0.76764355861E+02 0.  0.
        254    2    1    2    0    0  0.28100210036E+02 -0.56108659979E+03 -0.28562646323E+02  0.10724732963E+04  0.91311300081E+03 0.  0.
         23    2    4    4    0    0  0.85825028896E+02 -0.36705415829E+03  0.41930611618E+03  0.57102672064E+03  0.90328322898E+02 0.  0.
         23    2    4    4    0    0 -0.57724818860E+02 -0.19403244150E+03 -0.44786876250E+03  0.50144657566E+03  0.99405717859E+02 0.  0.
          2    1    3    3  502    0 -0.45347577717E+02  0.48157504650E+03  0.62750793966E+03  0.79229864480E+03  0.00000000000E+00 0. -1.
         -1    1    3    3    0  502  0.17247367681E+02  0.79511553286E+02  0.76765099487E+02  0.11185901527E+03  0.00000000000E+00 0.  1.
         13    1    5    5    0    0  0.88737131955E+02 -0.30769186166E+03  0.39040023817E+03  0.50493653688E+03  0.00000000000E+00 0. -1.
        -13    1    5    5    0    0 -0.29121030588E+01 -0.59362296629E+02  0.28905878013E+02  0.66090183756E+02  0.00000000000E+00 0.  1.
          1    1    6    6  503    0 -0.84648061969E+02 -0.15948749599E+03 -0.33874352530E+03  0.38386030233E+03  0.00000000000E+00 0. -1.
         -1    1    6    6    0  503  0.26923243109E+02 -0.34544945513E+02 -0.10912523721E+03  0.11758627333E+03  0.00000000000E+00 0.  1.
<mgrwt>
<rscale>  0 0.18575482E+04</rscale>
<asrwt>0</asrwt>
<pdfrwt beam="1">  1        2 0.20402626E+00 0.18575482E+04</pdfrwt>
<pdfrwt beam="2">  1       -1 0.10007081E+00 0.18575482E+04</pdfrwt>
<totfact> 0.16270908E+01</totfact>
</mgrwt>
</event>
<event>
12    7  0.1857704E-007  0.3571462E+04  0.7818608E-02  0.8097060E-01
          2   -1    0    0  501    0  0.00000000000E+00  0.00000000000E+00  0.12206372474E+04  0.12206372474E+04  0.00000000000E+00 0. -1.
         -1   -1    0    0    0  501 -0.00000000000E+00 -0.00000000000E+00 -0.26124342683E+04  0.26124342683E+04  0.00000000000E+00 0.  1.
         24    2    1    2    0    0  0.91296562568E+03 -0.13990714477E+04 -0.71214480144E+03  0.18178002026E+04  0.79625427856E+02 0.  0.
        254    2    1    2    0    0 -0.91296562568E+03  0.13990714477E+04 -0.67965221945E+03  0.20152713131E+04  0.89915748144E+03 0.  0.
         23    2    4    4    0    0  0.37213748125E+02  0.64595922437E+03 -0.40295749053E+03  0.76830784901E+03  0.96301760510E+02 0.  0.
         23    2    4    4    0    0 -0.95017937380E+03  0.75311222337E+03 -0.27669472891E+03  0.12469634641E+04  0.91318368129E+02 0.  0.
          2    1    3    3  502    0  0.40117382554E+03 -0.62274901127E+03 -0.35859924572E+03  0.82301287254E+03  0.00000000000E+00 0. -1.
         -1    1    3    3    0  502  0.51179180014E+03 -0.77632243646E+03 -0.35354555572E+03  0.99478733004E+03  0.00000000000E+00 0.  1.
         13    1    5    5    0    0  0.35299953049E+02  0.19885684395E+03 -0.82238923135E+02  0.21806735553E+03  0.00000000000E+00 0.  1.
        -13    1    5    5    0    0  0.19137950761E+01  0.44710238042E+03 -0.32071856740E+03  0.55024049348E+03  0.00000000000E+00 0. -1.
          4    1    6    6  503    0 -0.82183319733E+03  0.62679658173E+03 -0.20846024604E+03  0.10543905506E+04  0.00000000000E+00 0. -1.
         -4    1    6    6    0  503 -0.12834617647E+03  0.12631564164E+03 -0.68234482874E+02  0.19257291345E+03  0.00000000000E+00 0.  1.
<mgrwt>
<rscale>  0 0.35714616E+04</rscale>
<asrwt>0</asrwt>
<pdfrwt beam="1">  1        2 0.18779035E+00 0.35714616E+04</pdfrwt>
<pdfrwt beam="2">  1       -1 0.40191296E+00 0.35714616E+04</pdfrwt>
<totfact> 0.11883127E-01</totfact>
</mgrwt>
</event>
<event>
12    7  0.1857704E-007  0.1390615E+04  0.7818608E-02  0.8960640E-01
          2   -1    0    0  501    0  0.00000000000E+00  0.00000000000E+00  0.41230126422E+03  0.41230126422E+03  0.00000000000E+00 0. -1.
         -1   -1    0    0    0  501 -0.00000000000E+00 -0.00000000000E+00 -0.11725711612E+04  0.11725711612E+04  0.00000000000E+00 0.  1.
         24    2    1    2    0    0 -0.21856500832E+03  0.27537166339E+03 -0.37721167727E+03  0.52188689219E+03  0.80480202009E+02 0.  0.
        254    2    1    2    0    0  0.21856500832E+03 -0.27537166339E+03 -0.38305821972E+03  0.10629855332E+04  0.92714854706E+03 0.  0.
         23    2    4    4    0    0 -0.29596498409E+03  0.97835547144E+02 -0.24325425748E+03  0.40575472770E+03  0.91088962959E+02 0.  0.
         23    2    4    4    0    0  0.51452999241E+03 -0.37320721054E+03 -0.13980396224E+03  0.65723080554E+03  0.91555714231E+02 0.  0.
          2    1    3    3  502    0 -0.14279825535E+03  0.19677392547E+03 -0.20516086415E+03  0.31812308884E+03  0.00000000000E+00 0. -1.
         -1    1    3    3    0  502 -0.75766752967E+02  0.78597737926E+02 -0.17205081312E+03  0.20376380335E+03  0.00000000000E+00 0.  1.
         13    1    5    5    0    0 -0.10681589754E+03  0.24292264687E+02 -0.35070554219E+02  0.11502040630E+03  0.00000000000E+00 0. -1.
        -13    1    5    5    0    0 -0.18914908655E+03  0.73543282457E+02 -0.20818370326E+03  0.29073432140E+03  0.00000000000E+00 0.  1.
          3    1    6    6  503    0  0.20307413209E+03 -0.13062434440E+03 -0.96712685888E+02  0.26010606699E+03  0.00000000000E+00 0. -1.
         -3    1    6    6    0  503  0.31145586032E+03 -0.24258286614E+03 -0.43091276351E+02  0.39712473855E+03  0.00000000000E+00 0.  1.
<mgrwt>
<rscale>  0 0.13906151E+04</rscale>
<asrwt>0</asrwt>
<pdfrwt beam="1">  1        2 0.63430963E-01 0.13906151E+04</pdfrwt>
<pdfrwt beam="2">  1       -1 0.18039556E+00 0.13906151E+04</pdfrwt>
<totfact> 0.17701430E+01</totfact>
</mgrwt>
</event>
<event>
12    7  0.1857704E-007  0.1656552E+04  0.7818608E-02  0.8786540E-01
         -1   -1    0    0    0  501 -0.00000000000E+00  0.00000000000E+00  0.73264669864E+03  0.73264669864E+03  0.00000000000E+00 0.  1.
          2   -1    0    0  501    0  0.00000000000E+00 -0.00000000000E+00 -0.93638783502E+03  0.93638783502E+03  0.00000000000E+00 0. -1.
         24    2    1    2    0    0  0.17411157080E+03  0.23889980501E+03 -0.57702588164E+03  0.65306676762E+03  0.78417976084E+02 0.  0.
        254    2    1    2    0    0 -0.17411157080E+03 -0.23889980501E+03  0.37328474526E+03  0.10159677660E+04  0.89747481561E+03 0.  0.
         23    2    4    4    0    0  0.67767076985E+02  0.24328709957E+03  0.38441390208E+03  0.46888066948E+03  0.91071645164E+02 0.  0.
         23    2    4    4    0    0 -0.24187864778E+03 -0.48218690458E+03 -0.11129156819E+02  0.54708709656E+03  0.90393262429E+02 0.  0.
          2    1    3    3  502    0  0.28201853677E+02  0.82466453359E+02 -0.22304620229E+03  0.23946955722E+03  0.00000000000E+00 0. -1.
         -1    1    3    3    0  502  0.14590971712E+03  0.15643335165E+03 -0.35397967935E+03  0.41359721040E+03  0.00000000000E+00 0.  1.
         13    1    5    5    0    0  0.35305682408E+02  0.15917034940E+03  0.31641805312E+03  0.35595235030E+03  0.00000000000E+00 0. -1.
        -13    1    5    5    0    0  0.32461394577E+02  0.84116750170E+02  0.67995848958E+02  0.11292831918E+03  0.00000000000E+00 0.  1.
          4    1    6    6  503    0 -0.17123282304E+03 -0.30008649575E+03  0.32246777233E+02  0.34700495567E+03  0.00000000000E+00 0. -1.
         -4    1    6    6    0  503 -0.70645824748E+02 -0.18210040883E+03 -0.43375934051E+02  0.20008214090E+03  0.00000000000E+00 0.  1.
<mgrwt>
<rscale>  0 0.16565524E+04</rscale>
<asrwt>0</asrwt>
<pdfrwt beam="1">  1        2 0.14405967E+00 0.16565524E+04</pdfrwt>
<pdfrwt beam="2">  1       -1 0.11271488E+00 0.16565524E+04</pdfrwt>
<totfact> 0.21755110E+01</totfact>
</mgrwt>
</event>
<event>
12    7  0.1857704E-007  0.1674139E+04  0.7818608E-02  0.8776253E-01
         -1   -1    0    0    0  501 -0.00000000000E+00  0.00000000000E+00  0.30269744979E+03  0.30269744979E+03  0.00000000000E+00 0.  1.
          2   -1    0    0  501    0  0.00000000000E+00 -0.00000000000E+00 -0.23148053754E+04  0.23148053754E+04  0.00000000000E+00 0. -1.
         24    2    1    2    0    0  0.69075469141E+02  0.42563848965E+03 -0.13450117597E+04  0.14145773148E+04  0.77671110930E+02 0.  0.
        254    2    1    2    0    0 -0.69075469141E+02 -0.42563848965E+03 -0.66709616587E+03  0.12029255104E+04  0.90336755791E+03 0.  0.
         23    2    4    4    0    0  0.13611408762E+03  0.19288096980E+03 -0.43758309988E+03  0.50546808028E+03  0.91043382620E+02 0.  0.
         23    2    4    4    0    0 -0.20518955676E+03 -0.61851945945E+03 -0.22951306599E+03  0.69745743009E+03  0.95402009465E+02 0.  0.
          4    1    3    3  502    0  0.44484441823E+02  0.38679593488E+03 -0.12459823622E+04  0.13053972605E+04  0.00000000000E+00 0. -1.
         -3    1    3    3    0  502  0.24591027317E+02  0.38842554769E+02 -0.99029397513E+02  0.10918005430E+03  0.00000000000E+00 0.  1.
         13    1    5    5    0    0  0.14195205719E+03  0.14947132554E+03 -0.32728396181E+03  0.38679045407E+03  0.00000000000E+00 0. -1.
        -13    1    5    5    0    0 -0.58379695754E+01  0.43409644260E+02 -0.11029913807E+03  0.11867762621E+03  0.00000000000E+00 0.  1.
          3    1    6    6  503    0 -0.19453558772E+03 -0.61093692641E+03 -0.21139214812E+03  0.67511085255E+03  0.00000000000E+00 0. -1.
         -3    1    6    6    0  503 -0.10653969032E+02 -0.75825330379E+01 -0.18120917867E+02  0.22346577540E+02  0.00000000000E+00 0.  1.
<mgrwt>
<rscale>  0 0.16741394E+04</rscale>
<asrwt>0</asrwt>
<pdfrwt beam="1">  1        2 0.35612390E+00 0.16741394E+04</pdfrwt>
<pdfrwt beam="2">  1       -1 0.46568839E-01 0.16741394E+04</pdfrwt>
<totfact> 0.22194777E+01</totfact>
</mgrwt>
</event>
<event>
12    7  0.1857704E-007  0.2384278E+04  0.7818608E-02  0.8445413E-01
         -1   -1    0    0    0  501 -0.00000000000E+00  0.00000000000E+00  0.95642437377E+03  0.95642437377E+03  0.00000000000E+00 0.  1.
          2   -1    0    0  501    0  0.00000000000E+00 -0.00000000000E+00 -0.14859466700E+04  0.14859466700E+04  0.00000000000E+00 0. -1.
         24    2    1    2    0    0  0.72677246502E+03  0.28407476528E+03  0.44575798599E+03  0.90211361461E+03  0.78816897987E+02 0.  0.
        254    2    1    2    0    0 -0.72677246502E+03 -0.28407476528E+03 -0.97528028227E+03  0.15402574292E+04  0.90129053642E+03 0.  0.
         23    2    4    4    0    0 -0.52133611912E+03  0.13167009254E+03 -0.11558013735E+03  0.55949372781E+03  0.10269421085E+03 0.  0.
         23    2    4    4    0    0 -0.20543634590E+03 -0.41574485782E+03 -0.85970014491E+03  0.98076370139E+03  0.88120484394E+02 0.  0.
          4    1    3    3  502    0  0.64719170021E+02  0.48638650160E+02  0.35068214318E+02  0.88227370544E+02  0.00000000000E+00 0. -1.
         -3    1    3    3    0  502  0.66205329500E+03  0.23543611512E+03  0.41068977168E+03  0.81388624407E+03  0.00000000000E+00 0.  1.
         13    1    5    5    0    0 -0.27144832961E+03  0.51238061586E+02 -0.10879221640E+03  0.29689270949E+03  0.00000000000E+00 0.  1.
        -13    1    5    5    0    0 -0.24988778951E+03  0.80432030955E+02 -0.67879209536E+01  0.26260101832E+03  0.00000000000E+00 0. -1.
          3    1    6    6  503    0 -0.21221177276E+03 -0.38335847132E+03 -0.78378425580E+03  0.89795061873E+03  0.00000000000E+00 0. -1.
         -3    1    6    6    0  503  0.67754268585E+01 -0.32386386501E+02 -0.75915889111E+02  0.82813082658E+02  0.00000000000E+00 0.  1.
<mgrwt>
<rscale>  0 0.23842782E+04</rscale>
<asrwt>0</asrwt>
<pdfrwt beam="1">  1        2 0.22860718E+00 0.23842782E+04</pdfrwt>
<pdfrwt beam="2">  1       -1 0.14714221E+00 0.23842782E+04</pdfrwt>
<totfact> 0.48721522E+00</totfact>
</mgrwt>
</event>
<event>
12    7  0.1857704E-007  0.1575310E+04  0.7818608E-02  0.8835861E-01
         -1   -1    0    0    0  501 -0.00000000000E+00  0.00000000000E+00  0.39837689914E+03  0.39837689914E+03  0.00000000000E+00 0.  1.
          2   -1    0    0  501    0  0.00000000000E+00 -0.00000000000E+00 -0.15573211220E+04  0.15573211220E+04  0.00000000000E+00 0. -1.
         24    2    1    2    0    0 -0.43698277587E+03  0.88330285721E+02 -0.72882413048E+03  0.85847886131E+03  0.83935429767E+02 0.  0.
        254    2    1    2    0    0  0.43698277587E+03 -0.88330285721E+02 -0.43012009237E+03  0.10972191598E+04  0.90561051509E+03 0.  0.
         23    2    4    4    0    0 -0.61791521083E+02 -0.96250115508E+02 -0.55593522676E+03  0.57472571864E+03  0.90351527348E+02 0.  0.
         23    2    4    4    0    0  0.49877429695E+03  0.79198297869E+01  0.12581513439E+03  0.52249344119E+03  0.91276640159E+02 0.  0.
          4    1    3    3  502    0 -0.25966247131E+03  0.30574950353E+02 -0.35693084125E+03  0.44244666575E+03  0.00000000000E+00 0. -1.
         -3    1    3    3    0  502 -0.17732030455E+03  0.57755335369E+02 -0.37189328923E+03  0.41603219556E+03  0.00000000000E+00 0.  1.
         13    1    5    5    0    0 -0.47049456364E+01 -0.64021790610E+01 -0.26180067980E+03  0.26192121020E+03  0.00000000000E+00 0.  1.
        -13    1    5    5    0    0 -0.57086575447E+02 -0.89847936447E+02 -0.29413454696E+03  0.31280450844E+03  0.00000000000E+00 0. -1.
          1    1    6    6  503    0  0.48797128932E+03  0.15277982517E+02  0.10735523419E+03  0.49987452652E+03  0.00000000000E+00 0. -1.
         -1    1    6    6    0  503  0.10803007625E+02 -0.73581527302E+01  0.18459900198E+02  0.22618914666E+02  0.00000000000E+00 0.  1.
<mgrwt>
<rscale>  0 0.15753105E+04</rscale>
<asrwt>0</asrwt>
<pdfrwt beam="1">  1        2 0.23958787E+00 0.15753105E+04</pdfrwt>
<pdfrwt beam="2">  1       -1 0.61288753E-01 0.15753105E+04</pdfrwt>
<totfact> 0.34827652E+01</totfact>
</mgrwt>
</event>
<event>
12    7  0.1857704E-007  0.2449490E+04  0.7818608E-02  0.8421204E-01
          2   -1    0    0  501    0  0.00000000000E+00  0.00000000000E+00  0.70455387032E+03  0.70455387032E+03  0.00000000000E+00 0. -1.
         -1   -1    0    0    0  501 -0.00000000000E+00 -0.00000000000E+00 -0.21290078753E+04  0.21290078753E+04  0.00000000000E+00 0.  1.
         24    2    1    2    0    0 -0.81963818234E+03 -0.39691546399E+03 -0.51145431372E+02  0.91639379504E+03  0.88391724313E+02 0.  0.
        254    2    1    2    0    0  0.81963818234E+03  0.39691546399E+03 -0.13733085737E+04  0.19171679506E+04  0.97990197312E+03 0.  0.
         23    2    4    4    0    0  0.91736758401E+03  0.42157528703E+03 -0.70248181795E+03  0.12332481446E+04  0.90173581534E+02 0.  0.
         23    2    4    4    0    0 -0.97729401672E+02 -0.24659823037E+02 -0.67082675571E+03  0.68391980602E+03  0.87055281655E+02 0.  0.
          2    1    3    3  502    0 -0.82065232183E+03 -0.39725524378E+03 -0.47930517164E+02  0.91300563882E+03  0.00000000000E+00 0. -1.
         -1    1    3    3    0  502  0.10141394912E+01  0.33977978620E+00 -0.32149142075E+01  0.33881562202E+01  0.00000000000E+00 0.  1.
         13    1    5    5    0    0  0.42641114036E+03  0.21982010841E+03 -0.38161819395E+03  0.61300879818E+03  0.00000000000E+00 0.  1.
        -13    1    5    5    0    0  0.49095644365E+03  0.20175517861E+03 -0.32086362400E+03  0.62023934643E+03  0.00000000000E+00 0. -1.
          2    1    6    6  503    0  0.83586567681E+01  0.17207017820E+02 -0.94769790219E+02  0.96681237805E+02  0.00000000000E+00 0. -1.
         -2    1    6    6    0  503 -0.10608805844E+03 -0.41866840858E+02 -0.57605696549E+03  0.58723856821E+03  0.00000000000E+00 0.  1.
<mgrwt>
<rscale>  0 0.24494903E+04</rscale>
<asrwt>0</asrwt>
<pdfrwt beam="1">  1        2 0.10839290E+00 0.24494903E+04</pdfrwt>
<pdfrwt beam="2">  1       -1 0.32753967E+00 0.24494903E+04</pdfrwt>
<totfact> 0.90738766E-01</totfact>
</mgrwt>
</event>
<event>
12    7  0.1857704E-007  0.2731433E+04  0.7818608E-02  0.8324878E-01
         -1   -1    0    0    0  501 -0.00000000000E+00  0.00000000000E+00  0.10935860258E+04  0.10935860258E+04  0.00000000000E+00 0.  1.
          2   -1    0    0  501    0  0.00000000000E+00 -0.00000000000E+00 -0.17055645324E+04  0.17055645324E+04  0.00000000000E+00 0. -1.
         24    2    1    2    0    0 -0.32554981751E+03 -0.38912763475E+02  0.92741294800E+03  0.98678594176E+03  0.78452736675E+02 0.  0.
        254    2    1    2    0    0  0.32554981751E+03  0.38912763475E+02 -0.15393914546E+04  0.18123646165E+04  0.89857807980E+03 0.  0.
         23    2    4    4    0    0 -0.26560806102E+03 -0.11885005512E+03 -0.30383853670E+03  0.43042677145E+03  0.90974565181E+02 0.  0.
         23    2    4    4    0    0  0.59115787853E+03  0.15776281860E+03 -0.12355529179E+04  0.13819378450E+04  0.93832031588E+02 0.  0.
          2    1    3    3  502    0 -0.12579616388E+03  0.21636970357E+02  0.38435719296E+03  0.40499788285E+03  0.00000000000E+00 0. -1.
         -1    1    3    3    0  502 -0.19975365364E+03 -0.60549733832E+02  0.54305575504E+03  0.58178805891E+03  0.00000000000E+00 0.  1.
         13    1    5    5    0    0 -0.16450789179E+03 -0.44578212334E+02 -0.22497503468E+03  0.28224781612E+03  0.00000000000E+00 0.  1.
        -13    1    5    5    0    0 -0.10110016923E+03 -0.74271842789E+02 -0.78863502023E+02  0.14817895532E+03  0.00000000000E+00 0. -1.
          3    1    6    6  503    0  0.19310685441E+03  0.41308594302E+02 -0.49888007013E+03  0.53654261859E+03  0.00000000000E+00 0. -1.
         -3    1    6    6    0  503  0.39805102412E+03  0.11645422430E+03 -0.73667284781E+03  0.84539522642E+03  0.00000000000E+00 0.  1.
<mgrwt>
<rscale>  0 0.27314330E+04</rscale>
<asrwt>0</asrwt>
<pdfrwt beam="1">  1        2 0.26239454E+00 0.27314330E+04</pdfrwt>
<pdfrwt beam="2">  1       -1 0.16824400E+00 0.27314330E+04</pdfrwt>
<totfact> 0.24589920E+00</totfact>
</mgrwt>
</event>
<event>
12    7  0.1857704E-007  0.1443855E+04  0.7818608E-02  0.8922672E-01
          2   -1    0    0  501    0  0.00000000000E+00  0.00000000000E+00  0.69370962896E+03  0.69370962896E+03  0.00000000000E+00 0. -1.
         -1   -1    0    0    0  501 -0.00000000000E+00 -0.00000000000E+00 -0.75129354337E+03  0.75129354337E+03  0.00000000000E+00 0.  1.
         24    2    1    2    0    0  0.15971008040E+03 -0.39410722040E+03 -0.23303562269E+02  0.43336655135E+03  0.80222820081E+02 0.  0.
        254    2    1    2    0    0 -0.15971008040E+03  0.39410722040E+03 -0.34280352138E+02  0.10116366210E+04  0.91728169034E+03 0.  0.
         23    2    4    4    0    0  0.21672309369E+03  0.47985855075E+03 -0.21527041356E+03  0.57588802519E+03  0.89847306829E+02 0.  0.
         23    2    4    4    0    0 -0.37643317409E+03 -0.85751330350E+02  0.18099006142E+03  0.43574859579E+03  0.89800953185E+02 0.  0.
          4    1    3    3  502    0  0.16355774348E+03 -0.35363803388E+03 -0.34633464747E+02  0.39116552933E+03  0.00000000000E+00 0. -1.
         -3    1    3    3    0  502 -0.38476630859E+01 -0.40469186522E+02  0.11329902478E+02  0.42201022015E+02  0.00000000000E+00 0.  1.
         13    1    5    5    0    0  0.15490585631E+03  0.30929266331E+03 -0.96780595624E+02  0.35919947047E+03  0.00000000000E+00 0.  1.
        -13    1    5    5    0    0  0.61817237385E+02  0.17056588743E+03 -0.11848981793E+03  0.21668855472E+03  0.00000000000E+00 0. -1.
          1    1    6    6  503    0 -0.20797546859E+03 -0.34705187043E+02  0.14551064881E+03  0.25618663989E+03  0.00000000000E+00 0. -1.
         -1    1    6    6    0  503 -0.16845770549E+03 -0.51046143307E+02  0.35479412612E+02  0.17956195590E+03  0.00000000000E+00 0.  1.
<mgrwt>
<rscale>  0 0.14438553E+04</rscale>
<asrwt>0</asrwt>
<pdfrwt beam="1">  1        2 0.10672456E+00 0.14438553E+04</pdfrwt>
<pdfrwt beam="2">  1       -1 0.11558362E+00 0.14438553E+04</pdfrwt>
<totfact> 0.31155424E+01</totfact>
</mgrwt>
</event>
<event>
12    7  0.1857704E-007  0.1384377E+04  0.7818608E-02  0.8965206E-01
         -1   -1    0    0    0  501 -0.00000000000E+00  0.00000000000E+00  0.29074513737E+03  0.29074513737E+03  0.00000000000E+00 0.  1.
          2   -1    0    0  501    0  0.00000000000E+00 -0.00000000000E+00 -0.16479203012E+04  0.16479203012E+04  0.00000000000E+00 0. -1.
         24    2    1    2    0    0 -0.19562301280E+03 -0.12512415272E+03 -0.83900823782E+03  0.87415775289E+03  0.79325513416E+02 0.  0.
        254    2    1    2    0    0  0.19562301280E+03  0.12512415272E+03 -0.51816692604E+03  0.10645076857E+04  0.90041947612E+03 0.  0.
         23    2    4    4    0    0  0.43383242845E+02 -0.29974598853E+03  0.64045046146E+02  0.32265940508E+03  0.90981098852E+02 0.  0.
         23    2    4    4    0    0  0.15223976996E+03  0.42487014125E+03 -0.58221197218E+03  0.74184828064E+03  0.87615674642E+02 0.  0.
          2    1    3    3  502    0 -0.18526590808E+03 -0.87199850367E+02 -0.73422097235E+03  0.76223861543E+03  0.00000000000E+00 0. -1.
         -1    1    3    3    0  502 -0.10357104717E+02 -0.37924302353E+02 -0.10478726546E+03  0.11191913746E+03  0.00000000000E+00 0.  1.
         13    1    5    5    0    0  0.14260268309E+02 -0.24778925558E+03  0.80393091914E+02  0.26089446077E+03  0.00000000000E+00 0.  1.
        -13    1    5    5    0    0  0.29122974535E+02 -0.51956732954E+02 -0.16348045768E+02  0.61764944308E+02  0.00000000000E+00 0. -1.
          4    1    6    6  503    0  0.95886084841E+02  0.14543841402E+03 -0.20440893411E+03  0.26856933161E+03  0.00000000000E+00 0. -1.
         -4    1    6    6    0  503  0.56353685115E+02  0.27943172724E+03 -0.37780303807E+03  0.47327894902E+03  0.00000000000E+00 0.  1.
<mgrwt>
<rscale>  0 0.13843768E+04</rscale>
<asrwt>0</asrwt>
<pdfrwt beam="1">  1        2 0.25352620E+00 0.13843768E+04</pdfrwt>
<pdfrwt beam="2">  1       -1 0.44730021E-01 0.13843768E+04</pdfrwt>
<totfact> 0.57643400E+01</totfact>
</mgrwt>
</event>
<event>
12    7  0.1857704E-007  0.1872654E+04  0.7818608E-02  0.8668589E-01
         -1   -1    0    0    0  501 -0.00000000000E+00  0.00000000000E+00  0.20692294170E+03  0.20692294170E+03  0.00000000000E+00 0.  1.
          2   -1    0    0  501    0  0.00000000000E+00 -0.00000000000E+00 -0.42368838309E+04  0.42368838309E+04  0.00000000000E+00 0. -1.
         24    2    1    2    0    0 -0.37855350109E+03  0.58154434227E+03 -0.19803818320E+04  0.20999862375E+04  0.80829585354E+02 0.  0.
        254    2    1    2    0    0  0.37855350109E+03 -0.58154434227E+03 -0.20495790572E+04  0.23438205351E+04  0.90067963999E+03 0.  0.
         23    2    4    4    0    0  0.15497211636E+03 -0.75006642269E+03 -0.17977989384E+04  0.19563374238E+04  0.92515392124E+02 0.  0.
         23    2    4    4    0    0  0.22358138473E+03  0.16852208042E+03 -0.25178011882E+03  0.38748311128E+03  0.91441818141E+02 0.  0.
          2    1    3    3  502    0 -0.24491162654E+01 -0.27327469702E+01 -0.85871758032E+01  0.93383973336E+01  0.00000000000E+00 0. -1.
         -1    1    3    3    0  502 -0.37610438483E+03  0.58427708924E+03 -0.19717946562E+04  0.20906478401E+04  0.00000000000E+00 0.  1.
         13    1    5    5    0    0 -0.85566553943E+01 -0.24411151793E+02 -0.40098733528E+02  0.47718226224E+02  0.00000000000E+00 0.  1.
        -13    1    5    5    0    0  0.16352877175E+03 -0.72565527089E+03 -0.17577002048E+04  0.19086191976E+04  0.00000000000E+00 0. -1.
          1    1    6    6  503    0  0.17810921623E+03  0.15921820304E+03 -0.24198967605E+03  0.34004754432E+03  0.00000000000E+00 0. -1.
         -1    1    6    6    0  503  0.45472168504E+02  0.93038773740E+01 -0.97904427715E+01  0.47435566955E+02  0.00000000000E+00 0.  1.
<mgrwt>
<rscale>  0 0.18726542E+04</rscale>
<asrwt>0</asrwt>
<pdfrwt beam="1">  1        2 0.65182834E+00 0.18726542E+04</pdfrwt>
<pdfrwt beam="2">  1       -1 0.31834296E-01 0.18726542E+04</pdfrwt>
<totfact> 0.21543946E+00</totfact>
</mgrwt>
</event>
<event>
12    7  0.5118187E-007  0.2024266E+04  0.7818608E-02  0.8595359E-01
         -1   -1    0    0    0  501 -0.00000000000E+00  0.00000000000E+00  0.84292140418E+03  0.84292140418E+03  0.00000000000E+00 0.  1.
          2   -1    0    0  501    0  0.00000000000E+00 -0.00000000000E+00 -0.12153123388E+04  0.12153123388E+04  0.00000000000E+00 0. -1.
         24    2    1    2    0    0 -0.97428541512E+02 -0.17179859206E+03  0.64665437746E+03  0.68270572795E+03  0.94435957941E+02 0.  0.
        254    2    1    2    0    0  0.97428541512E+02  0.17179859206E+03 -0.10190453121E+04  0.13755280151E+04  0.90256129718E+03 0.  0.
         23    2    4    4    0    0 -0.15804326214E+03 -0.21293736363E+03 -0.32899014309E+02  0.28281657550E+03  0.92643816283E+02 0.  0.
         23    2    4    4    0    0  0.25547180365E+03  0.38473595569E+03 -0.98614629782E+03  0.10927114396E+04  0.90808432652E+02 0.  0.
          4    1    3    3  502    0 -0.16278155581E+01 -0.22293958055E+02  0.15892076010E+02  0.27426783062E+02  0.00000000000E+00 0. -1.
         -3    1    3    3    0  502 -0.95800725954E+02 -0.14950463400E+03  0.63076230145E+03  0.65527894488E+03  0.00000000000E+00 0.  1.
         13    1    5    5    0    0 -0.31941643752E+00 -0.72513547512E+01  0.17337233570E+02  0.18795314321E+02  0.00000000000E+00 0.  1.
        -13    1    5    5    0    0 -0.15772384570E+03 -0.20568600888E+03 -0.50236247878E+02  0.26402126118E+03  0.00000000000E+00 0. -1.
          4    1    6    6  503    0 -0.65585944915E+01  0.16311799813E+02 -0.25213817461E+02  0.30738031261E+02  0.00000000000E+00 0.  1.
         -4    1    6    6    0  503  0.26203039814E+03  0.36842415587E+03 -0.96093248035E+03  0.10619734083E+04  0.00000000000E+00 0. -1.
<mgrwt>
<rscale>  0 0.20242656E+04</rscale>
<asrwt>0</asrwt>
<pdfrwt beam="1">  1        2 0.18697113E+00 0.20242656E+04</pdfrwt>
<pdfrwt beam="2">  1       -1 0.12968022E+00 0.20242656E+04</pdfrwt>
<totfact> 0.10005958E+01</totfact>
</mgrwt>
</event>
<event>
12    7  0.1857704E-007  0.4086870E+04  0.7818608E-02  0.7987248E-01
         -1   -1    0    0    0  501 -0.00000000000E+00  0.00000000000E+00  0.98264102784E+03  0.98264102784E+03  0.00000000000E+00 0.  1.
          2   -1    0    0  501    0  0.00000000000E+00 -0.00000000000E+00 -0.42493926970E+04  0.42493926970E+04  0.00000000000E+00 0. -1.
         24    2    1    2    0    0  0.65878859615E+03  0.13914279099E+04 -0.35263806985E+02  0.15419954700E+04  0.80202559825E+02 0.  0.
        254    2    1    2    0    0 -0.65878859615E+03 -0.13914279099E+04 -0.32314878622E+04  0.36900382548E+04  0.89654585797E+03 0.  0.
         23    2    4    4    0    0 -0.29619161282E+03 -0.26917654276E+03 -0.24460455349E+03  0.47742866585E+03  0.89001464656E+02 0.  0.
         23    2    4    4    0    0 -0.36259698333E+03 -0.11222513672E+04 -0.29868833087E+04  0.32126095889E+04  0.91998737842E+02 0.  0.
          4    1    3    3  502    0  0.55006366384E+02  0.16272026666E+03 -0.19435677339E+02  0.17286217365E+03  0.00000000000E+00 0. -1.
         -3    1    3    3    0  502  0.60378222977E+03  0.12287076433E+04 -0.15828129646E+02  0.13691332964E+04  0.00000000000E+00 0.  1.
         13    1    5    5    0    0 -0.11198396528E+03 -0.47600863164E+02 -0.66186108759E+02  0.13851661145E+03  0.00000000000E+00 0. -1.
        -13    1    5    5    0    0 -0.18420764754E+03 -0.22157567960E+03 -0.17841844473E+03  0.33891205440E+03  0.00000000000E+00 0.  1.
          3    1    6    6  503    0 -0.33373209496E+03 -0.10146327833E+04 -0.26258701047E+04  0.28347928677E+04  0.00000000000E+00 0. -1.
         -3    1    6    6    0  503 -0.28864888367E+02 -0.10761858392E+03 -0.36101320396E+03  0.37781672120E+03  0.00000000000E+00 0.  1.
<mgrwt>
<rscale>  0 0.40868705E+04</rscale>
<asrwt>0</asrwt>
<pdfrwt beam="1">  1        2 0.65375272E+00 0.40868705E+04</pdfrwt>
<pdfrwt beam="2">  1       -1 0.15117554E+00 0.40868705E+04</pdfrwt>
<totfact> 0.63539099E-02</totfact>
</mgrwt>
</event>
<event>
12    7  0.1857704E-007  0.2276127E+04  0.7818608E-02  0.8487394E-01
          2   -1    0    0  501    0  0.00000000000E+00  0.00000000000E+00  0.32773656477E+04  0.32773656477E+04  0.00000000000E+00 0. -1.
         -1   -1    0    0    0  501 -0.00000000000E+00 -0.00000000000E+00 -0.39519178936E+03  0.39519178936E+03  0.00000000000E+00 0.  1.
         24    2    1    2    0    0  0.43241110725E+03  0.78124242557E+03  0.17697945760E+04  0.19838468878E+04  0.78463621590E+02 0.  0.
        254    2    1    2    0    0 -0.43241110725E+03 -0.78124242557E+03  0.11123792824E+04  0.16887105492E+04  0.90390074572E+03 0.  0.
         23    2    4    4    0    0 -0.20987943855E+03 -0.43836994444E+03 -0.60610334861E+01  0.49456951364E+03  0.91349224300E+02 0.  0.
         23    2    4    4    0    0 -0.22253166870E+03 -0.34287248113E+03  0.11184403158E+04  0.11941410356E+04  0.89343107788E+02 0.  0.
          4    1    3    3  502    0  0.30658377063E+03  0.62163923645E+03  0.13680040611E+04  0.15335788404E+04  0.00000000000E+00 0. -1.
         -3    1    3    3    0  502  0.12582733662E+03  0.15960318911E+03  0.40179051490E+03  0.45026804737E+03  0.00000000000E+00 0.  1.
         13    1    5    5    0    0 -0.83944970778E+02 -0.26492787244E+03 -0.26955802474E+02  0.27921345061E+03  0.00000000000E+00 0.  1.
        -13    1    5    5    0    0 -0.12593446777E+03 -0.17344207201E+03  0.20894768988E+02  0.21535606303E+03  0.00000000000E+00 0. -1.
          1    1    6    6  503    0 -0.12552338691E+01 -0.33972894969E+02  0.52949793317E+02  0.62923873188E+02  0.00000000000E+00 0. -1.
         -1    1    6    6    0  503 -0.22127643483E+03 -0.30889958616E+03  0.10654905225E+04  0.11312171624E+04  0.00000000000E+00 0.  1.
<mgrwt>
<rscale>  0 0.22761265E+04</rscale>
<asrwt>0</asrwt>
<pdfrwt beam="1">  1        2 0.50421008E+00 0.22761265E+04</pdfrwt>
<pdfrwt beam="2">  1       -1 0.60798739E-01 0.22761265E+04</pdfrwt>
<totfact> 0.32757735E+00</totfact>
</mgrwt>
</event>
<event>
12    7  0.1857704E-007  0.2139991E+04  0.7818608E-02  0.8543829E-01
          2   -1    0    0  501    0  0.00000000000E+00  0.00000000000E+00  0.12518501713E+04  0.12518501713E+04  0.00000000000E+00 0. -1.
         -1   -1    0    0    0  501 -0.00000000000E+00 -0.00000000000E+00 -0.91455860786E+03  0.91455860786E+03  0.00000000000E+00 0.  1.
         24    2    1    2    0    0 -0.50915104489E+03  0.54673764032E+03  0.58796544563E+03  0.95405274695E+03  0.79727315638E+02 0.  0.
        254    2    1    2    0    0  0.50915104489E+03 -0.54673764032E+03 -0.25067388223E+03  0.12123560322E+04  0.92131043610E+03 0.  0.
         23    2    4    4    0    0  0.21410540766E+03 -0.71818103826E+03 -0.36646005481E+03  0.83925514221E+03  0.91820981558E+02 0.  0.
         23    2    4    4    0    0  0.29504563723E+03  0.17144339794E+03  0.11578617258E+03  0.37310088997E+03  0.96711269164E+02 0.  0.
          2    1    3    3  502    0 -0.39831582512E+03  0.42834942181E+03  0.41662026045E+03  0.71813032600E+03  0.00000000000E+00 0. -1.
         -1    1    3    3    0  502 -0.11083521977E+03  0.11838821851E+03  0.17134518518E+03  0.23592242095E+03  0.00000000000E+00 0.  1.
         13    1    5    5    0    0  0.20978552174E+03 -0.62191889848E+03 -0.29669661761E+03  0.72029297117E+03  0.00000000000E+00 0.  1.
        -13    1    5    5    0    0  0.43198859235E+01 -0.96262139781E+02 -0.69763437193E+02  0.11896217104E+03  0.00000000000E+00 0. -1.
          3    1    6    6  503    0  0.12872898567E+03  0.81336498363E+02  0.10233790805E+03  0.18346614168E+03  0.00000000000E+00 0. -1.
         -3    1    6    6    0  503  0.16631665156E+03  0.90106899581E+02  0.13448264529E+02  0.18963474829E+03  0.00000000000E+00 0.  1.
<mgrwt>
<rscale>  0 0.21399910E+04</rscale>
<asrwt>0</asrwt>
<pdfrwt beam="1">  1        2 0.19259233E+00 0.21399910E+04</pdfrwt>
<pdfrwt beam="2">  1       -1 0.14070132E+00 0.21399910E+04</pdfrwt>
<totfact> 0.76430926E+00</totfact>
</mgrwt>
</event>
<event>
12    7  0.1857704E-007  0.1675761E+04  0.7818608E-02  0.8775311E-01
         -1   -1    0    0    0  501 -0.00000000000E+00  0.00000000000E+00  0.38858788229E+03  0.38858788229E+03  0.00000000000E+00 0.  1.
          2   -1    0    0  501    0  0.00000000000E+00 -0.00000000000E+00 -0.18066526972E+04  0.18066526972E+04  0.00000000000E+00 0. -1.
         24    2    1    2    0    0  0.22787030682E+03  0.17873407538E+03  0.17331993093E+03  0.34730205095E+03  0.81903416926E+02 0.  0.
        254    2    1    2    0    0 -0.22787030682E+03 -0.17873407538E+03 -0.15913847459E+04  0.18479385286E+04  0.89358863555E+03 0.  0.
         23    2    4    4    0    0 -0.85493611268E+02 -0.28472685667E+03 -0.16161252419E+04  0.16458512671E+04  0.92666367283E+02 0.  0.
         23    2    4    4    0    0 -0.14237669555E+03  0.10599278129E+03  0.24740496032E+02  0.20208726142E+03  0.93389378214E+02 0.  0.
          2    1    3    3  502    0  0.49210294298E+02  0.90302521717E+01  0.82440228742E+01  0.50706631049E+02  0.00000000000E+00 0. -1.
         -1    1    3    3    0  502  0.17866001252E+03  0.16970382321E+03  0.16507590805E+03  0.29659541990E+03  0.00000000000E+00 0.  1.
         13    1    5    5    0    0 -0.54475875587E+02 -0.26661824295E+03 -0.14928694127E+04  0.15174689426E+04  0.00000000000E+00 0.  1.
        -13    1    5    5    0    0 -0.31017735681E+02 -0.18108613719E+02 -0.12325582919E+03  0.12838232451E+03  0.00000000000E+00 0. -1.
          3    1    6    6  503    0 -0.27986643505E+02  0.37248305083E+02  0.47689968395E+02  0.66670994681E+02  0.00000000000E+00 0. -1.
         -3    1    6    6    0  503 -0.11439005205E+03  0.68744476205E+02 -0.22949472363E+02  0.13541626674E+03  0.00000000000E+00 0.  1.
<mgrwt>
<rscale>  0 0.16757605E+04</rscale>
<asrwt>0</asrwt>
<pdfrwt beam="1">  1        2 0.27794657E+00 0.16757605E+04</pdfrwt>
<pdfrwt beam="2">  1       -1 0.59782751E-01 0.16757605E+04</pdfrwt>
<totfact> 0.26356705E+01</totfact>
</mgrwt>
</event>
<event>
12    7  0.1857704E-007  0.1428324E+04  0.7818608E-02  0.8933568E-01
         -1   -1    0    0    0  501 -0.00000000000E+00  0.00000000000E+00  0.59238794839E+03  0.59238794839E+03  0.00000000000E+00 0.  1.
          2   -1    0    0  501    0  0.00000000000E+00 -0.00000000000E+00 -0.86096824505E+03  0.86096824505E+03  0.00000000000E+00 0. -1.
         24    2    1    2    0    0  0.16197124946E+02  0.35345033309E+03 -0.32343131753E+03  0.48576317743E+03  0.78540197163E+02 0.  0.
        254    2    1    2    0    0 -0.16197124946E+02 -0.35345033309E+03  0.54851020870E+02  0.96759301600E+03  0.89890940885E+03 0.  0.
         23    2    4    4    0    0  0.76451126591E+02 -0.60760274266E+03  0.19686154180E+03  0.64844545865E+03  0.81860726625E+02 0.  0.
         23    2    4    4    0    0 -0.92648251537E+02  0.25415240957E+03 -0.14201052093E+03  0.31914755735E+03  0.92255241086E+02 0.  0.
          4    1    3    3  502    0  0.14552401570E+02  0.19930864083E+02 -0.61535074382E+01  0.25433784389E+02  0.00000000000E+00 0. -1.
         -3    1    3    3    0  502  0.16447233767E+01  0.33351946901E+03 -0.31727781010E+03  0.46032939305E+03  0.00000000000E+00 0.  1.
         13    1    5    5    0    0  0.77722299488E+02 -0.29837125523E+03  0.88552284946E+02  0.32079225202E+03  0.00000000000E+00 0. -1.
        -13    1    5    5    0    0 -0.12711728974E+01 -0.30923148743E+03  0.10830925685E+03  0.32765320664E+03  0.00000000000E+00 0.  1.
          3    1    6    6  503    0 -0.43938736584E+02  0.25758226984E+02 -0.37767122069E+02  0.63407052757E+02  0.00000000000E+00 0. -1.
         -3    1    6    6    0  503 -0.48709514953E+02  0.22839418258E+03 -0.10424339886E+03  0.25574050460E+03  0.00000000000E+00 0.  1.
<mgrwt>
<rscale>  0 0.14283238E+04</rscale>
<asrwt>0</asrwt>
<pdfrwt beam="1">  1        2 0.13245665E+00 0.14283238E+04</pdfrwt>
<pdfrwt beam="2">  1       -1 0.91136608E-01 0.14283238E+04</pdfrwt>
<totfact> 0.40635251E+01</totfact>
</mgrwt>
</event>
<event>
12    7  0.1857704E-007  0.1456330E+04  0.7818608E-02  0.8914024E-01
         -1   -1    0    0    0  501 -0.00000000000E+00  0.00000000000E+00  0.35433979423E+03  0.35433979423E+03  0.00000000000E+00 0.  1.
          2   -1    0    0  501    0  0.00000000000E+00 -0.00000000000E+00 -0.14963715897E+04  0.14963715897E+04  0.00000000000E+00 0. -1.
         24    2    1    2    0    0 -0.22806509165E+03 -0.60600202320E+02 -0.81752143991E+03  0.85459162343E+03  0.79369185339E+02 0.  0.
        254    2    1    2    0    0  0.22806509165E+03  0.60600202320E+02 -0.32451035561E+03  0.99611976054E+03  0.91173545280E+03 0.  0.
         23    2    4    4    0    0  0.40606368016E+03 -0.45603347280E+01 -0.54848987588E+03  0.68845515088E+03  0.90668858149E+02 0.  0.
         23    2    4    4    0    0 -0.17799858851E+03  0.65160537048E+02  0.22397952027E+03  0.30766460965E+03  0.92527257777E+02 0.  0.
          2    1    3    3  502    0 -0.16748537876E+03 -0.63586785153E+01 -0.55831315105E+03  0.58292826276E+03  0.00000000000E+00 0. -1.
         -1    1    3    3    0  502 -0.60579712892E+02 -0.54241523805E+02 -0.25920828886E+03  0.27166336067E+03  0.00000000000E+00 0.  1.
         13    1    5    5    0    0  0.12832968953E+03  0.34601043636E+02 -0.21417916680E+03  0.25206835764E+03  0.00000000000E+00 0.  1.
        -13    1    5    5    0    0  0.27773399063E+03 -0.39161378364E+02 -0.33431070908E+03  0.43638679324E+03  0.00000000000E+00 0. -1.
          4    1    6    6  503    0 -0.15343323455E+03  0.71811580258E+02  0.13955125222E+03  0.21948396870E+03  0.00000000000E+00 0. -1.
         -4    1    6    6    0  503 -0.24565353960E+02 -0.66510432103E+01  0.84428268058E+02  0.88180640949E+02  0.00000000000E+00 0.  1.
<mgrwt>
<rscale>  0 0.14563296E+04</rscale>
<asrwt>0</asrwt>
<pdfrwt beam="1">  1        2 0.23021101E+00 0.14563296E+04</pdfrwt>
<pdfrwt beam="2">  1       -1 0.54513815E-01 0.14563296E+04</pdfrwt>
<totfact> 0.47881555E+01</totfact>
</mgrwt>
</event>
<event>
12    7  0.1857704E-007  0.2497424E+04  0.7818608E-02  0.8403904E-01
          2   -1    0    0  501    0  0.00000000000E+00  0.00000000000E+00  0.16053333973E+04  0.16053333973E+04  0.00000000000E+00 0. -1.
         -1   -1    0    0    0  501 -0.00000000000E+00 -0.00000000000E+00 -0.97131305639E+03  0.97131305639E+03  0.00000000000E+00 0.  1.
         24    2    1    2    0    0 -0.47296547486E+03 -0.33050232373E+03  0.12264223763E+04  0.13575174406E+04  0.76247165082E+02 0.  0.
        254    2    1    2    0    0  0.47296547486E+03  0.33050232373E+03 -0.59240203531E+03  0.12191290131E+04  0.89577187541E+03 0.  0.
         23    2    4    4    0    0  0.54805411066E+03 -0.10353072547E+03 -0.50949549226E+03  0.76127619951E+03  0.94201252486E+02 0.  0.
         23    2    4    4    0    0 -0.75088635803E+02  0.43403304921E+03 -0.82906543055E+02  0.45785281361E+03  0.93448986183E+02 0.  0.
          4    1    3    3  502    0 -0.37711771994E+03 -0.27987888287E+03  0.92896400821E+03  0.10409246334E+04  0.00000000000E+00 0. -1.
         -3    1    3    3    0  502 -0.95847754922E+02 -0.50623440861E+02  0.29745836806E+03  0.31659280728E+03  0.00000000000E+00 0.  1.
         13    1    5    5    0    0  0.51231750484E+03 -0.76590501919E+02 -0.48781869910E+03  0.71154930535E+03  0.00000000000E+00 0.  1.
        -13    1    5    5    0    0  0.35736605820E+02 -0.26940223554E+02 -0.21676793158E+02  0.49726894155E+02  0.00000000000E+00 0. -1.
          2    1    6    6  503    0 -0.41798021889E+02  0.39991359679E+03 -0.67244264807E+02  0.40767603643E+03  0.00000000000E+00 0. -1.
         -2    1    6    6    0  503 -0.33290613913E+02  0.34119452414E+02 -0.15662278248E+02  0.50176777175E+02  0.00000000000E+00 0.  1.
<mgrwt>
<rscale>  0 0.24974237E+04</rscale>
<asrwt>0</asrwt>
<pdfrwt beam="1">  1        2 0.24697437E+00 0.24974237E+04</pdfrwt>
<pdfrwt beam="2">  1       -1 0.14943278E+00 0.24974237E+04</pdfrwt>
<totfact> 0.39658981E+00</totfact>
</mgrwt>
</event>
<event>
12    7  0.1857704E-007  0.1354668E+04  0.7818608E-02  0.8987302E-01
          2   -1    0    0  501    0  0.00000000000E+00  0.00000000000E+00  0.70120664264E+03  0.70120664264E+03  0.00000000000E+00 0. -1.
         -1   -1    0    0    0  501 -0.00000000000E+00 -0.00000000000E+00 -0.65427392399E+03  0.65427392399E+03  0.00000000000E+00 0.  1.
         24    2    1    2    0    0 -0.98015958145E+02 -0.13145664701E+03 -0.33499041484E+03  0.38113366330E+03  0.78462176696E+02 0.  0.
        254    2    1    2    0    0  0.98015958145E+02  0.13145664701E+03  0.38192313349E+03  0.97434690333E+03  0.88124833619E+03 0.  0.
         23    2    4    4    0    0  0.25280220918E+03 -0.27089670654E+03 -0.14282964433E+02  0.38184249631E+03  0.91135647996E+02 0.  0.
         23    2    4    4    0    0 -0.15478625104E+03  0.40235335355E+03  0.39620609792E+03  0.59250440701E+03  0.90747978901E+02 0.  0.
          4    1    3    3  502    0 -0.34726208033E+02 -0.10935825183E+03 -0.21013038293E+03  0.23941577767E+03  0.00000000000E+00 0. -1.
         -3    1    3    3    0  502 -0.63289750112E+02 -0.22098395182E+02 -0.12486003191E+03  0.14171788563E+03  0.00000000000E+00 0.  1.
         13    1    5    5    0    0  0.25317991439E+03 -0.23468368083E+03 -0.15965054440E+02  0.34558845765E+03  0.00000000000E+00 0. -1.
        -13    1    5    5    0    0 -0.37770521177E+00 -0.36213025709E+02  0.16820900069E+01  0.36254038658E+02  0.00000000000E+00 0.  1.
          3    1    6    6  503    0 -0.13721780892E+03  0.38582657888E+03  0.34332021557E+03  0.53437781249E+03  0.00000000000E+00 0. -1.
         -3    1    6    6    0  503 -0.17568442112E+02  0.16526774668E+02  0.52885882347E+02  0.58126594523E+02  0.00000000000E+00 0.  1.
<mgrwt>
<rscale>  0 0.13546678E+04</rscale>
<asrwt>0</asrwt>
<pdfrwt beam="1">  1        2 0.10787795E+00 0.13546678E+04</pdfrwt>
<pdfrwt beam="2">  1       -1 0.10065753E+00 0.13546678E+04</pdfrwt>
<totfact> 0.42831533E+01</totfact>
</mgrwt>
</event>
<event>
12    7  0.1857704E-007  0.2313963E+04  0.7818608E-02  0.8472436E-01
          2   -1    0    0  501    0  0.00000000000E+00  0.00000000000E+00  0.80356309639E+03  0.80356309639E+03  0.00000000000E+00 0. -1.
         -1   -1    0    0    0  501 -0.00000000000E+00 -0.00000000000E+00 -0.16658384492E+04  0.16658384492E+04  0.00000000000E+00 0.  1.
         24    2    1    2    0    0  0.58246804076E+03 -0.22531034036E+03 -0.11718279218E+04  0.13301681168E+04  0.78312021025E+02 0.  0.
        254    2    1    2    0    0 -0.58246804076E+03  0.22531034036E+03  0.30955256900E+03  0.11392334288E+04  0.90110834215E+03 0.  0.
         23    2    4    4    0    0 -0.63225112694E+03 -0.14955653247E+03  0.35685656789E+03  0.74689561853E+03  0.91639571197E+02 0.  0.
         23    2    4    4    0    0  0.49783086180E+02  0.37486687283E+03 -0.47303998892E+02  0.39233781025E+03  0.93208159673E+02 0.  0.
          2    1    3    3  502    0  0.94467027596E+02 -0.30513675281E+02 -0.25187187964E+03  0.27072965747E+03  0.00000000000E+00 0. -1.
         -1    1    3    3    0  502  0.48800101316E+03 -0.19479666508E+03 -0.91995604214E+03  0.10594384593E+04  0.00000000000E+00 0.  1.
         13    1    5    5    0    0 -0.57098123665E+03 -0.10793876083E+03  0.32897659591E+03  0.66775440796E+03  0.00000000000E+00 0. -1.
        -13    1    5    5    0    0 -0.61269890288E+02 -0.41617771640E+02  0.27879971988E+02  0.79141210568E+02  0.00000000000E+00 0.  1.
          2    1    6    6  503    0  0.52425461240E+02  0.12369741758E+03 -0.43192628636E+02  0.14112081090E+03  0.00000000000E+00 0. -1.
         -2    1    6    6    0  503 -0.26423750596E+01  0.25116945525E+03 -0.41113702554E+01  0.25121699935E+03  0.00000000000E+00 0.  1.
<mgrwt>
<rscale>  0 0.23139631E+04</rscale>
<asrwt>0</asrwt>
<pdfrwt beam="1">  1        2 0.12362509E+00 0.23139631E+04</pdfrwt>
<pdfrwt beam="2">  1       -1 0.25628284E+00 0.23139631E+04</pdfrwt>
<totfact> 0.22441079E+00</totfact>
</mgrwt>
</event>
<event>
12    7  0.1857704E-007  0.1518483E+04  0.7818608E-02  0.8872254E-01
          2   -1    0    0  501    0  0.00000000000E+00  0.00000000000E+00  0.72298332609E+03  0.72298332609E+03  0.00000000000E+00 0. -1.
         -1   -1    0    0    0  501 -0.00000000000E+00 -0.00000000000E+00 -0.79731840997E+03  0.79731840997E+03  0.00000000000E+00 0.  1.
         24    2    1    2    0    0  0.35345653929E+02  0.32367131636E+03 -0.45605325166E+03  0.56363448256E+03  0.60719233266E+02 0.  0.
        254    2    1    2    0    0 -0.35345653929E+02 -0.32367131636E+03  0.38171816778E+03  0.95666725351E+03  0.81454959213E+03 0.  0.
         23    2    4    4    0    0 -0.72729859899E+02 -0.37512198689E+01  0.56316142104E+03  0.57512170189E+03  0.91161843266E+02 0.  0.
         23    2    4    4    0    0  0.37384205970E+02 -0.31992009649E+03 -0.18144325326E+03  0.38154555162E+03  0.94387005522E+02 0.  0.
          2    1    3    3  502    0 -0.11451576629E+01  0.44883349856E+01 -0.28288783501E+02  0.28665516025E+02  0.00000000000E+00 0. -1.
         -1    1    3    3    0  502  0.36490811592E+02  0.31918298138E+03 -0.42776446816E+03  0.53496896653E+03  0.00000000000E+00 0.  1.
         13    1    5    5    0    0 -0.72283443956E+02  0.33000872702E+02  0.40808927506E+03  0.41575330460E+03  0.00000000000E+00 0.  1.
        -13    1    5    5    0    0 -0.44641594227E+00 -0.36752092571E+02  0.15507214598E+03  0.15936839729E+03  0.00000000000E+00 0. -1.
          2    1    6    6  503    0 -0.30627003531E+02 -0.13886557394E+03 -0.74286515799E+02  0.16043736286E+03  0.00000000000E+00 0. -1.
         -2    1    6    6    0  503  0.68011209501E+02 -0.18105452255E+03 -0.10715673746E+03  0.22110818876E+03  0.00000000000E+00 0.  1.
<mgrwt>
<rscale>  0 0.15184833E+04</rscale>
<asrwt>0</asrwt>
<pdfrwt beam="1">  1        2 0.11122820E+00 0.15184833E+04</pdfrwt>
<pdfrwt beam="2">  1       -1 0.12266437E+00 0.15184833E+04</pdfrwt>
<totfact> 0.25416243E+01</totfact>
</mgrwt>
</event>
<event>
12    7  0.1857704E-007  0.1079206E+04  0.7818608E-02  0.9225700E-01
          2   -1    0    0  501    0  0.00000000000E+00  0.00000000000E+00  0.13246648131E+04  0.13246648131E+04  0.00000000000E+00 0. -1.
         -1   -1    0    0    0  501 -0.00000000000E+00 -0.00000000000E+00 -0.21980742722E+03  0.21980742722E+03  0.00000000000E+00 0.  1.
         24    2    1    2    0    0  0.13952528747E+02  0.24111380842E+02  0.37438563143E+03  0.38393053623E+03  0.80386714617E+02 0.  0.
        254    2    1    2    0    0 -0.13952528747E+02 -0.24111380842E+02  0.73047175446E+03  0.11605417041E+04  0.90138339851E+03 0.  0.
         23    2    4    4    0    0 -0.98990122362E+02 -0.43571577789E+03  0.48142660207E+03  0.66298639633E+03  0.90178185369E+02 0.  0.
         23    2    4    4    0    0  0.85037593616E+02  0.41160439705E+03  0.24904515239E+03  0.49755530775E+03  0.94277379841E+02 0.  0.
          4    1    3    3  502    0 -0.14880759827E+02  0.46121514019E+02  0.19693430848E+03  0.20280964703E+03  0.00000000000E+00 0. -1.
         -3    1    3    3    0  502  0.28833288573E+02 -0.22010133177E+02  0.17745132295E+03  0.18112088921E+03  0.00000000000E+00 0.  1.
         13    1    5    5    0    0  0.11712795749E+02 -0.13237295296E+03  0.13713302817E+03  0.19095878005E+03  0.00000000000E+00 0. -1.
        -13    1    5    5    0    0 -0.11070291811E+03 -0.30334282492E+03  0.34429357390E+03  0.47202761629E+03  0.00000000000E+00 0.  1.
          1    1    6    6  503    0  0.93280429036E+01  0.18467900866E+03  0.66011384949E+02  0.19634370773E+03  0.00000000000E+00 0. -1.
         -1    1    6    6    0  503  0.75709550712E+02  0.22692538839E+03  0.18303376744E+03  0.30121160002E+03  0.00000000000E+00 0.  1.
<mgrwt>
<rscale>  0 0.10792056E+04</rscale>
<asrwt>0</asrwt>
<pdfrwt beam="1">  1        2 0.20379458E+00 0.10792056E+04</pdfrwt>
<pdfrwt beam="2">  1       -1 0.33816528E-01 0.10792056E+04</pdfrwt>
<totfact> 0.14937538E+02</totfact>
</mgrwt>
</event>
<event>
12    7  0.1857704E-007  0.2507032E+04  0.7818608E-02  0.8400485E-01
          2   -1    0    0  501    0  0.00000000000E+00  0.00000000000E+00  0.14384758595E+04  0.14384758595E+04  0.00000000000E+00 0. -1.
         -1   -1    0    0    0  501 -0.00000000000E+00 -0.00000000000E+00 -0.10923382454E+04  0.10923382454E+04  0.00000000000E+00 0.  1.
         24    2    1    2    0    0 -0.33913189621E+03 -0.43218586987E+03 -0.80359726694E+03  0.97626795494E+03  0.74400828313E+02 0.  0.
        254    2    1    2    0    0  0.33913189621E+03  0.43218586987E+03  0.11497348811E+04  0.15545461500E+04  0.89046525277E+03 0.  0.
         23    2    4    4    0    0  0.36066632238E+03  0.67970455415E+03  0.77522991949E+03  0.10957978742E+04  0.87824119367E+02 0.  0.
         23    2    4    4    0    0 -0.21534426172E+02 -0.24751868428E+03  0.37450496160E+03  0.45874827577E+03  0.92015127474E+02 0.  0.
          4    1    3    3  502    0 -0.11911563722E+03 -0.20871691815E+03 -0.32905961886E+03  0.40746965497E+03  0.00000000000E+00 0. -1.
         -3    1    3    3    0  502 -0.22001625899E+03 -0.22346895172E+03 -0.47453764808E+03  0.56879829997E+03  0.00000000000E+00 0.  1.
         13    1    5    5    0    0  0.93884444083E+02  0.14730050799E+03  0.22644880118E+03  0.28599088805E+03  0.00000000000E+00 0.  1.
        -13    1    5    5    0    0  0.26678187830E+03  0.53240404616E+03  0.54878111832E+03  0.80980698613E+03  0.00000000000E+00 0. -1.
          3    1    6    6  503    0 -0.17745758770E+02 -0.23342161504E+02  0.10329427730E+02  0.31088028809E+02  0.00000000000E+00 0.  1.
         -3    1    6    6    0  503 -0.37886674015E+01 -0.22417652278E+03  0.36417553387E+03  0.42766024696E+03  0.00000000000E+00 0. -1.
<mgrwt>
<rscale>  0 0.25070319E+04</rscale>
<asrwt>0</asrwt>
<pdfrwt beam="1">  1        2 0.22130398E+00 0.25070319E+04</pdfrwt>
<pdfrwt beam="2">  1       -1 0.16805204E+00 0.25070319E+04</pdfrwt>
<totfact> 0.35528488E+00</totfact>
</mgrwt>
</event>
<event>
12    7  0.1857704E-007  0.1696739E+04  0.7818608E-02  0.8763226E-01
         -1   -1    0    0    0  501 -0.00000000000E+00  0.00000000000E+00  0.42382936656E+04  0.42382936656E+04  0.00000000000E+00 0.  1.
          2   -1    0    0  501    0  0.00000000000E+00 -0.00000000000E+00 -0.16981623860E+03  0.16981623860E+03  0.00000000000E+00 0. -1.
         24    2    1    2    0    0 -0.29211280466E+03  0.41422639102E+03  0.56325899360E+03  0.76191138549E+03  0.79591907963E+02 0.  0.
        254    2    1    2    0    0  0.29211280466E+03 -0.41422639102E+03  0.35052184334E+04  0.36461985187E+04  0.86677216054E+03 0.  0.
         23    2    4    4    0    0 -0.19308212250E+03 -0.10890773335E+03  0.22540181739E+04  0.22669338141E+04  0.96173741803E+02 0.  0.
         23    2    4    4    0    0  0.48519492716E+03 -0.30531865767E+03  0.12512002594E+04  0.13792647046E+04  0.90749303285E+02 0.  0.
          4    1    3    3  502    0 -0.25287736170E+03  0.37985305579E+03  0.47018529419E+03  0.65521715097E+03  0.00000000000E+00 0. -1.
         -3    1    3    3    0  502 -0.39235442961E+02  0.34373335229E+02  0.93073699408E+02  0.10669423452E+03  0.00000000000E+00 0.  1.
         13    1    5    5    0    0 -0.98728421565E+02 -0.10638560850E+03  0.12152918617E+04  0.12239279015E+04  0.00000000000E+00 0.  1.
        -13    1    5    5    0    0 -0.94353700936E+02 -0.25221248514E+01  0.10387263122E+04  0.10430059126E+04  0.00000000000E+00 0. -1.
          1    1    6    6  503    0  0.10749380418E+03 -0.51104361689E+02  0.34822570992E+03  0.36800505264E+03  0.00000000000E+00 0. -1.
         -1    1    6    6    0  503  0.37770112298E+03 -0.25421429598E+03  0.90297454953E+03  0.10112596520E+04  0.00000000000E+00 0.  1.
<mgrwt>
<rscale>  0 0.16967393E+04</rscale>
<asrwt>0</asrwt>
<pdfrwt beam="1">  1        2 0.26125579E-01 0.16967393E+04</pdfrwt>
<pdfrwt beam="2">  1       -1 0.65204510E+00 0.16967393E+04</pdfrwt>
<totfact> 0.64165887E-02</totfact>
</mgrwt>
</event>
<event>
12    7  0.1857704E-007  0.1926544E+04  0.7818608E-02  0.8641755E-01
         -1   -1    0    0    0  501 -0.00000000000E+00  0.00000000000E+00  0.24766217335E+03  0.24766217335E+03  0.00000000000E+00 0.  1.
          2   -1    0    0  501    0  0.00000000000E+00 -0.00000000000E+00 -0.37466087964E+04  0.37466087964E+04  0.00000000000E+00 0. -1.
         24    2    1    2    0    0 -0.59638925315E+03  0.45215670450E+03 -0.12947265133E+04  0.14975514090E+04  0.78852087239E+02 0.  0.
        254    2    1    2    0    0  0.59638925315E+03 -0.45215670450E+03 -0.22042201097E+04  0.24967195607E+04  0.90271614920E+03 0.  0.
         23    2    4    4    0    0  0.33257992194E+03  0.20099036496E+03 -0.43500307157E+03  0.59026755205E+03  0.90452083725E+02 0.  0.
         23    2    4    4    0    0  0.26380933122E+03 -0.65314706945E+03 -0.17692170382E+04  0.19064520087E+04  0.90740705550E+02 0.  0.
          4    1    3    3  502    0 -0.42250337377E+03  0.31927570982E+03 -0.84174751460E+03  0.99447722853E+03  0.00000000000E+00 0. -1.
         -3    1    3    3    0  502 -0.17388587938E+03  0.13288099468E+03 -0.45297899868E+03  0.50307418045E+03  0.00000000000E+00 0.  1.
         13    1    5    5    0    0  0.13986138529E+03  0.12438203309E+03 -0.16280811649E+03  0.24806970804E+03  0.00000000000E+00 0.  1.
        -13    1    5    5    0    0  0.19271853665E+03  0.76608331870E+02 -0.27219495508E+03  0.34219784401E+03  0.00000000000E+00 0. -1.
          4    1    6    6  503    0  0.13760568473E+03 -0.42793248197E+03 -0.10442771152E+04  0.11369152242E+04  0.00000000000E+00 0. -1.
         -4    1    6    6    0  503  0.12620364649E+03 -0.22521458749E+03 -0.72493992296E+03  0.76953678450E+03  0.00000000000E+00 0.  1.
<mgrwt>
<rscale>  0 0.19265443E+04</rscale>
<asrwt>0</asrwt>
<pdfrwt beam="1">  1        2 0.57640139E+00 0.19265443E+04</pdfrwt>
<pdfrwt beam="2">  1       -1 0.38101870E-01 0.19265443E+04</pdfrwt>
<totfact> 0.38501808E+00</totfact>
</mgrwt>
</event>
<event>
12    7  0.1857704E-007  0.1527221E+04  0.7818608E-02  0.8866550E-01
         -1   -1    0    0    0  501 -0.00000000000E+00  0.00000000000E+00  0.29688268003E+03  0.29688268003E+03  0.00000000000E+00 0.  1.
          2   -1    0    0  501    0  0.00000000000E+00 -0.00000000000E+00 -0.19640786305E+04  0.19640786305E+04  0.00000000000E+00 0. -1.
         24    2    1    2    0    0 -0.23630941985E+03 -0.43383496202E+03 -0.49319783272E+03  0.70292643839E+03  0.82501875246E+02 0.  0.
        254    2    1    2    0    0  0.23630941985E+03  0.43383496202E+03 -0.11739981177E+04  0.15580348721E+04  0.89729937375E+03 0.  0.
         23    2    4    4    0    0 -0.43243639869E+02 -0.17285210521E+03 -0.71724726171E+03  0.74467554541E+03  0.91379269189E+02 0.  0.
         23    2    4    4    0    0  0.27955305972E+03  0.60668706723E+03 -0.45675085602E+03  0.81335932671E+03  0.81932527903E+02 0.  0.
          4    1    3    3  502    0 -0.21244125423E+03 -0.38420693525E+03 -0.39612796251E+03  0.59132361552E+03  0.00000000000E+00 0. -1.
         -3    1    3    3    0  502 -0.23868165615E+02 -0.49628026771E+02 -0.97069870208E+02  0.11160282287E+03  0.00000000000E+00 0.  1.
         13    1    5    5    0    0  0.20586720715E+02 -0.15461721746E+02 -0.16200025258E+03  0.16403341045E+03  0.00000000000E+00 0.  1.
        -13    1    5    5    0    0 -0.63830360584E+02 -0.15739038347E+03 -0.55524700913E+03  0.58064213496E+03  0.00000000000E+00 0. -1.
          3    1    6    6  503    0  0.24500937421E+03  0.51987434751E+03 -0.35643958791E+03  0.67627517364E+03  0.00000000000E+00 0. -1.
         -3    1    6    6    0  503  0.34543685503E+02  0.86812719717E+02 -0.10031126810E+03  0.13708415306E+03  0.00000000000E+00 0.  1.
<mgrwt>
<rscale>  0 0.15272209E+04</rscale>
<asrwt>0</asrwt>
<pdfrwt beam="1">  1        2 0.30216594E+00 0.15272209E+04</pdfrwt>
<pdfrwt beam="2">  1       -1 0.45674258E-01 0.15272209E+04</pdfrwt>
<totfact> 0.36605780E+01</totfact>
</mgrwt>
</event>
<event>
12    7  0.1857704E-007  0.2832142E+04  0.7818608E-02  0.8293359E-01
          2   -1    0    0  501    0  0.00000000000E+00  0.00000000000E+00  0.28168079331E+04  0.28168079331E+04  0.00000000000E+00 0. -1.
         -1   -1    0    0    0  501 -0.00000000000E+00 -0.00000000000E+00 -0.71188971537E+03  0.71188971537E+03  0.00000000000E+00 0.  1.
         24    2    1    2    0    0  0.62267050714E+03  0.24711026416E+03  0.22929070655E+04  0.23900755378E+04  0.79096282838E+02 0.  0.
        254    2    1    2    0    0 -0.62267050714E+03 -0.24711026416E+03 -0.18798884779E+03  0.11386221107E+04  0.90129820871E+03 0.  0.
         23    2    4    4    0    0 -0.52308904695E+03  0.18833667149E+03  0.13480728647E+03  0.57951535425E+03  0.92586113761E+02 0.  0.
         23    2    4    4    0    0 -0.99581460185E+02 -0.43544693564E+03 -0.32279613426E+03  0.55910675647E+03  0.94194054298E+02 0.  0.
          4    1    3    3  502    0  0.39799526708E+03  0.15469194987E+03  0.15915082218E+04  0.16477949666E+04  0.00000000000E+00 0. -1.
         -3    1    3    3    0  502  0.22467524006E+03  0.92418314287E+02  0.70139884376E+03  0.74228057117E+03  0.00000000000E+00 0.  1.
         13    1    5    5    0    0 -0.11436549205E+03  0.19064463941E+01  0.26671336883E+02  0.11744982129E+03  0.00000000000E+00 0.  1.
        -13    1    5    5    0    0 -0.40872355490E+03  0.18643022509E+03  0.10813594958E+03  0.46206553296E+03  0.00000000000E+00 0. -1.
          1    1    6    6  503    0 -0.83678906499E+02 -0.36585881590E+03 -0.22349690879E+03  0.43681311885E+03  0.00000000000E+00 0. -1.
         -1    1    6    6    0  503 -0.15902553686E+02 -0.69588119745E+02 -0.99299225464E+02  0.12229363761E+03  0.00000000000E+00 0.  1.
<mgrwt>
<rscale>  0 0.28321417E+04</rscale>
<asrwt>0</asrwt>
<pdfrwt beam="1">  1        2 0.43335506E+00 0.28321417E+04</pdfrwt>
<pdfrwt beam="2">  1       -1 0.10952150E+00 0.28321417E+04</pdfrwt>
<totfact> 0.17173350E+00</totfact>
</mgrwt>
</event>
<event>
12    7  0.1857704E-007  0.1593771E+04  0.7818608E-02  0.8824384E-01
          2   -1    0    0  501    0  0.00000000000E+00  0.00000000000E+00  0.12156004330E+04  0.12156004330E+04  0.00000000000E+00 0. -1.
         -1   -1    0    0    0  501 -0.00000000000E+00 -0.00000000000E+00 -0.52239726296E+03  0.52239726296E+03  0.00000000000E+00 0.  1.
         24    2    1    2    0    0  0.48722918766E+03  0.23228419742E+03  0.24909772161E+03  0.59950442209E+03  0.77509015707E+02 0.  0.
        254    2    1    2    0    0 -0.48722918766E+03 -0.23228419742E+03  0.44410544839E+03  0.11384932738E+04  0.89865958827E+03 0.  0.
         23    2    4    4    0    0  0.21969884855E+03 -0.21768921472E+03  0.56687726033E+02  0.32712610933E+03  0.90232005764E+02 0.  0.
         23    2    4    4    0    0 -0.70692803621E+03 -0.14594982698E+02  0.38741772236E+03  0.81136716450E+03  0.90906117103E+02 0.  0.
          2    1    3    3  502    0  0.35350389790E+03  0.14856256256E+03  0.14239278066E+03  0.40903733913E+03  0.00000000000E+00 0. -1.
         -1    1    3    3    0  502  0.13372528976E+03  0.83721634865E+02  0.10670494095E+03  0.19046708296E+03  0.00000000000E+00 0.  1.
         13    1    5    5    0    0 -0.74074118994E+01 -0.15854029351E+01  0.57749038930E+01  0.95253749789E+01  0.00000000000E+00 0. -1.
        -13    1    5    5    0    0  0.22710626045E+03 -0.21610381179E+03  0.50912822140E+02  0.31760073435E+03  0.00000000000E+00 0.  1.
          4    1    6    6  503    0 -0.14679376626E+03 -0.38298840815E+02  0.95793657647E+02  0.17942027719E+03  0.00000000000E+00 0. -1.
         -4    1    6    6    0  503 -0.56013426995E+03  0.23703858117E+02  0.29162406471E+03  0.63194688731E+03  0.00000000000E+00 0.  1.
<mgrwt>
<rscale>  0 0.15937708E+04</rscale>
<asrwt>0</asrwt>
<pdfrwt beam="1">  1        2 0.18701545E+00 0.15937708E+04</pdfrwt>
<pdfrwt beam="2">  1       -1 0.80368810E-01 0.15937708E+04</pdfrwt>
<totfact> 0.31328920E+01</totfact>
</mgrwt>
</event>
<event>
12    7  0.1857704E-007  0.1848377E+04  0.7818608E-02  0.8680988E-01
         -1   -1    0    0    0  501 -0.00000000000E+00  0.00000000000E+00  0.52051313596E+03  0.52051313596E+03  0.00000000000E+00 0.  1.
          2   -1    0    0  501    0  0.00000000000E+00 -0.00000000000E+00 -0.16409273200E+04  0.16409273200E+04  0.00000000000E+00 0. -1.
         24    2    1    2    0    0  0.38572494741E+03  0.47478925910E+03 -0.83575539659E+03  0.10387646375E+04  0.79600965140E+02 0.  0.
        254    2    1    2    0    0 -0.38572494741E+03 -0.47478925910E+03 -0.28465878741E+03  0.11226758184E+04  0.89730808105E+03 0.  0.
         23    2    4    4    0    0 -0.26165036603E+02 -0.14181030547E+03 -0.53695356437E+03  0.56338564263E+03  0.91046582332E+02 0.  0.
         23    2    4    4    0    0 -0.35955991081E+03 -0.33297895364E+03  0.25229477697E+03  0.55929017575E+03  0.94839512764E+02 0.  0.
          2    1    3    3  502    0  0.13688862233E+03  0.12637073210E+03 -0.29705298735E+03  0.35064017761E+03  0.00000000000E+00 0. -1.
         -1    1    3    3    0  502  0.24883632508E+03  0.34841852700E+03 -0.53870240924E+03  0.68812445993E+03  0.00000000000E+00 0.  1.
         13    1    5    5    0    0 -0.15450511599E+01 -0.47259121595E+02 -0.34268078543E+03  0.34592764049E+03  0.00000000000E+00 0. -1.
        -13    1    5    5    0    0 -0.24619985443E+02 -0.94551183870E+02 -0.19427277895E+03  0.21745800214E+03  0.00000000000E+00 0.  1.
          2    1    6    6  503    0 -0.23975557953E+03 -0.16785106202E+03  0.17578627653E+03  0.34140523129E+03  0.00000000000E+00 0.  1.
         -2    1    6    6    0  503 -0.11980433128E+03 -0.16512789162E+03  0.76508500435E+02  0.21788494446E+03  0.00000000000E+00 0. -1.
<mgrwt>
<rscale>  0 0.18483768E+04</rscale>
<asrwt>0</asrwt>
<pdfrwt beam="1">  1        2 0.25245035E+00 0.18483768E+04</pdfrwt>
<pdfrwt beam="2">  1       -1 0.80078946E-01 0.18483768E+04</pdfrwt>
<totfact> 0.17641766E+01</totfact>
</mgrwt>
</event>
<event>
12    7  0.1857704E-007  0.3167477E+04  0.7818608E-02  0.8197460E-01
         -3   -1    0    0    0  501 -0.00000000000E+00  0.00000000000E+00  0.12320794061E+04  0.12320794061E+04  0.00000000000E+00 0.  1.
          2   -1    0    0  501    0  0.00000000000E+00 -0.00000000000E+00 -0.20357681909E+04  0.20357681909E+04  0.00000000000E+00 0. -1.
         24    2    1    2    0    0  0.94813910952E+03  0.10496354602E+04 -0.71209267093E+03  0.15857684472E+04  0.82965208701E+02 0.  0.
        254    2    1    2    0    0 -0.94813910952E+03 -0.10496354602E+04 -0.91596113911E+02  0.16820791498E+04  0.90570306822E+03 0.  0.
         23    2    4    4    0    0 -0.10473327209E+04 -0.10896830076E+04 -0.16490867127E+03  0.15233439238E+04  0.95220560295E+02 0.  0.
         23    2    4    4    0    0  0.99193611426E+02  0.40047547406E+02  0.73312557364E+02  0.15873522593E+03  0.91536671788E+02 0.  0.
          4    1    3    3  502    0  0.84937539237E+03  0.92057741887E+03 -0.60392273313E+03  0.13905480966E+04  0.00000000000E+00 0. -1.
         -3    1    3    3    0  502  0.98763717143E+02  0.12905804129E+03 -0.10816993779E+03  0.19522035060E+03  0.00000000000E+00 0.  1.
         13    1    5    5    0    0 -0.14755176763E+03 -0.17197172406E+03 -0.56641819078E+02  0.23356817779E+03  0.00000000000E+00 0. -1.
        -13    1    5    5    0    0 -0.89978095331E+03 -0.91771128351E+03 -0.10826685220E+03  0.12897757460E+04  0.00000000000E+00 0.  1.
          2    1    6    6  503    0  0.71423968024E+02  0.55672302278E+02  0.85573792857E+02  0.12459399052E+03  0.00000000000E+00 0.  1.
         -2    1    6    6    0  503  0.27769643402E+02 -0.15624754872E+02 -0.12261235493E+02  0.34141235410E+02  0.00000000000E+00 0. -1.
<mgrwt>
<rscale>  0 0.31674773E+04</rscale>
<asrwt>0</asrwt>
<pdfrwt beam="1">  1        2 0.31319510E+00 0.31674773E+04</pdfrwt>
<pdfrwt beam="2">  1       -3 0.18955068E+00 0.31674773E+04</pdfrwt>
<totfact> 0.58305132E-01</totfact>
</mgrwt>
</event>
<event>
12    7  0.1857704E-007  0.1461739E+04  0.7818608E-02  0.8910302E-01
         -1   -1    0    0    0  501 -0.00000000000E+00  0.00000000000E+00  0.12571136256E+04  0.12571136256E+04  0.00000000000E+00 0.  1.
          2   -1    0    0  501    0  0.00000000000E+00 -0.00000000000E+00 -0.42491819996E+03  0.42491819996E+03  0.00000000000E+00 0. -1.
         24    2    1    2    0    0 -0.59290936039E+01 -0.21317122810E+02 -0.25637331119E+03  0.26934080945E+03  0.79546357991E+02 0.  0.
        254    2    1    2    0    0  0.59290936039E+01  0.21317122810E+02  0.10885687368E+04  0.14126910161E+04  0.90012467930E+03 0.  0.
         23    2    4    4    0    0  0.98063447762E+02 -0.34892168165E+03  0.90668077494E+03  0.98061464408E+03  0.90400624053E+02 0.  0.
         23    2    4    4    0    0 -0.92134354158E+02  0.37023880446E+03  0.18188796190E+03  0.43207637202E+03  0.89673011732E+02 0.  0.
          2    1    3    3  502    0 -0.40784962374E+02 -0.21800262308E+02 -0.17053612549E+03  0.17669531598E+03  0.00000000000E+00 0. -1.
         -1    1    3    3    0  502  0.34855868770E+02  0.48313949841E+00 -0.85837185704E+02  0.92645493474E+02  0.00000000000E+00 0.  1.
         13    1    5    5    0    0  0.61579702125E+02 -0.29007523247E+03  0.80238771594E+03  0.85543073764E+03  0.00000000000E+00 0.  1.
        -13    1    5    5    0    0  0.36483745637E+02 -0.58846449180E+02  0.10429305901E+03  0.12518390645E+03  0.00000000000E+00 0. -1.
          3    1    6    6  503    0 -0.43507208167E+02  0.48152288042E+02  0.43710447659E+02  0.78243998113E+02  0.00000000000E+00 0. -1.
         -3    1    6    6    0  503 -0.48627145991E+02  0.32208651642E+03  0.13817751424E+03  0.35383237391E+03  0.00000000000E+00 0.  1.
<mgrwt>
<rscale>  0 0.14617393E+04</rscale>
<asrwt>0</asrwt>
<pdfrwt beam="1">  1        2 0.65372032E-01 0.14617393E+04</pdfrwt>
<pdfrwt beam="2">  1       -1 0.19340209E+00 0.14617393E+04</pdfrwt>
<totfact> 0.13763621E+01</totfact>
</mgrwt>
</event>
<event>
12    7  0.1857704E-007  0.2004380E+04  0.7818608E-02  0.8604575E-01
          2   -1    0    0  501    0  0.00000000000E+00  0.00000000000E+00  0.10589344885E+04  0.10589344885E+04  0.00000000000E+00 0. -1.
         -1   -1    0    0    0  501 -0.00000000000E+00 -0.00000000000E+00 -0.94848671601E+03  0.94848671601E+03  0.00000000000E+00 0.  1.
         24    2    1    2    0    0  0.11700425608E+03 -0.16226383768E+03  0.81688147031E+03  0.84471213171E+03  0.78890430159E+02 0.  0.
        254    2    1    2    0    0 -0.11700425608E+03  0.16226383768E+03 -0.70643369787E+03  0.11627090728E+04  0.90156767324E+03 0.  0.
         23    2    4    4    0    0 -0.44516096045E+03  0.61196380320E+02 -0.66325830953E+03  0.80631405520E+03  0.91200289356E+02 0.  0.
         23    2    4    4    0    0  0.32815670437E+03  0.10106745736E+03 -0.43175388335E+02  0.35639501756E+03  0.85157740817E+02 0.  0.
          2    1    3    3  502    0  0.10039577168E+03 -0.91262155370E+02  0.42588612050E+03  0.44697547987E+03  0.00000000000E+00 0. -1.
         -1    1    3    3    0  502  0.16608484404E+02 -0.71001682309E+02  0.39099534981E+03  0.39773665184E+03  0.00000000000E+00 0.  1.
         13    1    5    5    0    0 -0.33146943787E+03  0.82296442700E+01 -0.50947385870E+03  0.60786785405E+03  0.00000000000E+00 0.  1.
        -13    1    5    5    0    0 -0.11369152258E+03  0.52966736050E+02 -0.15378445083E+03  0.19844620115E+03  0.00000000000E+00 0. -1.
          2    1    6    6  503    0  0.37998739229E+02 -0.15463627657E+02 -0.71439468731E+01  0.41642093370E+02  0.00000000000E+00 0. -1.
         -2    1    6    6    0  503  0.29015796514E+03  0.11653108502E+03 -0.36031441462E+02  0.31475292419E+03  0.00000000000E+00 0.  1.
<mgrwt>
<rscale>  0 0.20043805E+04</rscale>
<asrwt>0</asrwt>
<pdfrwt beam="1">  1        2 0.16291300E+00 0.20043805E+04</pdfrwt>
<pdfrwt beam="2">  1       -1 0.14592103E+00 0.20043805E+04</pdfrwt>
<totfact> 0.91963298E+00</totfact>
</mgrwt>
</event>
<event>
12    7  0.1857704E-007  0.2160608E+04  0.7818608E-02  0.8535005E-01
          2   -1    0    0  501    0  0.00000000000E+00  0.00000000000E+00  0.25533128199E+04  0.25533128199E+04  0.00000000000E+00 0. -1.
         -1   -1    0    0    0  501 -0.00000000000E+00 -0.00000000000E+00 -0.45707545110E+03  0.45707545110E+03  0.00000000000E+00 0.  1.
         24    2    1    2    0    0 -0.64286682933E+03  0.15309964625E+02  0.12360941209E+02  0.64789938753E+03  0.78157969648E+02 0.  0.
        254    2    1    2    0    0  0.64286682933E+03 -0.15309964625E+02  0.20838764276E+04  0.23624888835E+04  0.90846056808E+03 0.  0.
         23    2    4    4    0    0  0.32451121897E+01 -0.21681312713E+03  0.13259262669E+04  0.13464344921E+04  0.88243490362E+02 0.  0.
         23    2    4    4    0    0  0.63962171714E+03  0.20150316250E+03  0.75795016075E+03  0.10160543914E+04  0.90325048986E+02 0.  0.
          2    1    3    3  502    0 -0.21503504153E+03 -0.93345292352E+01  0.38110501894E+02  0.21858548186E+03  0.00000000000E+00 0. -1.
         -1    1    3    3    0  502 -0.42783178780E+03  0.24644493860E+02 -0.25749560685E+02  0.42931390567E+03  0.00000000000E+00 0.  1.
         13    1    5    5    0    0  0.44778957133E+02 -0.91804324240E+02  0.54938075606E+03  0.55879549397E+03  0.00000000000E+00 0. -1.
        -13    1    5    5    0    0 -0.41533844943E+02 -0.12500880289E+03  0.77654551079E+03  0.78763899815E+03  0.00000000000E+00 0.  1.
          1    1    6    6  503    0  0.48598083909E+03  0.17347811857E+03  0.52977361923E+03  0.73954859287E+03  0.00000000000E+00 0. -1.
         -1    1    6    6    0  503  0.15364087806E+03  0.28025043933E+02  0.22817654152E+03  0.27650579849E+03  0.00000000000E+00 0.  1.
<mgrwt>
<rscale>  0 0.21606079E+04</rscale>
<asrwt>0</asrwt>
<pdfrwt beam="1">  1        2 0.39281735E+00 0.21606079E+04</pdfrwt>
<pdfrwt beam="2">  1       -1 0.70319302E-01 0.21606079E+04</pdfrwt>
<totfact> 0.69151454E+00</totfact>
</mgrwt>
</event>
<event>
12    7  0.1857704E-007  0.2981194E+04  0.7818608E-02  0.8249122E-01
          2   -1    0    0  501    0  0.00000000000E+00  0.00000000000E+00  0.19971701816E+04  0.19971701816E+04  0.00000000000E+00 0. -1.
         -1   -1    0    0    0  501 -0.00000000000E+00 -0.00000000000E+00 -0.11125135174E+04  0.11125135174E+04  0.00000000000E+00 0.  1.
         24    2    1    2    0    0  0.11907684744E+04 -0.59263829903E+03  0.66837192038E+03  0.14906836297E+04  0.79164050117E+02 0.  0.
        254    2    1    2    0    0 -0.11907684744E+04  0.59263829903E+03  0.21628474379E+03  0.16190000693E+04  0.89734743599E+03 0.  0.
         23    2    4    4    0    0  0.48260453182E+02  0.10207360975E+03  0.24355562594E+03  0.28302689075E+03  0.89648116588E+02 0.  0.
         23    2    4    4    0    0 -0.12390289275E+04  0.49056468928E+03 -0.27270882154E+02  0.13359731785E+04  0.90742686002E+02 0.  0.
          2    1    3    3  502    0  0.69844605573E+03 -0.30998298891E+03  0.36112316557E+03  0.84517825747E+03  0.00000000000E+00 0. -1.
         -1    1    3    3    0  502  0.49232241862E+03 -0.28265531012E+03  0.30724875481E+03  0.64550537221E+03  0.00000000000E+00 0.  1.
         13    1    5    5    0    0 -0.21219028513E+02  0.85080834184E+00  0.40830152556E+02  0.46022520613E+02  0.00000000000E+00 0.  1.
        -13    1    5    5    0    0  0.69479481695E+02  0.10122280141E+03  0.20272547339E+03  0.23700437013E+03  0.00000000000E+00 0. -1.
          3    1    6    6  503    0 -0.82610206335E+03  0.36828702902E+03 -0.36648982246E+02  0.90521991953E+03  0.00000000000E+00 0. -1.
         -3    1    6    6    0  503 -0.41292686419E+03  0.12227766026E+03  0.93781000923E+01  0.43075325899E+03  0.00000000000E+00 0.  1.
<mgrwt>
<rscale>  0 0.29811936E+04</rscale>
<asrwt>0</asrwt>
<pdfrwt beam="1">  1        2 0.30725695E+00 0.29811936E+04</pdfrwt>
<pdfrwt beam="2">  1       -1 0.17115593E+00 0.29811936E+04</pdfrwt>
<totfact> 0.15779984E+00</totfact>
</mgrwt>
</event>
<event>
12    7  0.1857704E-007  0.1321000E+04  0.7818608E-02  0.9013076E-01
         -1   -1    0    0    0  501 -0.00000000000E+00  0.00000000000E+00  0.17438727283E+03  0.17438727283E+03  0.00000000000E+00 0.  1.
          2   -1    0    0  501    0  0.00000000000E+00 -0.00000000000E+00 -0.25016760585E+04  0.25016760585E+04  0.00000000000E+00 0. -1.
         24    2    1    2    0    0 -0.48483734385E+02  0.35862604469E+03 -0.68437962808E+03  0.77708318208E+03  0.67227108426E+02 0.  0.
        254    2    1    2    0    0  0.48483734385E+02 -0.35862604469E+03 -0.16429091576E+04  0.18989801493E+04  0.88091531644E+03 0.  0.
         23    2    4    4    0    0  0.17126594818E+03 -0.59965043744E+03 -0.86234029720E+03  0.10680675528E+04  0.90690886810E+02 0.  0.
         23    2    4    4    0    0 -0.12278221379E+03  0.24102439274E+03 -0.78056886044E+03  0.83091259654E+03  0.89217527912E+02 0.  0.
          2    1    3    3  502    0 -0.18583619148E+02  0.22961607606E+03 -0.36870025081E+03  0.43475138670E+03  0.00000000000E+00 0. -1.
         -3    1    3    3    0  502 -0.29900115237E+02  0.12900996863E+03 -0.31567937726E+03  0.34233179538E+03  0.00000000000E+00 0.  1.
         13    1    5    5    0    0  0.10923816726E+03 -0.24345707020E+03 -0.32675130161E+03  0.42186577879E+03  0.00000000000E+00 0.  1.
        -13    1    5    5    0    0  0.62027780920E+02 -0.35619336724E+03 -0.53558899559E+03  0.64620177396E+03  0.00000000000E+00 0. -1.
          2    1    6    6  503    0  0.11501976648E+02  0.10807126028E+02 -0.23562197919E+02  0.28359594683E+02  0.00000000000E+00 0. -1.
         -2    1    6    6    0  503 -0.13428419044E+03  0.23021726672E+03 -0.75700666252E+03  0.80255300186E+03  0.00000000000E+00 0.  1.
<mgrwt>
<rscale>  0 0.13210003E+04</rscale>
<asrwt>0</asrwt>
<pdfrwt beam="1">  1        2 0.38487321E+00 0.13210003E+04</pdfrwt>
<pdfrwt beam="2">  1       -1 0.26828813E-01 0.13210003E+04</pdfrwt>
<totfact> 0.48233857E+01</totfact>
</mgrwt>
</event>
<event>
12    7  0.1857704E-007  0.2806457E+04  0.7818608E-02  0.8301266E-01
         -1   -1    0    0    0  501 -0.00000000000E+00  0.00000000000E+00  0.86623180284E+03  0.86623180284E+03  0.00000000000E+00 0.  1.
          2   -1    0    0  501    0  0.00000000000E+00 -0.00000000000E+00 -0.22731222728E+04  0.22731222728E+04  0.00000000000E+00 0. -1.
         24    2    1    2    0    0 -0.30004155118E+02 -0.16896606847E+02  0.77507060556E+03  0.77991398669E+03  0.79659515294E+02 0.  0.
        254    2    1    2    0    0  0.30004155118E+02  0.16896606847E+02 -0.21819610755E+04  0.23594400889E+04  0.89711629880E+03 0.  0.
         23    2    4    4    0    0  0.34158725494E+03 -0.25283019133E+03 -0.14629189120E+04  0.15255547521E+04  0.81120898202E+02 0.  0.
         23    2    4    4    0    0 -0.31158309982E+03  0.26972679817E+03 -0.71904216349E+03  0.83388533683E+03  0.92230951193E+02 0.  0.
          2    1    3    3  502    0 -0.35151669117E+02 -0.98552225476E+00  0.13133990921E+03  0.13596610919E+03  0.00000000000E+00 0. -1.
         -1    1    3    3    0  502  0.51475139981E+01 -0.15911084592E+02  0.64373069635E+03  0.64394787750E+03  0.00000000000E+00 0.  1.
         13    1    5    5    0    0  0.12633207859E+03 -0.71826111199E+02 -0.62591543229E+03  0.64256432574E+03  0.00000000000E+00 0. -1.
        -13    1    5    5    0    0  0.21525517635E+03 -0.18100408013E+03 -0.83700347971E+03  0.88299042634E+03  0.00000000000E+00 0.  1.
          3    1    6    6  503    0 -0.13188252241E+03  0.91697253563E+02 -0.20027887280E+03  0.25673529737E+03  0.00000000000E+00 0. -1.
         -3    1    6    6    0  503 -0.17970057741E+03  0.17802954461E+03 -0.51876329069E+03  0.57715003946E+03  0.00000000000E+00 0.  1.
<mgrwt>
<rscale>  0 0.28064574E+04</rscale>
<asrwt>0</asrwt>
<pdfrwt beam="1">  1        2 0.34971112E+00 0.28064574E+04</pdfrwt>
<pdfrwt beam="2">  1       -1 0.13326643E+00 0.28064574E+04</pdfrwt>
<totfact> 0.22107694E+00</totfact>
</mgrwt>
</event>
<event>
12    7  0.1857704E-007  0.1528129E+04  0.7818608E-02  0.8865960E-01
         -1   -1    0    0    0  501 -0.00000000000E+00  0.00000000000E+00  0.23274900082E+03  0.23274900082E+03  0.00000000000E+00 0.  1.
          2   -1    0    0  501    0  0.00000000000E+00 -0.00000000000E+00 -0.25082576046E+04  0.25082576046E+04  0.00000000000E+00 0. -1.
         24    2    1    2    0    0  0.38695855269E+03  0.19664383034E+03 -0.35967791703E+03  0.56937522278E+03  0.80088843224E+02 0.  0.
        254    2    1    2    0    0 -0.38695855269E+03 -0.19664383034E+03 -0.19158306868E+04  0.21716313827E+04  0.92583471755E+03 0.  0.
         23    2    4    4    0    0 -0.63595998545E+03 -0.30206294305E+03 -0.11120511195E+04  0.13193447681E+04  0.91245822455E+02 0.  0.
         23    2    4    4    0    0  0.24900143276E+03  0.10541911271E+03 -0.80377956727E+03  0.85228661453E+03  0.84946911127E+02 0.  0.
          2    1    3    3  502    0  0.34632109843E+02  0.18815836352E+02 -0.68116409618E+02  0.78697293404E+02  0.00000000000E+00 0. -1.
         -1    1    3    3    0  502  0.35232644285E+03  0.17782799398E+03 -0.29156150741E+03  0.49067792938E+03  0.00000000000E+00 0.  1.
         13    1    5    5    0    0 -0.57171420041E+03 -0.29923968786E+03 -0.99912019852E+03  0.11893875268E+04  0.00000000000E+00 0.  1.
        -13    1    5    5    0    0 -0.64245785044E+02 -0.28232551912E+01 -0.11293092099E+03  0.12995724136E+03  0.00000000000E+00 0. -1.
          2    1    6    6  503    0  0.30432744160E+02  0.26449271717E+02 -0.54495846137E+02  0.67790214173E+02  0.00000000000E+00 0. -1.
         -2    1    6    6    0  503  0.21856868860E+03  0.78969840998E+02 -0.74928372113E+03  0.78449640036E+03  0.00000000000E+00 0.  1.
<mgrwt>
<rscale>  0 0.15281289E+04</rscale>
<asrwt>0</asrwt>
<pdfrwt beam="1">  1        2 0.38588575E+00 0.15281289E+04</pdfrwt>
<pdfrwt beam="2">  1       -1 0.35807541E-01 0.15281289E+04</pdfrwt>
<totfact> 0.28230222E+01</totfact>
</mgrwt>
</event>
<event>
12    7  0.1857704E-007  0.2594772E+04  0.7818608E-02  0.8369979E-01
         -1   -1    0    0    0  501 -0.00000000000E+00  0.00000000000E+00  0.58101217297E+03  0.58101217297E+03  0.00000000000E+00 0.  1.
          2   -1    0    0  501    0  0.00000000000E+00 -0.00000000000E+00 -0.28970319036E+04  0.28970319036E+04  0.00000000000E+00 0. -1.
         24    2    1    2    0    0 -0.65458542140E+03  0.70919960765E+03 -0.20729215594E+03  0.99040926055E+03  0.80587269898E+02 0.  0.
        254    2    1    2    0    0  0.65458542140E+03 -0.70919960765E+03 -0.21087275747E+04  0.24876348160E+04  0.90008268299E+03 0.  0.
         23    2    4    4    0    0  0.65507606376E+03 -0.73538096901E+03 -0.21630207613E+04  0.23784227381E+04  0.91247402471E+02 0.  0.
         23    2    4    4    0    0 -0.49064235821E+00  0.26181361359E+02  0.54293186580E+02  0.10921207794E+03  0.91070431238E+02 0.  0.
          4    1    3    3  502    0 -0.38686411897E+03  0.42198400767E+03 -0.82384318440E+02  0.57837835817E+03  0.00000000000E+00 0. -1.
         -3    1    3    3    0  502 -0.26772130243E+03  0.28721559998E+03 -0.12490783750E+03  0.41203090238E+03  0.00000000000E+00 0.  1.
         13    1    5    5    0    0  0.34088412667E+03 -0.33483766536E+03 -0.96886931605E+03  0.10802897767E+04  0.00000000000E+00 0. -1.
        -13    1    5    5    0    0  0.31419193709E+03 -0.40054330364E+03 -0.11941514452E+04  0.12981329614E+04  0.00000000000E+00 0.  1.
          4    1    6    6  503    0  0.18269828524E+02 -0.23514975165E+02  0.46936249016E+02  0.55585539153E+02  0.00000000000E+00 0.  1.
         -4    1    6    6    0  503 -0.18760470882E+02  0.49696336524E+02  0.73569375640E+01  0.53626538784E+02  0.00000000000E+00 0. -1.
<mgrwt>
<rscale>  0 0.25947723E+04</rscale>
<asrwt>0</asrwt>
<pdfrwt beam="1">  1        2 0.44569722E+00 0.25947723E+04</pdfrwt>
<pdfrwt beam="2">  1       -1 0.89386488E-01 0.25947723E+04</pdfrwt>
<totfact> 0.24891476E+00</totfact>
</mgrwt>
</event>
<event>
12    7  0.1857704E-007  0.2280667E+04  0.7818608E-02  0.8485583E-01
         -1   -1    0    0    0  501 -0.00000000000E+00  0.00000000000E+00  0.56626243196E+03  0.56626243196E+03  0.00000000000E+00 0.  1.
          2   -1    0    0  501    0  0.00000000000E+00 -0.00000000000E+00 -0.22963923576E+04  0.22963923576E+04  0.00000000000E+00 0. -1.
         24    2    1    2    0    0  0.17083186596E+03  0.90914592965E+03 -0.10352566050E+04  0.13906395086E+04  0.79950965290E+02 0.  0.
        254    2    1    2    0    0 -0.17083186596E+03 -0.90914592965E+03 -0.69487332061E+03  0.14720152809E+04  0.91008252802E+03 0.  0.
         23    2    4    4    0    0 -0.15806365714E+03  0.61257955716E+02 -0.41662831117E+03  0.45888717050E+03  0.90893502108E+02 0.  0.
         23    2    4    4    0    0 -0.12768208818E+02 -0.97040388537E+03 -0.27824500943E+03  0.10131281104E+04  0.84625971235E+02 0.  0.
          2    1    3    3  502    0  0.16062025429E+03  0.68611132453E+03 -0.76489830641E+03  0.10400081898E+04  0.00000000000E+00 0. -1.
         -1    1    3    3    0  502  0.10211611677E+02  0.22303460512E+03 -0.27035829862E+03  0.35063131881E+03  0.00000000000E+00 0.  1.
         13    1    5    5    0    0 -0.11225345130E+03 -0.41710767957E+01 -0.23461594653E+03  0.26012089032E+03  0.00000000000E+00 0.  1.
        -13    1    5    5    0    0 -0.45810205845E+02  0.65429032511E+02 -0.18201236464E+03  0.19876628018E+03  0.00000000000E+00 0. -1.
          2    1    6    6  503    0 -0.13826178254E+02 -0.94501629268E+03 -0.28440619010E+03  0.98698218708E+03  0.00000000000E+00 0. -1.
         -2    1    6    6    0  503  0.10579694361E+01 -0.25387592685E+02  0.61611806632E+01  0.26145923370E+02  0.00000000000E+00 0.  1.
<mgrwt>
<rscale>  0 0.22806672E+04</rscale>
<asrwt>0</asrwt>
<pdfrwt beam="1">  1        2 0.35329114E+00 0.22806672E+04</pdfrwt>
<pdfrwt beam="2">  1       -1 0.87117296E-01 0.22806672E+04</pdfrwt>
<totfact> 0.61064541E+00</totfact>
</mgrwt>
</event>
<event>
12    7  0.1857704E-007  0.1408260E+04  0.7818608E-02  0.8947861E-01
          2   -1    0    0  501    0  0.00000000000E+00  0.00000000000E+00  0.25178157780E+04  0.25178157780E+04  0.00000000000E+00 0. -1.
         -1   -1    0    0    0  501 -0.00000000000E+00 -0.00000000000E+00 -0.19691643236E+03  0.19691643236E+03  0.00000000000E+00 0.  1.
         24    2    1    2    0    0 -0.82880960145E+01  0.41297814800E+03  0.72726069080E+03  0.83984672634E+03  0.76254626788E+02 0.  0.
        254    2    1    2    0    0  0.82880960145E+01 -0.41297814800E+03  0.15936386548E+04  0.18748854840E+04  0.89715760749E+03 0.  0.
         23    2    4    4    0    0  0.21301518459E+03 -0.57732516599E+03  0.14134307223E+04  0.15438099129E+04  0.82962789040E+02 0.  0.
         23    2    4    4    0    0 -0.20472708857E+03  0.16434701799E+03  0.18020793249E+03  0.33107557104E+03  0.90625667929E+02 0.  0.
          2    1    3    3  502    0 -0.11808143136E+02  0.41540398820E+03  0.71693458651E+03  0.82867068670E+03  0.00000000000E+00 0. -1.
         -1    1    3    3    0  502  0.35200471215E+01 -0.24258401981E+01  0.10326104287E+02  0.11176039645E+02  0.00000000000E+00 0.  1.
         13    1    5    5    0    0  0.20141117418E+03 -0.44920648048E+03  0.11200307537E+04  0.12234466938E+04  0.00000000000E+00 0. -1.
        -13    1    5    5    0    0  0.11604010406E+02 -0.12811868551E+03  0.29339996859E+03  0.32036321918E+03  0.00000000000E+00 0.  1.
          1    1    6    6  503    0 -0.16753537233E+03  0.10573187433E+03  0.16972173144E+03  0.26086930895E+03  0.00000000000E+00 0. -1.
         -1    1    6    6    0  503 -0.37191716241E+02  0.58615143657E+02  0.10486201049E+02  0.70206262080E+02  0.00000000000E+00 0.  1.
<mgrwt>
<rscale>  0 0.14082603E+04</rscale>
<asrwt>0</asrwt>
<pdfrwt beam="1">  1        2 0.38735625E+00 0.14082603E+04</pdfrwt>
<pdfrwt beam="2">  1       -1 0.30294837E-01 0.14082603E+04</pdfrwt>
<totfact> 0.37911503E+01</totfact>
</mgrwt>
</event>
<event>
12    7  0.1857704E-007  0.2930184E+04  0.7818608E-02  0.8263953E-01
          2   -1    0    0  501    0  0.00000000000E+00  0.00000000000E+00  0.27999448283E+04  0.27999448283E+04  0.00000000000E+00 0. -1.
         -1   -1    0    0    0  501 -0.00000000000E+00 -0.00000000000E+00 -0.76662020150E+03  0.76662020150E+03  0.00000000000E+00 0.  1.
         24    2    1    2    0    0  0.65127901259E+03  0.18123741665E+03 -0.46585487608E+03  0.82476661393E+03  0.78789900697E+02 0.  0.
        254    2    1    2    0    0 -0.65127901259E+03 -0.18123741665E+03  0.24991795028E+04  0.27417984158E+04  0.90252369070E+03 0.  0.
         23    2    4    4    0    0 -0.34335398658E+03 -0.22182742146E+03  0.29299832678E+03  0.51211354151E+03  0.96503341341E+02 0.  0.
         23    2    4    4    0    0 -0.30792502601E+03  0.40590004814E+02  0.22061811760E+04  0.22296848743E+04  0.88282994359E+02 0.  0.
          2    1    3    3  502    0  0.82575872131E+02 -0.34775668759E+01 -0.55636118679E+02  0.99630546677E+02  0.00000000000E+00 0. -1.
         -1    1    3    3    0  502  0.56870314046E+03  0.18471498353E+03 -0.41021875740E+03  0.72513606725E+03  0.00000000000E+00 0.  1.
         13    1    5    5    0    0 -0.21506822297E+03 -0.14600793613E+03  0.24045188294E+03  0.35410417388E+03  0.00000000000E+00 0.  1.
        -13    1    5    5    0    0 -0.12828576360E+03 -0.75819485329E+02  0.52546443834E+02  0.15800936763E+03  0.00000000000E+00 0. -1.
          4    1    6    6  503    0 -0.25202254895E+03 -0.18462977237E+01  0.16633604637E+04  0.16823456263E+04  0.00000000000E+00 0. -1.
         -4    1    6    6    0  503 -0.55902477062E+02  0.42436302538E+02  0.54282071233E+03  0.54733924804E+03  0.00000000000E+00 0.  1.
<mgrwt>
<rscale>  0 0.29301838E+04</rscale>
<asrwt>0</asrwt>
<pdfrwt beam="1">  1        2 0.43076074E+00 0.29301838E+04</pdfrwt>
<pdfrwt beam="2">  1       -1 0.11794157E+00 0.29301838E+04</pdfrwt>
<totfact> 0.14605862E+00</totfact>
</mgrwt>
</event>
<event>
12    7  0.1857704E-007  0.1774970E+04  0.7818608E-02  0.8719724E-01
         -1   -1    0    0    0  501 -0.00000000000E+00  0.00000000000E+00  0.92783522290E+03  0.92783522290E+03  0.00000000000E+00 0.  1.
          2   -1    0    0  501    0  0.00000000000E+00 -0.00000000000E+00 -0.84888965828E+03  0.84888965828E+03  0.00000000000E+00 0. -1.
         24    2    1    2    0    0  0.29723795584E+03 -0.47373443786E+03 -0.30522256965E+03  0.64186530294E+03  0.77817286542E+02 0.  0.
        254    2    1    2    0    0 -0.29723795584E+03  0.47373443786E+03  0.38416813428E+03  0.11348595782E+04  0.90969576613E+03 0.  0.
         23    2    4    4    0    0 -0.39854435024E+03  0.19422401313E+03  0.60308966461E+03  0.75439793672E+03  0.94013493641E+02 0.  0.
         23    2    4    4    0    0  0.10130639440E+03  0.27951042473E+03 -0.21892153033E+03  0.38046164152E+03  0.91844222170E+02 0.  0.
          2    1    3    3  502    0  0.24330954952E+03 -0.34784839927E+03 -0.25926094625E+03  0.49740756329E+03  0.00000000000E+00 0. -1.
         -1    1    3    3    0  502  0.53928406314E+02 -0.12588603859E+03 -0.45961623406E+02  0.14445773965E+03  0.00000000000E+00 0.  1.
         13    1    5    5    0    0 -0.16854920691E+02  0.25736907037E+02  0.17550389340E+02  0.35418821287E+02  0.00000000000E+00 0.  1.
        -13    1    5    5    0    0 -0.38168942955E+03  0.16848710609E+03  0.58553927527E+03  0.71897911543E+03  0.00000000000E+00 0. -1.
          2    1    6    6  503    0 -0.14069218026E+02  0.16669354192E+02 -0.28931941019E+02  0.36233513163E+02  0.00000000000E+00 0.  1.
         -2    1    6    6    0  503  0.11537561243E+03  0.26284107054E+03 -0.18998958931E+03  0.34422812835E+03  0.00000000000E+00 0. -1.
<mgrwt>
<rscale>  0 0.17749701E+04</rscale>
<asrwt>0</asrwt>
<pdfrwt beam="1">  1        2 0.13059841E+00 0.17749701E+04</pdfrwt>
<pdfrwt beam="2">  1       -1 0.14274388E+00 0.17749701E+04</pdfrwt>
<totfact> 0.13674275E+01</totfact>
</mgrwt>
</event>
<event>
12    7  0.1857704E-007  0.2180777E+04  0.7818608E-02  0.8526472E-01
         -1   -1    0    0    0  501 -0.00000000000E+00  0.00000000000E+00  0.43847842368E+03  0.43847842368E+03  0.00000000000E+00 0.  1.
          2   -1    0    0  501    0  0.00000000000E+00 -0.00000000000E+00 -0.27115291802E+04  0.27115291802E+04  0.00000000000E+00 0. -1.
         24    2    1    2    0    0  0.53928702065E+03 -0.71185341339E+03 -0.84597788133E+03  0.12348707935E+04  0.10798855575E+03 0.  0.
        254    2    1    2    0    0 -0.53928702065E+03  0.71185341339E+03 -0.14270728752E+04  0.19151368104E+04  0.91304229831E+03 0.  0.
         23    2    4    4    0    0  0.15586243092E+02 -0.77855257226E+02  0.62812017740E+02  0.13755890944E+03  0.93127503688E+02 0.  0.
         23    2    4    4    0    0 -0.55487326374E+03  0.78970867062E+03 -0.14898848929E+04  0.17775779009E+04  0.92206704729E+02 0.  0.
          4    1    3    3  502    0  0.66818028946E+02 -0.43651882761E+02 -0.56640388187E+02  0.97868633560E+02  0.00000000000E+00 0. -1.
         -3    1    3    3    0  502  0.47246899170E+03 -0.66820153063E+03 -0.78933749314E+03  0.11370021600E+04  0.00000000000E+00 0.  1.
         13    1    5    5    0    0  0.38716265124E+01 -0.88906915615E+01 -0.24108693617E+02  0.25985822985E+02  0.00000000000E+00 0.  1.
        -13    1    5    5    0    0  0.11714616580E+02 -0.68964565664E+02  0.86920711357E+02  0.11157308646E+03  0.00000000000E+00 0. -1.
          1    1    6    6  503    0 -0.48662793146E+03  0.63259512977E+03 -0.12148837546E+04  0.14535906848E+04  0.00000000000E+00 0. -1.
         -1    1    6    6    0  503 -0.68245332281E+02  0.15711354085E+03 -0.27500113832E+03  0.32398721606E+03  0.00000000000E+00 0.  1.
<mgrwt>
<rscale>  0 0.21807770E+04</rscale>
<asrwt>0</asrwt>
<pdfrwt beam="1">  1        2 0.41715833E+00 0.21807770E+04</pdfrwt>
<pdfrwt beam="2">  1       -1 0.67458221E-01 0.21807770E+04</pdfrwt>
<totfact> 0.60632882E+00</totfact>
</mgrwt>
</event>
<event>
12    7  0.1857704E-007  0.1271141E+04  0.7818608E-02  0.9052769E-01
          2   -1    0    0  501    0  0.00000000000E+00  0.00000000000E+00  0.30547077562E+03  0.30547077562E+03  0.00000000000E+00 0. -1.
         -1   -1    0    0    0  501 -0.00000000000E+00 -0.00000000000E+00 -0.13223848471E+04  0.13223848471E+04  0.00000000000E+00 0.  1.
         24    2    1    2    0    0  0.44547985830E+02  0.18782747320E+03  0.18999074175E+02  0.20981322377E+03  0.79980880971E+02 0.  0.
        254    2    1    2    0    0 -0.44547985830E+02 -0.18782747320E+03 -0.10359131456E+04  0.14180423989E+04  0.94892808847E+03 0.  0.
         23    2    4    4    0    0 -0.20387447722E+03 -0.39045728607E+03 -0.12502007895E+03  0.46696046650E+03  0.91653491061E+02 0.  0.
         23    2    4    4    0    0  0.15932649139E+03  0.20262981288E+03 -0.91089306667E+03  0.95108193241E+03  0.91579972253E+02 0.  0.
          2    1    3    3  502    0  0.63585740748E+02  0.13827032890E+03  0.31166599889E+02  0.15534859905E+03  0.00000000000E+00 0. -1.
         -1    1    3    3    0  502 -0.19037754918E+02  0.49557144300E+02 -0.12167525714E+02  0.54464624716E+02  0.00000000000E+00 0.  1.
         13    1    5    5    0    0 -0.32012472551E+02 -0.61697254479E+02  0.13802835822E+02  0.70865138720E+02  0.00000000000E+00 0.  1.
        -13    1    5    5    0    0 -0.17186200467E+03 -0.32876003159E+03 -0.13882291478E+03  0.39609532778E+03  0.00000000000E+00 0. -1.
          4    1    6    6  503    0  0.48289745142E+02  0.80801248986E+02 -0.19601359869E+03  0.21744441173E+03  0.00000000000E+00 0. -1.
         -4    1    6    6    0  503  0.11103674625E+03  0.12182856389E+03 -0.71487946798E+03  0.73363752067E+03  0.00000000000E+00 0.  1.
<mgrwt>
<rscale>  0 0.12711411E+04</rscale>
<asrwt>0</asrwt>
<pdfrwt beam="1">  1        2 0.46995504E-01 0.12711411E+04</pdfrwt>
<pdfrwt beam="2">  1       -1 0.20344382E+00 0.12711411E+04</pdfrwt>
<totfact> 0.17254332E+01</totfact>
</mgrwt>
</event>
<event>
12    7  0.1857704E-007  0.1992060E+04  0.7818608E-02  0.8610342E-01
          2   -1    0    0  501    0  0.00000000000E+00  0.00000000000E+00  0.10420882389E+04  0.10420882389E+04  0.00000000000E+00 0. -1.
         -1   -1    0    0    0  501 -0.00000000000E+00 -0.00000000000E+00 -0.95200788567E+03  0.95200788567E+03  0.00000000000E+00 0.  1.
         24    2    1    2    0    0 -0.85845724745E+01  0.20078568445E+03  0.79712114637E+03  0.82599431109E+03  0.80472939555E+02 0.  0.
        254    2    1    2    0    0  0.85845724745E+01 -0.20078568445E+03 -0.70704079317E+03  0.11681018135E+04  0.90783620629E+03 0.  0.
         23    2    4    4    0    0 -0.99515758693E+02  0.34290935338E+03 -0.26741391675E+03  0.45492532568E+03  0.89199989963E+02 0.  0.
         23    2    4    4    0    0  0.10810033117E+03 -0.54369503782E+03 -0.43962687642E+03  0.71317648778E+03  0.89771579625E+02 0.  0.
          2    1    3    3  502    0 -0.41712110392E+02  0.10636606436E+03  0.36625909004E+03  0.38366568890E+03  0.00000000000E+00 0. -1.
         -1    1    3    3    0  502  0.33127537918E+02  0.94419620089E+02  0.43086205633E+03  0.44232862219E+03  0.00000000000E+00 0.  1.
         13    1    5    5    0    0 -0.57379525529E+02  0.21410266203E+03 -0.11077751765E+03  0.24779834191E+03  0.00000000000E+00 0. -1.
        -13    1    5    5    0    0 -0.42136233163E+02  0.12880669135E+03 -0.15663639910E+03  0.20712698376E+03  0.00000000000E+00 0.  1.
          1    1    6    6  503    0  0.55678716777E+02 -0.23927462105E+03 -0.25110464209E+03  0.35129190862E+03  0.00000000000E+00 0. -1.
         -1    1    6    6    0  503  0.52421614390E+02 -0.30442041677E+03 -0.18852223433E+03  0.36188457917E+03  0.00000000000E+00 0.  1.
<mgrwt>
<rscale>  0 0.19920605E+04</rscale>
<asrwt>0</asrwt>
<pdfrwt beam="1">  1        2 0.16032127E+00 0.19920605E+04</pdfrwt>
<pdfrwt beam="2">  1       -1 0.14646275E+00 0.19920605E+04</pdfrwt>
<totfact> 0.93407549E+00</totfact>
</mgrwt>
</event>
<event>
12    7  0.1857704E-007  0.2923982E+04  0.7818608E-02  0.8265778E-01
          2   -1    0    0  501    0  0.00000000000E+00  0.00000000000E+00  0.13069849309E+04  0.13069849309E+04  0.00000000000E+00 0. -1.
         -1   -1    0    0    0  501 -0.00000000000E+00 -0.00000000000E+00 -0.16353810355E+04  0.16353810355E+04  0.00000000000E+00 0.  1.
         24    2    1    2    0    0 -0.44811307164E+03 -0.55805315599E+03 -0.12427692078E+04  0.14363711679E+04  0.80362790853E+02 0.  0.
        254    2    1    2    0    0  0.44811307164E+03  0.55805315599E+03  0.91437310323E+03  0.15059947986E+04  0.95901695062E+03 0.  0.
         23    2    4    4    0    0  0.82190296117E-01 -0.18736758986E+03  0.49102022105E+03  0.53352919324E+03  0.91901697923E+02 0.  0.
         23    2    4    4    0    0  0.44803088134E+03  0.74542074585E+03  0.42335288218E+03  0.97246560535E+03  0.10038890256E+03 0.  0.
          4    1    3    3  502    0 -0.95599274318E+02 -0.16952759856E+03 -0.37003682631E+03  0.41809817118E+03  0.00000000000E+00 0. -1.
         -3    1    3    3    0  502 -0.35251379732E+03 -0.38852555743E+03 -0.87273238147E+03  0.10182729967E+04  0.00000000000E+00 0.  1.
         13    1    5    5    0    0 -0.12375499050E+02 -0.35890510549E+02  0.21594918616E+03  0.21926087825E+03  0.00000000000E+00 0. -1.
        -13    1    5    5    0    0  0.12457689346E+02 -0.15147707931E+03  0.27507103488E+03  0.31426831500E+03  0.00000000000E+00 0.  1.
          4    1    6    6  503    0  0.23068480640E+03  0.29257647811E+03  0.16260472892E+03  0.40651786346E+03  0.00000000000E+00 0. -1.
         -4    1    6    6    0  503  0.21734607494E+03  0.45284426774E+03  0.26074815326E+03  0.56594774189E+03  0.00000000000E+00 0.  1.
<mgrwt>
<rscale>  0 0.29239825E+04</rscale>
<asrwt>0</asrwt>
<pdfrwt beam="1">  1        2 0.20107460E+00 0.29239825E+04</pdfrwt>
<pdfrwt beam="2">  1       -1 0.25159708E+00 0.29239825E+04</pdfrwt>
<totfact> 0.10936759E+00</totfact>
</mgrwt>
</event>
<event>
12    7  0.1857704E-007  0.1420249E+04  0.7818608E-02  0.8939291E-01
          2   -1    0    0  501    0  0.00000000000E+00  0.00000000000E+00  0.83671061401E+03  0.83671061401E+03  0.00000000000E+00 0. -1.
         -1   -1    0    0    0  501 -0.00000000000E+00 -0.00000000000E+00 -0.60268925417E+03  0.60268925417E+03  0.00000000000E+00 0.  1.
         24    2    1    2    0    0 -0.26214848229E+03 -0.21789250100E+03  0.32027824989E+03  0.47435195479E+03  0.78947139929E+02 0.  0.
        254    2    1    2    0    0  0.26214848229E+03  0.21789250100E+03 -0.86256890055E+02  0.96504791339E+03  0.89870921621E+03 0.  0.
         23    2    4    4    0    0  0.89567103167E+02  0.82344635989E+01  0.38873024559E+03  0.40933092907E+03  0.91381252445E+02 0.  0.
         23    2    4    4    0    0  0.17258137912E+03  0.20965803740E+03 -0.47498713564E+03  0.55571698432E+03  0.97302428383E+02 0.  0.
          4    1    3    3  502    0 -0.57476058577E+02 -0.25235928819E+02  0.27640562636E+02  0.68588265146E+02  0.00000000000E+00 0. -1.
         -3    1    3    3    0  502 -0.20467242371E+03 -0.19265657218E+03  0.29263768726E+03  0.40576368965E+03  0.00000000000E+00 0.  1.
         13    1    5    5    0    0  0.85542584968E+02  0.17575842495E+02  0.38946226550E+03  0.39913318620E+03  0.00000000000E+00 0.  1.
        -13    1    5    5    0    0  0.40245181988E+01 -0.93413788963E+01 -0.73201991053E+00  0.10197742866E+02  0.00000000000E+00 0. -1.
          2    1    6    6  503    0 -0.62193753310E+01  0.30815718849E+02 -0.27754912839E+02  0.41935955270E+02  0.00000000000E+00 0. -1.
         -2    1    6    6    0  503  0.17880075445E+03  0.17884231855E+03 -0.44723222280E+03  0.51378102905E+03  0.00000000000E+00 0.  1.
<mgrwt>
<rscale>  0 0.14202486E+04</rscale>
<asrwt>0</asrwt>
<pdfrwt beam="1">  1        2 0.12872471E+00 0.14202486E+04</pdfrwt>
<pdfrwt beam="2">  1       -1 0.92721423E-01 0.14202486E+04</pdfrwt>
<totfact> 0.40692302E+01</totfact>
</mgrwt>
</event>
<event>
12    7  0.1857704E-007  0.1986445E+04  0.7818608E-02  0.8612984E-01
          2   -1    0    0  501    0  0.00000000000E+00  0.00000000000E+00  0.11138928834E+04  0.11138928834E+04  0.00000000000E+00 0. -1.
         -1   -1    0    0    0  501 -0.00000000000E+00 -0.00000000000E+00 -0.88562501944E+03  0.88562501944E+03  0.00000000000E+00 0.  1.
         24    2    1    2    0    0  0.46406469843E+03 -0.27281743478E+03  0.66862080489E+03  0.86177553513E+03  0.76275128080E+02 0.  0.
        254    2    1    2    0    0 -0.46406469843E+03  0.27281743478E+03 -0.44035294096E+03  0.11377423677E+04  0.90042300368E+03 0.  0.
         23    2    4    4    0    0  0.11078258424E+03  0.28569927932E+03  0.10779711791E+03  0.33772776118E+03  0.92428149741E+02 0.  0.
         23    2    4    4    0    0 -0.57484728267E+03 -0.12881844543E+02 -0.54815005887E+03  0.80001460650E+03  0.94549157906E+02 0.  0.
          2    1    3    3  502    0  0.23196708624E+03 -0.17767551496E+03  0.33855990676E+03  0.44721373881E+03  0.00000000000E+00 0. -1.
         -1    1    3    3    0  502  0.23209761219E+03 -0.95141919819E+02  0.33006089814E+03  0.41456179632E+03  0.00000000000E+00 0.  1.
         13    1    5    5    0    0  0.60960249819E+02  0.13764431269E+03  0.10116517840E+03  0.18137392920E+03  0.00000000000E+00 0.  1.
        -13    1    5    5    0    0  0.49822334423E+02  0.14805496663E+03  0.66319395105E+01  0.15635383198E+03  0.00000000000E+00 0. -1.
          2    1    6    6  503    0 -0.54734885599E+03  0.46179650345E+00 -0.53881064714E+03  0.76805461843E+03  0.00000000000E+00 0. -1.
         -2    1    6    6    0  503 -0.27498426680E+02 -0.13343641046E+02 -0.93394117258E+01  0.31959988073E+02  0.00000000000E+00 0.  1.
<mgrwt>
<rscale>  0 0.19864455E+04</rscale>
<asrwt>0</asrwt>
<pdfrwt beam="1">  1        2 0.17136814E+00 0.19864455E+04</pdfrwt>
<pdfrwt beam="2">  1       -1 0.13625000E+00 0.19864455E+04</pdfrwt>
<totfact> 0.10192904E+01</totfact>
</mgrwt>
</event>
<event>
12    7  0.1857704E-007  0.2321824E+04  0.7818608E-02  0.8469366E-01
          2   -1    0    0  501    0  0.00000000000E+00  0.00000000000E+00  0.14055256693E+04  0.14055256693E+04  0.00000000000E+00 0. -1.
         -1   -1    0    0    0  501 -0.00000000000E+00 -0.00000000000E+00 -0.95887022253E+03  0.95887022253E+03  0.00000000000E+00 0.  1.
         24    2    1    2    0    0 -0.27338287807E+03 -0.90922396449E+03  0.65971351673E+02  0.95503538314E+03  0.79460356030E+02 0.  0.
        254    2    1    2    0    0  0.27338287807E+03  0.90922396449E+03  0.38068409510E+03  0.14093605087E+04  0.96951031328E+03 0.  0.
         23    2    4    4    0    0 -0.27376911709E+03  0.50515834748E+03  0.42771695898E+03  0.72200262581E+03  0.90617377882E+02 0.  0.
         23    2    4    4    0    0  0.54715199517E+03  0.40406561701E+03 -0.47032863883E+02  0.68735788287E+03  0.87203441438E+02 0.  0.
          4    1    3    3  502    0 -0.16408437974E+03 -0.58818702472E+03  0.62055845534E+01  0.61067681224E+03  0.00000000000E+00 0. -1.
         -3    1    3    3    0  502 -0.10929849834E+03 -0.32103693977E+03  0.59765767120E+02  0.34435857090E+03  0.00000000000E+00 0.  1.
         13    1    5    5    0    0 -0.15790420129E+03  0.20356966569E+03  0.16919929580E+03  0.30822515678E+03  0.00000000000E+00 0. -1.
        -13    1    5    5    0    0 -0.11586491580E+03  0.30158868179E+03  0.25851766318E+03  0.41377746903E+03  0.00000000000E+00 0.  1.
          2    1    6    6  503    0  0.59732075006E+02  0.80757389759E+02 -0.15228665583E+02  0.10159522154E+03  0.00000000000E+00 0. -1.
         -2    1    6    6    0  503  0.48741992016E+03  0.32330822725E+03 -0.31804198300E+02  0.58576266133E+03  0.00000000000E+00 0.  1.
<mgrwt>
<rscale>  0 0.23218240E+04</rscale>
<asrwt>0</asrwt>
<pdfrwt beam="1">  1        2 0.21623472E+00 0.23218240E+04</pdfrwt>
<pdfrwt beam="2">  1       -1 0.14751850E+00 0.23218240E+04</pdfrwt>
<totfact> 0.54056231E+00</totfact>
</mgrwt>
</event>
<event>
12    7  0.1857704E-007  0.2014226E+04  0.7818608E-02  0.8599998E-01
         -1   -1    0    0    0  501 -0.00000000000E+00  0.00000000000E+00  0.21287486356E+03  0.21287486356E+03  0.00000000000E+00 0.  1.
          2   -1    0    0  501    0  0.00000000000E+00 -0.00000000000E+00 -0.47646630811E+04  0.47646630811E+04  0.00000000000E+00 0. -1.
         24    2    1    2    0    0  0.20933510297E+03 -0.76488174075E+03 -0.14808710624E+04  0.16817802882E+04  0.80873800148E+02 0.  0.
        254    2    1    2    0    0 -0.20933510297E+03  0.76488174075E+03 -0.30709171551E+04  0.32957576565E+04  0.89589122887E+03 0.  0.
         23    2    4    4    0    0 -0.43626215230E+03  0.29129496438E+03 -0.22832147016E+04  0.23444545987E+04  0.90667358903E+02 0.  0.
         23    2    4    4    0    0  0.22692704933E+03  0.47358677637E+03 -0.78770245354E+03  0.95130305780E+03  0.93391819747E+02 0.  0.
          2    1    3    3  502    0  0.13030667158E+02 -0.83138155369E+01 -0.26303439605E+02  0.30508830696E+02  0.00000000000E+00 0. -1.
         -1    1    3    3    0  502  0.19630443582E+03 -0.75656792521E+03 -0.14545676228E+04  0.16512714575E+04  0.00000000000E+00 0.  1.
         13    1    5    5    0    0 -0.39280140934E+03  0.28440623418E+03 -0.20071274161E+04  0.20648826401E+04  0.00000000000E+00 0.  1.
        -13    1    5    5    0    0 -0.43460742965E+02  0.68887302085E+01 -0.27608728553E+03  0.27957195856E+03  0.00000000000E+00 0. -1.
          4    1    6    6  503    0  0.13270274356E+03  0.36346384798E+03 -0.54001097883E+03  0.66432510429E+03  0.00000000000E+00 0. -1.
         -4    1    6    6    0  503  0.94224305766E+02  0.11012292839E+03 -0.24769147471E+03  0.28697795350E+03  0.00000000000E+00 0.  1.
<mgrwt>
<rscale>  0 0.20142264E+04</rscale>
<asrwt>0</asrwt>
<pdfrwt beam="1">  1        2 0.73302505E+00 0.20142264E+04</pdfrwt>
<pdfrwt beam="2">  1       -1 0.32749981E-01 0.20142264E+04</pdfrwt>
<totfact> 0.61424561E-01</totfact>
</mgrwt>
</event>
<event>
12    7  0.1857704E-007  0.1786827E+04  0.7818608E-02  0.8713336E-01
         -1   -1    0    0    0  501 -0.00000000000E+00  0.00000000000E+00  0.43198007217E+03  0.43198007217E+03  0.00000000000E+00 0.  1.
          2   -1    0    0  501    0  0.00000000000E+00 -0.00000000000E+00 -0.18477423634E+04  0.18477423634E+04  0.00000000000E+00 0. -1.
         24    2    1    2    0    0 -0.27167780858E+03 -0.22336562083E+03  0.18909646483E+03  0.40662233826E+03  0.76702155852E+02 0.  0.
        254    2    1    2    0    0  0.27167780858E+03  0.22336562083E+03 -0.16048587561E+04  0.18731000973E+04  0.89957285165E+03 0.  0.
         23    2    4    4    0    0 -0.69979708093E+02  0.43260116324E+02  0.78903371193E+02  0.14327057246E+03  0.86787774135E+02 0.  0.
         23    2    4    4    0    0  0.34165751668E+03  0.18010550450E+03 -0.16837621273E+04  0.17298295249E+04  0.89930152986E+02 0.  0.
          4    1    3    3  502    0 -0.57662594194E+02 -0.11592016862E+02  0.27769715626E+02  0.65042345669E+02  0.00000000000E+00 0. -1.
         -3    1    3    3    0  502 -0.21401521439E+03 -0.21177360396E+03  0.16132674921E+03  0.34157999259E+03  0.00000000000E+00 0.  1.
         13    1    5    5    0    0 -0.69010440378E+01 -0.22149785429E+02  0.35887129070E+02  0.42733165531E+02  0.00000000000E+00 0. -1.
        -13    1    5    5    0    0 -0.63078664055E+02  0.65409901753E+02  0.43016242123E+02  0.10053740693E+03  0.00000000000E+00 0.  1.
          2    1    6    6  503    0  0.67623186619E+02  0.75291364983E+02 -0.36078694394E+03  0.37471176113E+03  0.00000000000E+00 0. -1.
         -2    1    6    6    0  503  0.27403433006E+03  0.10481413952E+03 -0.13229751833E+04  0.13551177638E+04  0.00000000000E+00 0.  1.
<mgrwt>
<rscale>  0 0.17868272E+04</rscale>
<asrwt>0</asrwt>
<pdfrwt beam="1">  1        2 0.28426806E+00 0.17868272E+04</pdfrwt>
<pdfrwt beam="2">  1       -1 0.66458471E-01 0.17868272E+04</pdfrwt>
<totfact> 0.20046005E+01</totfact>
</mgrwt>
</event>
<event>
12    7  0.1857704E-007  0.2431200E+04  0.7818608E-02  0.8427914E-01
          2   -1    0    0  501    0  0.00000000000E+00  0.00000000000E+00  0.10478296738E+04  0.10478296738E+04  0.00000000000E+00 0. -1.
         -1   -1    0    0    0  501 -0.00000000000E+00 -0.00000000000E+00 -0.14102325283E+04  0.14102325283E+04  0.00000000000E+00 0.  1.
         24    2    1    2    0    0  0.84873639235E+03 -0.20093053595E+03 -0.74490197300E+03  0.11499955616E+04  0.82971671327E+02 0.  0.
        254    2    1    2    0    0 -0.84873639235E+03  0.20093053595E+03  0.38249911849E+03  0.13080666406E+04  0.89666393737E+03 0.  0.
         23    2    4    4    0    0 -0.26343742336E+03 -0.33410914942E+03  0.31121893359E+02  0.43593968289E+03  0.89703038539E+02 0.  0.
         23    2    4    4    0    0 -0.58529896899E+03  0.53503968536E+03  0.35137722514E+03  0.87212695769E+03  0.91088572100E+02 0.  0.
          4    1    3    3  502    0  0.80702979273E+02 -0.52552862308E+01 -0.97102987559E+02  0.12637079999E+03  0.00000000000E+00 0. -1.
         -3    1    3    3    0  502  0.76803341308E+03 -0.19567524972E+03 -0.64779898544E+03  0.10236247616E+04  0.00000000000E+00 0.  1.
         13    1    5    5    0    0 -0.26103823799E+03 -0.30185085773E+03  0.13937045435E+02  0.39931083536E+03  0.00000000000E+00 0. -1.
        -13    1    5    5    0    0 -0.23991853728E+01 -0.32258291692E+02  0.17184847924E+02  0.36628847532E+02  0.00000000000E+00 0.  1.
          3    1    6    6  503    0 -0.30295084531E+03  0.31450694885E+03  0.23204778433E+03  0.49450986822E+03  0.00000000000E+00 0. -1.
         -3    1    6    6    0  503 -0.28234812368E+03  0.22053273651E+03  0.11932944080E+03  0.37761708947E+03  0.00000000000E+00 0.  1.
<mgrwt>
<rscale>  0 0.24312001E+04</rscale>
<asrwt>0</asrwt>
<pdfrwt beam="1">  1        2 0.16120457E+00 0.24312001E+04</pdfrwt>
<pdfrwt beam="2">  1       -1 0.21695885E+00 0.24312001E+04</pdfrwt>
<totfact> 0.27697830E+00</totfact>
</mgrwt>
</event>
<event>
12    7  0.1857704E-007  0.2242590E+04  0.7818608E-02  0.8500907E-01
         -1   -1    0    0    0  501 -0.00000000000E+00  0.00000000000E+00  0.17729208529E+04  0.17729208529E+04  0.00000000000E+00 0.  1.
          2   -1    0    0  501    0  0.00000000000E+00 -0.00000000000E+00 -0.70917013480E+03  0.70917013480E+03  0.00000000000E+00 0. -1.
         24    2    1    2    0    0  0.16674307295E+03 -0.55058352991E+02 -0.57175287429E+03  0.60335123248E+03  0.79351659499E+02 0.  0.
        254    2    1    2    0    0 -0.16674307295E+03  0.55058352991E+02  0.16355035924E+04  0.18787397552E+04  0.90772043742E+03 0.  0.
         23    2    4    4    0    0 -0.41472030460E+03 -0.17259862570E+03  0.44577317390E+03  0.63884669441E+03  0.87339336710E+02 0.  0.
         23    2    4    4    0    0  0.24797723165E+03  0.22765697870E+03  0.11897304185E+04  0.12398930608E+04  0.92498249855E+02 0.  0.
          2    1    3    3  502    0  0.14712101288E+03 -0.44854181729E+02 -0.55410760046E+03  0.57505801702E+03  0.00000000000E+00 0. -1.
         -1    1    3    3    0  502  0.19622060074E+02 -0.10204171262E+02 -0.17645273831E+02  0.28293215463E+02  0.00000000000E+00 0.  1.
         13    1    5    5    0    0 -0.14963803506E+03 -0.10865677261E+03  0.18131498361E+03  0.25898447647E+03  0.00000000000E+00 0. -1.
        -13    1    5    5    0    0 -0.26508226954E+03 -0.63941853098E+02  0.26445819030E+03  0.37986221794E+03  0.00000000000E+00 0.  1.
          1    1    6    6  503    0  0.13078931742E+02  0.51093748089E+02  0.13330342494E+03  0.14335770872E+03  0.00000000000E+00 0. -1.
         -1    1    6    6    0  503  0.23489829991E+03  0.17656323061E+03  0.10564269935E+04  0.10965353521E+04  0.00000000000E+00 0.  1.
<mgrwt>
<rscale>  0 0.22425900E+04</rscale>
<asrwt>0</asrwt>
<pdfrwt beam="1">  1        2 0.10910310E+00 0.22425900E+04</pdfrwt>
<pdfrwt beam="2">  1       -1 0.27275705E+00 0.22425900E+04</pdfrwt>
<totfact> 0.20772609E+00</totfact>
</mgrwt>
</event>
<event>
12    7  0.1857704E-007  0.3014626E+04  0.7818608E-02  0.8239567E-01
         -1   -1    0    0    0  501 -0.00000000000E+00  0.00000000000E+00  0.22492812914E+04  0.22492812914E+04  0.00000000000E+00 0.  1.
          2   -1    0    0  501    0  0.00000000000E+00 -0.00000000000E+00 -0.10100968161E+04  0.10100968161E+04  0.00000000000E+00 0. -1.
         24    2    1    2    0    0 -0.12451297750E+04  0.40732849701E+03  0.10004831105E+04  0.16504251151E+04  0.81681976251E+02 0.  0.
        254    2    1    2    0    0  0.12451297750E+04 -0.40732849701E+03  0.23870136474E+03  0.16089529923E+04  0.90304303833E+03 0.  0.
         23    2    4    4    0    0  0.73990058909E+03  0.21751535401E+03  0.18692716682E+03  0.79895508710E+03  0.92852865020E+02 0.  0.
         23    2    4    4    0    0  0.50522918587E+03 -0.62484385101E+03  0.51774197915E+02  0.80999790524E+03  0.87918544793E+02 0.  0.
          4    1    3    3  502    0 -0.20048219242E+03  0.73996832401E+02  0.20103733456E+03  0.29340185850E+03  0.00000000000E+00 0. -1.
         -3    1    3    3    0  502 -0.10446475825E+04  0.33333166460E+03  0.79944577598E+03  0.13570232566E+04  0.00000000000E+00 0.  1.
         13    1    5    5    0    0  0.71096356861E+03  0.20752926718E+03  0.15897793189E+03  0.75750351515E+03  0.00000000000E+00 0.  1.
        -13    1    5    5    0    0  0.28937020479E+02  0.99860868240E+01  0.27949234931E+02  0.41451571954E+02  0.00000000000E+00 0. -1.
          3    1    6    6  503    0  0.21475840410E+02 -0.16434121603E+02 -0.13017056337E+02  0.30012261325E+02  0.00000000000E+00 0. -1.
         -3    1    6    6    0  503  0.48375334546E+03 -0.60840972941E+03  0.64791254252E+02  0.77998564391E+03  0.00000000000E+00 0.  1.
<mgrwt>
<rscale>  0 0.30146256E+04</rscale>
<asrwt>0</asrwt>
<pdfrwt beam="1">  1        2 0.15539951E+00 0.30146256E+04</pdfrwt>
<pdfrwt beam="2">  1       -1 0.34604327E+00 0.30146256E+04</pdfrwt>
<totfact> 0.39895255E-01</totfact>
</mgrwt>
</event>
<event>
12    7  0.1857704E-007  0.2489572E+04  0.7818608E-02  0.8406710E-01
         -1   -1    0    0    0  501 -0.00000000000E+00  0.00000000000E+00  0.77557021280E+03  0.77557021280E+03  0.00000000000E+00 0.  1.
          2   -1    0    0  501    0  0.00000000000E+00 -0.00000000000E+00 -0.19978745910E+04  0.19978745910E+04  0.00000000000E+00 0. -1.
         24    2    1    2    0    0  0.53924820986E+03 -0.33506018053E+03  0.43369010534E+03  0.77196673915E+03  0.69221257336E+02 0.  0.
        254    2    1    2    0    0 -0.53924820986E+03  0.33506018053E+03 -0.16559944835E+04  0.20014780646E+04  0.92765443856E+03 0.  0.
         23    2    4    4    0    0  0.72202536190E+01 -0.59045591335E+02 -0.11466420731E+04  0.11520475442E+04  0.94270813822E+02 0.  0.
         23    2    4    4    0    0 -0.54646846348E+03  0.39410577187E+03 -0.50935241036E+03  0.84943052040E+03  0.90250706647E+02 0.  0.
          2    1    3    3  502    0  0.15700649378E+03 -0.90228517419E+02  0.87657029715E+02  0.20118642922E+03  0.00000000000E+00 0. -1.
         -1    1    3    3    0  502  0.38224171609E+03 -0.24483166311E+03  0.34603307562E+03  0.57078030993E+03  0.00000000000E+00 0.  1.
         13    1    5    5    0    0 -0.12973275844E+02 -0.41728087384E+02 -0.10705117346E+04  0.10714032448E+04  0.00000000000E+00 0.  1.
        -13    1    5    5    0    0  0.20193529463E+02 -0.17317503951E+02 -0.76130338577E+02  0.80644299409E+02  0.00000000000E+00 0. -1.
          1    1    6    6  503    0 -0.25805508673E+03  0.23084875996E+03 -0.29370570994E+03  0.45403372321E+03  0.00000000000E+00 0. -1.
         -1    1    6    6    0  503 -0.28841337675E+03  0.16325701190E+03 -0.21564670043E+03  0.39539679719E+03  0.00000000000E+00 0.  1.
<mgrwt>
<rscale>  0 0.24895719E+04</rscale>
<asrwt>0</asrwt>
<pdfrwt beam="1">  1        2 0.30736532E+00 0.24895719E+04</pdfrwt>
<pdfrwt beam="2">  1       -1 0.11931850E+00 0.24895719E+04</pdfrwt>
<totfact> 0.42718027E+00</totfact>
</mgrwt>
</event>
<event>
12    7  0.1857704E-007  0.2420144E+04  0.7818608E-02  0.8432000E-01
          2   -1    0    0  501    0  0.00000000000E+00  0.00000000000E+00  0.26371227014E+04  0.26371227014E+04  0.00000000000E+00 0. -1.
         -1   -1    0    0    0  501 -0.00000000000E+00 -0.00000000000E+00 -0.55525433472E+03  0.55525433472E+03  0.00000000000E+00 0.  1.
         24    2    1    2    0    0 -0.66286893253E+03 -0.80059972984E+03  0.88238841616E+03  0.13659484166E+04  0.82768416770E+02 0.  0.
        254    2    1    2    0    0  0.66286893253E+03  0.80059972984E+03  0.11994799505E+04  0.18264286194E+04  0.90373347906E+03 0.  0.
         23    2    4    4    0    0  0.10373273132E+03  0.58610173736E+02  0.79481048616E+03  0.80895904277E+03  0.92170450488E+02 0.  0.
         23    2    4    4    0    0  0.55913620121E+03  0.74198955611E+03  0.40466946432E+03  0.10174695767E+04  0.91132712233E+02 0.  0.
          4    1    3    3  502    0 -0.31051977816E+03 -0.32407128022E+03  0.34770235928E+03  0.56775140505E+03  0.00000000000E+00 0. -1.
         -3    1    3    3    0  502 -0.35234915437E+03 -0.47652844962E+03  0.53468605689E+03  0.79819701159E+03  0.00000000000E+00 0.  1.
         13    1    5    5    0    0  0.35377042370E+02  0.16097486812E+02  0.73256563379E+02  0.82928814574E+02  0.00000000000E+00 0. -1.
        -13    1    5    5    0    0  0.68355688948E+02  0.42512686924E+02  0.72155392279E+03  0.72603022819E+03  0.00000000000E+00 0.  1.
          3    1    6    6  503    0  0.15764013679E+03  0.18928984220E+03  0.14997358471E+03  0.28839752634E+03  0.00000000000E+00 0. -1.
         -3    1    6    6    0  503  0.40149606442E+03  0.55269971391E+03  0.25469587961E+03  0.72907205034E+03  0.00000000000E+00 0.  1.
<mgrwt>
<rscale>  0 0.24201436E+04</rscale>
<asrwt>0</asrwt>
<pdfrwt beam="1">  1        2 0.40571118E+00 0.24201436E+04</pdfrwt>
<pdfrwt beam="2">  1       -1 0.85423745E-01 0.24201436E+04</pdfrwt>
<totfact> 0.40019746E+00</totfact>
</mgrwt>
</event>
<event>
12    7  0.1857704E-007  0.1238166E+04  0.7818608E-02  0.9080091E-01
         -1   -1    0    0    0  501 -0.00000000000E+00  0.00000000000E+00  0.17106620538E+03  0.17106620538E+03  0.00000000000E+00 0.  1.
          2   -1    0    0  501    0  0.00000000000E+00 -0.00000000000E+00 -0.22404398551E+04  0.22404398551E+04  0.00000000000E+00 0. -1.
         24    2    1    2    0    0  0.28909891730E+03 -0.10914200104E+02 -0.48506648413E+03  0.57059378187E+03  0.81181685953E+02 0.  0.
        254    2    1    2    0    0 -0.28909891730E+03  0.10914200104E+02 -0.15843071656E+04  0.18409122787E+04  0.89175754488E+03 0.  0.
         23    2    4    4    0    0 -0.26883043039E+03  0.52420734489E+02 -0.16784661370E+04  0.17029143842E+04  0.87470527883E+02 0.  0.
         23    2    4    4    0    0 -0.20268486904E+02 -0.41506534385E+02  0.94158971378E+02  0.13799789441E+03  0.89687808601E+02 0.  0.
          4    1    3    3  502    0 -0.10727107970E+01 -0.10116519817E+02 -0.13547568256E+02  0.16941997737E+02  0.00000000000E+00 0. -1.
         -3    1    3    3    0  502  0.29017162809E+03 -0.79768028675E+00 -0.47151891587E+03  0.55365178413E+03  0.00000000000E+00 0.  1.
         13    1    5    5    0    0 -0.11499514526E+01 -0.20809830959E+01 -0.13869459488E-01  0.23776188405E+01  0.00000000000E+00 0.  1.
        -13    1    5    5    0    0 -0.26768047894E+03  0.54501717585E+02 -0.16784522676E+04  0.17005367654E+04  0.00000000000E+00 0. -1.
          3    1    6    6  503    0 -0.22438340906E+02 -0.52173491130E+02  0.10701537225E+03  0.12115214491E+03  0.00000000000E+00 0. -1.
         -3    1    6    6    0  503  0.21698540023E+01  0.10666956746E+02 -0.12856400872E+02  0.16845749493E+02  0.00000000000E+00 0.  1.
<mgrwt>
<rscale>  0 0.12381657E+04</rscale>
<asrwt>0</asrwt>
<pdfrwt beam="1">  1        2 0.34468305E+00 0.12381657E+04</pdfrwt>
<pdfrwt beam="2">  1       -1 0.26317878E-01 0.12381657E+04</pdfrwt>
<totfact> 0.70634318E+01</totfact>
</mgrwt>
</event>
<event>
12    7  0.1857704E-007  0.2660373E+04  0.7818608E-02  0.8347978E-01
         -1   -1    0    0    0  501 -0.00000000000E+00  0.00000000000E+00  0.64207344576E+03  0.64207344576E+03  0.00000000000E+00 0.  1.
          2   -1    0    0  501    0  0.00000000000E+00 -0.00000000000E+00 -0.27557532535E+04  0.27557532535E+04  0.00000000000E+00 0. -1.
         24    2    1    2    0    0  0.10138810039E+04 -0.66168774300E+02 -0.16984367825E+04  0.19813958890E+04  0.94388389225E+02 0.  0.
        254    2    1    2    0    0 -0.10138810039E+04  0.66168774300E+02 -0.41524302520E+03  0.14164308102E+04  0.89527452409E+03 0.  0.
         23    2    4    4    0    0  0.14207178984E+03 -0.76279935328E+02 -0.47830202151E+02  0.19179235392E+03  0.92160494695E+02 0.  0.
         23    2    4    4    0    0 -0.11559527937E+04  0.14244870963E+03 -0.36741282305E+03  0.12246384563E+04  0.90712016648E+02 0.  0.
          4    1    3    3  502    0  0.77053696058E+03 -0.89337942346E+02 -0.12717887407E+04  0.14896828779E+04  0.00000000000E+00 0. -1.
         -3    1    3    3    0  502  0.24334404331E+03  0.23169168046E+02 -0.42664804178E+03  0.49171301113E+03  0.00000000000E+00 0.  1.
         13    1    5    5    0    0  0.43560213684E+02 -0.68654709523E+02 -0.45034450130E+02  0.92946560207E+02  0.00000000000E+00 0. -1.
        -13    1    5    5    0    0  0.98511576154E+02 -0.76252258050E+01 -0.27957520207E+01  0.98845793711E+02  0.00000000000E+00 0.  1.
          1    1    6    6  503    0 -0.87681113320E+03  0.14121221664E+03 -0.30067756549E+03  0.93762767228E+03  0.00000000000E+00 0. -1.
         -1    1    6    6    0  503 -0.27914166052E+03  0.12364929839E+01 -0.66735257562E+02  0.28701078404E+03  0.00000000000E+00 0.  1.
<mgrwt>
<rscale>  0 0.26603729E+04</rscale>
<asrwt>0</asrwt>
<pdfrwt beam="1">  1        2 0.42396203E+00 0.26603729E+04</pdfrwt>
<pdfrwt beam="2">  1       -1 0.98780532E-01 0.26603729E+04</pdfrwt>
<totfact> 0.24113569E+00</totfact>
</mgrwt>
</event>
<event>
12    7  0.1857704E-007  0.2390992E+04  0.7818608E-02  0.8442884E-01
         -1   -1    0    0    0  501 -0.00000000000E+00  0.00000000000E+00  0.93512520641E+03  0.93512520641E+03  0.00000000000E+00 0.  1.
          2   -1    0    0  501    0  0.00000000000E+00 -0.00000000000E+00 -0.15283632907E+04  0.15283632907E+04  0.00000000000E+00 0. -1.
         24    2    1    2    0    0 -0.30834374365E+03  0.81121952130E+03 -0.81693355646E+03  0.11945724599E+04  0.80436000712E+02 0.  0.
        254    2    1    2    0    0  0.30834374365E+03 -0.81121952130E+03  0.22369547215E+03  0.12689160373E+04  0.89830689043E+03 0.  0.
         23    2    4    4    0    0  0.12303727908E+03 -0.10196310921E+03 -0.30800733078E+03  0.35892270332E+03  0.91773326488E+02 0.  0.
         23    2    4    4    0    0  0.18530646457E+03 -0.70925641209E+03  0.53170280293E+03  0.90999333396E+03  0.89425126776E+02 0.  0.
          4    1    3    3  502    0 -0.30096262106E+03  0.73899412335E+03 -0.73187815022E+03  0.10827448639E+04  0.00000000000E+00 0. -1.
         -3    1    3    3    0  502 -0.73811225951E+01  0.72225397948E+02 -0.85055406235E+02  0.11182759592E+03  0.00000000000E+00 0.  1.
         13    1    5    5    0    0 -0.11825015567E+02 -0.17743995627E+02 -0.65982893395E+02  0.69342790503E+02  0.00000000000E+00 0. -1.
        -13    1    5    5    0    0  0.13486229465E+03 -0.84219113583E+02 -0.24202443739E+03  0.28957991281E+03  0.00000000000E+00 0.  1.
          1    1    6    6  503    0  0.12721902605E+02 -0.65022625547E+01  0.56972622108E+01  0.15381320520E+02  0.00000000000E+00 0. -1.
         -1    1    6    6    0  503  0.17258456196E+03 -0.70275414953E+03  0.52600554072E+03  0.89461201344E+03  0.00000000000E+00 0.  1.
<mgrwt>
<rscale>  0 0.23909923E+04</rscale>
<asrwt>0</asrwt>
<pdfrwt beam="1">  1        2 0.23513281E+00 0.23909923E+04</pdfrwt>
<pdfrwt beam="2">  1       -1 0.14386542E+00 0.23909923E+04</pdfrwt>
<totfact> 0.48925310E+00</totfact>
</mgrwt>
</event>
<event>
12    7  0.1857704E-007  0.1067884E+04  0.7818608E-02  0.9237073E-01
         -1   -1    0    0    0  501 -0.00000000000E+00  0.00000000000E+00  0.16817205274E+03  0.16817205274E+03  0.00000000000E+00 0.  1.
          2   -1    0    0  501    0  0.00000000000E+00 -0.00000000000E+00 -0.16952507400E+04  0.16952507400E+04  0.00000000000E+00 0. -1.
         24    2    1    2    0    0  0.56824986745E+02  0.74107323393E+02 -0.23614009463E+03  0.26507970434E+03  0.76053473691E+02 0.  0.
        254    2    1    2    0    0 -0.56824986745E+02 -0.74107323393E+02 -0.12909385927E+04  0.15983430884E+04  0.93779379601E+03 0.  0.
         23    2    4    4    0    0 -0.52908986969E+01  0.36480298310E+03 -0.98186017496E+03  0.10515008426E+04  0.92170541303E+02 0.  0.
         23    2    4    4    0    0 -0.51534088048E+02 -0.43891030649E+03 -0.30907841771E+03  0.54684224587E+03  0.90603279173E+02 0.  0.
          4    1    3    3  502    0  0.46009714066E+02  0.28137002873E+02 -0.19541228550E+03  0.20271789769E+03  0.00000000000E+00 0. -1.
         -3    1    3    3    0  502  0.10815272679E+02  0.45970320520E+02 -0.40727809130E+02  0.62361806648E+02  0.00000000000E+00 0.  1.
         13    1    5    5    0    0 -0.25463943238E+02  0.35276957977E+02 -0.79235410615E+02  0.90394283363E+02  0.00000000000E+00 0.  1.
        -13    1    5    5    0    0  0.20173044541E+02  0.32952602512E+03 -0.90262476434E+03  0.96110655921E+03  0.00000000000E+00 0. -1.
          1    1    6    6  503    0 -0.24539993493E+02 -0.39387384256E+03 -0.29431052486E+03  0.49229818218E+03  0.00000000000E+00 0. -1.
         -1    1    6    6    0  503 -0.26994094555E+02 -0.45036463926E+02 -0.14767892844E+02  0.54544063681E+02  0.00000000000E+00 0.  1.
<mgrwt>
<rscale>  0 0.10678835E+04</rscale>
<asrwt>0</asrwt>
<pdfrwt beam="1">  1        2 0.26080782E+00 0.10678835E+04</pdfrwt>
<pdfrwt beam="2">  1       -1 0.25872622E-01 0.10678835E+04</pdfrwt>
<totfact> 0.14764632E+02</totfact>
</mgrwt>
</event>
<event>
12    7  0.1857704E-007  0.1906089E+04  0.7818608E-02  0.8651831E-01
         -3   -1    0    0    0  501 -0.00000000000E+00  0.00000000000E+00  0.91814690852E+03  0.91814690852E+03  0.00000000000E+00 0.  1.
          2   -1    0    0  501    0  0.00000000000E+00 -0.00000000000E+00 -0.98926855187E+03  0.98926855187E+03  0.00000000000E+00 0. -1.
         24    2    1    2    0    0  0.30450654142E+03  0.20914051459E+03 -0.66265596942E+03  0.76279726348E+03  0.79263754324E+02 0.  0.
        254    2    1    2    0    0 -0.30450654142E+03 -0.20914051459E+03  0.59153432608E+03  0.11446181969E+04  0.90761994753E+03 0.  0.
         23    2    4    4    0    0 -0.38209805252E+03 -0.48506822022E+03  0.56665528849E+03  0.84301904136E+03  0.91064746838E+02 0.  0.
         23    2    4    4    0    0  0.77591511100E+02  0.27592770563E+03  0.24879037589E+02  0.30159915555E+03  0.90479515842E+02 0.  0.
          2    1    3    3  502    0  0.26674354755E+03  0.16277467024E+03 -0.59802870622E+03  0.67474887691E+03  0.00000000000E+00 0. -1.
         -1    1    3    3    0  502  0.37762993868E+02  0.46365844346E+02 -0.64627263209E+02  0.88048386570E+02  0.00000000000E+00 0.  1.
         13    1    5    5    0    0 -0.37776110402E+03 -0.46713056704E+03  0.52648375885E+03  0.79881134613E+03  0.00000000000E+00 0. -1.
        -13    1    5    5    0    0 -0.43369484995E+01 -0.17937653176E+02  0.40171529642E+02  0.44207695229E+02  0.00000000000E+00 0.  1.
          4    1    6    6  503    0  0.86705089809E+02  0.15522206530E+03 -0.10698572215E+01  0.17779990649E+03  0.00000000000E+00 0. -1.
         -4    1    6    6    0  503 -0.91135787089E+01  0.12070564034E+03  0.25948894810E+02  0.12379924906E+03  0.00000000000E+00 0.  1.
<mgrwt>
<rscale>  0 0.19060890E+04</rscale>
<asrwt>0</asrwt>
<pdfrwt beam="1">  1        2 0.15219516E+00 0.19060890E+04</pdfrwt>
<pdfrwt beam="2">  1       -3 0.14125337E+00 0.19060890E+04</pdfrwt>
<totfact> 0.56990573E+00</totfact>
</mgrwt>
</event>
<event>
12    7  0.1857704E-007  0.1966513E+04  0.7818608E-02  0.8622439E-01
         -3   -1    0    0    0  501 -0.00000000000E+00  0.00000000000E+00  0.40450508553E+03  0.40450508553E+03  0.00000000000E+00 0.  1.
          4   -1    0    0  501    0  0.00000000000E+00 -0.00000000000E+00 -0.23900642265E+04  0.23900642265E+04  0.00000000000E+00 0. -1.
         24    2    1    2    0    0  0.66473860067E+03 -0.16695369552E+03 -0.13024721794E+04  0.14740849465E+04  0.82107903631E+02 0.  0.
        254    2    1    2    0    0 -0.66473860067E+03  0.16695369552E+03 -0.68308696154E+03  0.13204843655E+04  0.89850999923E+03 0.  0.
         23    2    4    4    0    0  0.14576201283E+03 -0.10024344583E+03 -0.34288588743E+03  0.39719758405E+03  0.94339154965E+02 0.  0.
         23    2    4    4    0    0 -0.81050061350E+03  0.26719714134E+03 -0.34020107411E+03  0.92328678141E+03  0.91739593802E+02 0.  0.
          4    1    3    3  502    0  0.61638848450E+03 -0.15574785842E+03 -0.12465561905E+04  0.13993192971E+04  0.00000000000E+00 0. -1.
         -3    1    3    3    0  502  0.48350116166E+02 -0.11205837099E+02 -0.55915988920E+02  0.74765649433E+02  0.00000000000E+00 0.  1.
         13    1    5    5    0    0  0.43916429682E+02 -0.27271821967E+02 -0.20267704151E+03  0.20916593466E+03  0.00000000000E+00 0.  1.
        -13    1    5    5    0    0  0.10184558315E+03 -0.72971623858E+02 -0.14020884592E+03  0.18803164939E+03  0.00000000000E+00 0. -1.
          1    1    6    6  503    0 -0.10813574640E+03  0.10330717169E+02 -0.63826189347E+02  0.12599145135E+03  0.00000000000E+00 0. -1.
         -1    1    6    6    0  503 -0.70236486710E+03  0.25686642417E+03 -0.27637488476E+03  0.79729533006E+03  0.00000000000E+00 0.  1.
<mgrwt>
<rscale>  0 0.19665128E+04</rscale>
<asrwt>0</asrwt>
<pdfrwt beam="1">  1        4 0.36770218E+00 0.19665128E+04</pdfrwt>
<pdfrwt beam="2">  1       -3 0.62231553E-01 0.19665128E+04</pdfrwt>
<totfact> 0.60733425E-02</totfact>
</mgrwt>
</event>
<event>
12    7  0.1857704E-007  0.2116101E+04  0.7818608E-02  0.8554184E-01
          2   -1    0    0  501    0  0.00000000000E+00  0.00000000000E+00  0.62457178145E+03  0.62457178145E+03  0.00000000000E+00 0. -1.
         -1   -1    0    0    0  501 -0.00000000000E+00 -0.00000000000E+00 -0.17923819621E+04  0.17923819621E+04  0.00000000000E+00 0.  1.
         24    2    1    2    0    0 -0.38226283156E+03 -0.39480258347E+03  0.28083522497E+03  0.62212138993E+03  0.78566200857E+02 0.  0.
        254    2    1    2    0    0  0.38226283156E+03  0.39480258347E+03 -0.14486454056E+04  0.17948323536E+04  0.90601087968E+03 0.  0.
         23    2    4    4    0    0  0.36218312373E+02  0.62589268541E+03 -0.86642184349E+03  0.10733306855E+04  0.91096266977E+02 0.  0.
         23    2    4    4    0    0  0.34604451919E+03 -0.23109010194E+03 -0.58222356212E+03  0.72150166807E+03  0.91820129958E+02 0.  0.
          4    1    3    3  502    0 -0.33192823501E+03 -0.33328514948E+03  0.20801022936E+03  0.51431857790E+03  0.00000000000E+00 0. -1.
         -3    1    3    3    0  502 -0.50334596548E+02 -0.61517433993E+02  0.72824995610E+02  0.10780281202E+03  0.00000000000E+00 0.  1.
         13    1    5    5    0    0  0.55112251841E+02  0.46647980408E+03 -0.59601595090E+03  0.75886479800E+03  0.00000000000E+00 0. -1.
        -13    1    5    5    0    0 -0.18893939468E+02  0.15941288134E+03 -0.27040589259E+03  0.31446588755E+03  0.00000000000E+00 0.  1.
          2    1    6    6  503    0  0.23778438335E+03 -0.14364394387E+03 -0.31346742746E+03  0.41885179199E+03  0.00000000000E+00 0.  1.
         -2    1    6    6    0  503  0.10826013584E+03 -0.87446158077E+02 -0.26875613467E+03  0.30264987609E+03  0.00000000000E+00 0. -1.
<mgrwt>
<rscale>  0 0.21161013E+04</rscale>
<asrwt>0</asrwt>
<pdfrwt beam="1">  1        2 0.96087967E-01 0.21161013E+04</pdfrwt>
<pdfrwt beam="2">  1       -1 0.27575107E+00 0.21161013E+04</pdfrwt>
<totfact> 0.23534917E+00</totfact>
</mgrwt>
</event>
<event>
12    7  0.1857704E-007  0.2000494E+04  0.7818608E-02  0.8606390E-01
         -1   -1    0    0    0  501 -0.00000000000E+00  0.00000000000E+00  0.36065220326E+03  0.36065220326E+03  0.00000000000E+00 0.  1.
          2   -1    0    0  501    0  0.00000000000E+00 -0.00000000000E+00 -0.27741254369E+04  0.27741254369E+04  0.00000000000E+00 0. -1.
         24    2    1    2    0    0 -0.41642177156E+03 -0.43600948816E+03 -0.14808282103E+03  0.62594733693E+03  0.79813414489E+02 0.  0.
        254    2    1    2    0    0  0.41642177156E+03  0.43600948816E+03 -0.22653904126E+04  0.25088303033E+04  0.89371382630E+03 0.  0.
         23    2    4    4    0    0  0.25056589546E+03  0.68536783139E+03 -0.12950128895E+04  0.14892213371E+04  0.90606150225E+02 0.  0.
         23    2    4    4    0    0  0.16585587610E+03 -0.24935834324E+03 -0.97037752309E+03  0.10196089662E+04  0.91006327336E+02 0.  0.
          4    1    3    3  502    0 -0.33592375586E+03 -0.30871923689E+03 -0.93257227618E+02  0.46567075008E+03  0.00000000000E+00 0. -1.
         -3    1    3    3    0  502 -0.80498015702E+02 -0.12729025126E+03 -0.54825593413E+02  0.16027658685E+03  0.00000000000E+00 0.  1.
         13    1    5    5    0    0  0.20198372648E+03  0.45764091421E+03 -0.82796131362E+03  0.96734304617E+03  0.00000000000E+00 0. -1.
        -13    1    5    5    0    0  0.48582168981E+02  0.22772691718E+03 -0.46705157591E+03  0.52187829090E+03  0.00000000000E+00 0.  1.
          4    1    6    6  503    0  0.15202547326E+03 -0.21064290047E+03 -0.71050883942E+03  0.75650841828E+03  0.00000000000E+00 0.  1.
         -4    1    6    6    0  503  0.13830402843E+02 -0.38715442770E+02 -0.25986868367E+03  0.26310054790E+03  0.00000000000E+00 0. -1.
<mgrwt>
<rscale>  0 0.20004944E+04</rscale>
<asrwt>0</asrwt>
<pdfrwt beam="1">  1        2 0.42678852E+00 0.20004944E+04</pdfrwt>
<pdfrwt beam="2">  1       -1 0.55484955E-01 0.20004944E+04</pdfrwt>
<totfact> 0.83377265E+00</totfact>
</mgrwt>
</event>
<event>
12    7  0.1857704E-007  0.1406888E+04  0.7818608E-02  0.8948847E-01
          2   -1    0    0  501    0  0.00000000000E+00  0.00000000000E+00  0.13128210617E+04  0.13128210617E+04  0.00000000000E+00 0. -1.
         -1   -1    0    0    0  501 -0.00000000000E+00 -0.00000000000E+00 -0.37692395615E+03  0.37692395615E+03  0.00000000000E+00 0.  1.
         24    2    1    2    0    0 -0.29559186651E+03  0.28051027364E+03  0.22372479640E+03  0.47219553642E+03  0.82796587633E+02 0.  0.
        254    2    1    2    0    0  0.29559186651E+03 -0.28051027364E+03  0.71217230911E+03  0.12175494814E+04  0.89954253740E+03 0.  0.
         23    2    4    4    0    0  0.50104475382E+03 -0.46920522888E+03  0.47695765646E+03  0.84077734118E+03  0.90656159435E+02 0.  0.
         23    2    4    4    0    0 -0.20545288731E+03  0.18869495524E+03  0.23521465265E+03  0.37677214021E+03  0.93886302382E+02 0.  0.
          4    1    3    3  502    0 -0.11783208668E+03  0.83533098912E+02  0.11826350302E+03  0.18667735645E+03  0.00000000000E+00 0. -1.
         -3    1    3    3    0  502 -0.17775977984E+03  0.19697717473E+03  0.10546129338E+03  0.28551817997E+03  0.00000000000E+00 0.  1.
         13    1    5    5    0    0  0.27199796432E+03 -0.21487134127E+03  0.19775468731E+03  0.39907330435E+03  0.00000000000E+00 0.  1.
        -13    1    5    5    0    0  0.22904678951E+03 -0.25433388761E+03  0.27920296915E+03  0.44170403683E+03  0.00000000000E+00 0. -1.
          3    1    6    6  503    0  0.10082460912E+02  0.74272871252E+01  0.74588287540E+01  0.14575827196E+02  0.00000000000E+00 0. -1.
         -3    1    6    6    0  503 -0.21553534822E+03  0.18126766811E+03  0.22775582390E+03  0.36219631301E+03  0.00000000000E+00 0.  1.
<mgrwt>
<rscale>  0 0.14068884E+04</rscale>
<asrwt>0</asrwt>
<pdfrwt beam="1">  1        2 0.20197247E+00 0.14068884E+04</pdfrwt>
<pdfrwt beam="2">  1       -1 0.57988302E-01 0.14068884E+04</pdfrwt>
<totfact> 0.54283583E+01</totfact>
</mgrwt>
</event>
<event>
12    7  0.1857704E-007  0.1316208E+04  0.7818608E-02  0.9016810E-01
         -1   -1    0    0    0  501 -0.00000000000E+00  0.00000000000E+00  0.12438415716E+03  0.12438415716E+03  0.00000000000E+00 0.  1.
          2   -1    0    0  501    0  0.00000000000E+00 -0.00000000000E+00 -0.34819631578E+04  0.34819631578E+04  0.00000000000E+00 0. -1.
         24    2    1    2    0    0  0.72144705174E+02 -0.56426206882E+01 -0.18254011187E+04  0.18285596062E+04  0.79399569985E+02 0.  0.
        254    2    1    2    0    0 -0.72144705174E+02  0.56426206882E+01 -0.15321778819E+04  0.17777877087E+04  0.89873431987E+03 0.  0.
         23    2    4    4    0    0  0.26157565671E+03  0.18718259586E+02 -0.13651853973E+04  0.13930848016E+04  0.90453844811E+02 0.  0.
         23    2    4    4    0    0 -0.33372036188E+03 -0.13075638898E+02 -0.16699248464E+03  0.38470290712E+03  0.92572050604E+02 0.  0.
          4    1    3    3  502    0  0.27983186839E+02 -0.34934043812E+02 -0.47095721000E+03  0.47307942231E+03  0.00000000000E+00 0. -1.
         -3    1    3    3    0  502  0.44161518335E+02  0.29291423123E+02 -0.13544439087E+04  0.13554801839E+04  0.00000000000E+00 0.  1.
         13    1    5    5    0    0  0.12005273206E+03 -0.23646871833E+00 -0.85158459750E+03  0.86000525644E+03  0.00000000000E+00 0.  1.
        -13    1    5    5    0    0  0.14152292465E+03  0.18954728305E+02 -0.51360079975E+03  0.53307954513E+03  0.00000000000E+00 0. -1.
          4    1    6    6  503    0 -0.78068570723E+02  0.28681731488E+02 -0.15454828509E+02  0.84594297563E+02  0.00000000000E+00 0. -1.
         -4    1    6    6    0  503 -0.25565179116E+03 -0.41757370387E+02 -0.15153765614E+03  0.30010860956E+03  0.00000000000E+00 0.  1.
<mgrwt>
<rscale>  0 0.13162083E+04</rscale>
<asrwt>0</asrwt>
<pdfrwt beam="1">  1        2 0.53568665E+00 0.13162083E+04</pdfrwt>
<pdfrwt beam="2">  1       -1 0.19136024E-01 0.13162083E+04</pdfrwt>
<totfact> 0.20964630E+01</totfact>
</mgrwt>
</event>
<event>
12    7  0.1857704E-007  0.2204031E+04  0.7818608E-02  0.8516752E-01
         -1   -1    0    0    0  501 -0.00000000000E+00  0.00000000000E+00  0.90038282596E+03  0.90038282596E+03  0.00000000000E+00 0.  1.
          2   -1    0    0  501    0  0.00000000000E+00 -0.00000000000E+00 -0.13488025782E+04  0.13488025782E+04  0.00000000000E+00 0. -1.
         24    2    1    2    0    0  0.11631234308E+03 -0.69716861034E+03 -0.78113811508E+03  0.10564349727E+04  0.79406953829E+02 0.  0.
        254    2    1    2    0    0 -0.11631234308E+03  0.69716861034E+03  0.33271836279E+03  0.11927504315E+04  0.90132094757E+03 0.  0.
         23    2    4    4    0    0 -0.11133535207E+03 -0.61250863704E+01  0.45082888018E+03  0.47385323939E+03  0.94112358229E+02 0.  0.
         23    2    4    4    0    0 -0.49769910120E+01  0.70329369671E+03 -0.11811051738E+03  0.71889719212E+03  0.90643721549E+02 0.  0.
          2    1    3    3  502    0  0.41887101014E+01 -0.22658949568E+03 -0.22518937303E+03  0.31948489569E+03  0.00000000000E+00 0. -1.
         -1    1    3    3    0  502  0.11212363298E+03 -0.47057911466E+03 -0.55594874205E+03  0.73695007701E+03  0.00000000000E+00 0.  1.
         13    1    5    5    0    0 -0.12631656300E+03 -0.16853520752E+02  0.39785383423E+03  0.41776499215E+03  0.00000000000E+00 0. -1.
        -13    1    5    5    0    0  0.14981210936E+02  0.10728434381E+02  0.52975045942E+02  0.56088247236E+02  0.00000000000E+00 0.  1.
          4    1    6    6  503    0  0.17976627407E+02  0.29495726667E+03 -0.91317166974E+01  0.29564562663E+03  0.00000000000E+00 0. -1.
         -4    1    6    6    0  503 -0.22953618419E+02  0.40833643004E+03 -0.10897880069E+03  0.42325156550E+03  0.00000000000E+00 0.  1.
<mgrwt>
<rscale>  0 0.22040315E+04</rscale>
<asrwt>0</asrwt>
<pdfrwt beam="1">  1        2 0.20750809E+00 0.22040315E+04</pdfrwt>
<pdfrwt beam="2">  1       -1 0.13852044E+00 0.22040315E+04</pdfrwt>
<totfact> 0.69501684E+00</totfact>
</mgrwt>
</event>
<event>
12    7  0.1857704E-007  0.2118628E+04  0.7818608E-02  0.8553082E-01
          2   -1    0    0  501    0  0.00000000000E+00  0.00000000000E+00  0.10601041749E+04  0.10601041749E+04  0.00000000000E+00 0. -1.
         -1   -1    0    0    0  501 -0.00000000000E+00 -0.00000000000E+00 -0.10585245150E+04  0.10585245150E+04  0.00000000000E+00 0.  1.
         24    2    1    2    0    0  0.31273322776E+03  0.78845045573E+03 -0.18502084409E+03  0.87204340009E+03  0.82284785985E+02 0.  0.
        254    2    1    2    0    0 -0.31273322776E+03 -0.78845045573E+03  0.18660050399E+03  0.12465852898E+04  0.89425887960E+03 0.  0.
         23    2    4    4    0    0 -0.18193600083E+03  0.16651163264E+03  0.45609327567E+02  0.26841652911E+03  0.95605387583E+02 0.  0.
         23    2    4    4    0    0 -0.13079722693E+03 -0.95496208837E+03  0.14099117643E+03  0.97816876069E+03  0.88741803914E+02 0.  0.
          4    1    3    3  502    0  0.68425316647E+02  0.10415995408E+03 -0.12515060352E+02  0.12525153383E+03  0.00000000000E+00 0. -1.
         -3    1    3    3    0  502  0.24430791112E+03  0.68429050165E+03 -0.17250578374E+03  0.74679186626E+03  0.00000000000E+00 0.  1.
         13    1    5    5    0    0 -0.45955494160E+02  0.10321017029E+03  0.53058884789E+01  0.11310348866E+03  0.00000000000E+00 0. -1.
        -13    1    5    5    0    0 -0.13598050667E+03  0.63301462344E+02  0.40303439088E+02  0.15531304044E+03  0.00000000000E+00 0.  1.
          1    1    6    6  503    0 -0.27840058008E+02 -0.58616202245E+02 -0.55257233551E+00  0.64894016147E+02  0.00000000000E+00 0. -1.
         -1    1    6    6    0  503 -0.10295716893E+03 -0.89634588612E+03  0.14154374876E+03  0.91327474454E+03  0.00000000000E+00 0.  1.
<mgrwt>
<rscale>  0 0.21186281E+04</rscale>
<asrwt>0</asrwt>
<pdfrwt beam="1">  1        2 0.16309295E+00 0.21186281E+04</pdfrwt>
<pdfrwt beam="2">  1       -1 0.16284993E+00 0.21186281E+04</pdfrwt>
<totfact> 0.67325494E+00</totfact>
</mgrwt>
</event>
<event>
12    7  0.1857704E-007  0.1687109E+04  0.7818608E-02  0.8768751E-01
         -1   -1    0    0    0  501 -0.00000000000E+00  0.00000000000E+00  0.32992184847E+03  0.32992184847E+03  0.00000000000E+00 0.  1.
          2   -1    0    0  501    0  0.00000000000E+00 -0.00000000000E+00 -0.21568260696E+04  0.21568260696E+04  0.00000000000E+00 0. -1.
         24    2    1    2    0    0 -0.11516089415E+03  0.17791514064E+03  0.17154711027E+03  0.28397554725E+03  0.79359130438E+02 0.  0.
        254    2    1    2    0    0  0.11516089415E+03 -0.17791514064E+03 -0.19984513314E+04  0.22027723708E+04  0.90193268309E+03 0.  0.
         23    2    4    4    0    0 -0.33526719412E+03 -0.11595663749E+03 -0.41912502708E+03  0.55680061863E+03  0.92255662944E+02 0.  0.
         23    2    4    4    0    0  0.45042808827E+03 -0.61958503150E+02 -0.15793263043E+04  0.16459717522E+04  0.90703443491E+02 0.  0.
          2    1    3    3  502    0 -0.74883182727E+02  0.83318807191E+02  0.44502836133E+02  0.12054052062E+03  0.00000000000E+00 0. -1.
         -3    1    3    3    0  502 -0.40277711424E+02  0.94596333452E+02  0.12704427414E+03  0.16343502663E+03  0.00000000000E+00 0.  1.
         13    1    5    5    0    0 -0.22318711186E+03 -0.12144960209E+03 -0.28119944491E+03  0.37899290306E+03  0.00000000000E+00 0. -1.
        -13    1    5    5    0    0 -0.11208008226E+03  0.54929645976E+01 -0.13792558218E+03  0.17780771557E+03  0.00000000000E+00 0.  1.
          2    1    6    6  503    0  0.18428966380E+03 -0.70295953763E+02 -0.65375751894E+03  0.68286389191E+03  0.00000000000E+00 0.  1.
         -2    1    6    6    0  503  0.26613842447E+03  0.83374506123E+01 -0.92556878539E+03  0.96310786029E+03  0.00000000000E+00 0. -1.
<mgrwt>
<rscale>  0 0.16871088E+04</rscale>
<asrwt>0</asrwt>
<pdfrwt beam="1">  1        2 0.33181940E+00 0.16871088E+04</pdfrwt>
<pdfrwt beam="2">  1       -1 0.50757206E-01 0.16871088E+04</pdfrwt>
<totfact> 0.23113632E+01</totfact>
</mgrwt>
</event>
<event>
12    7  0.1857704E-007  0.1460436E+04  0.7818608E-02  0.8911197E-01
          2   -1    0    0  501    0  0.00000000000E+00  0.00000000000E+00  0.35725802473E+03  0.35725802473E+03  0.00000000000E+00 0. -1.
         -1   -1    0    0    0  501 -0.00000000000E+00 -0.00000000000E+00 -0.14925305558E+04  0.14925305558E+04  0.00000000000E+00 0.  1.
         24    2    1    2    0    0  0.80809871701E+02 -0.65770519361E+02  0.19722214794E+03  0.23687028435E+03  0.79717999148E+02 0.  0.
        254    2    1    2    0    0 -0.80809871701E+02  0.65770519361E+02 -0.13324946790E+04  0.16129182962E+04  0.90283296574E+03 0.  0.
         23    2    4    4    0    0  0.22408616610E+03 -0.28914884005E+03 -0.32120844538E+03  0.49519370442E+03  0.90665748620E+02 0.  0.
         23    2    4    4    0    0 -0.30489603780E+03  0.35491935941E+03 -0.10112862336E+04  0.11177245918E+04  0.87630309671E+02 0.  0.
          4    1    3    3  502    0  0.84677821735E+02 -0.71682290748E+02  0.13724783411E+03  0.17648130855E+03  0.00000000000E+00 0. -1.
         -3    1    3    3    0  502 -0.38679500348E+01  0.59117713869E+01  0.59974313824E+02  0.60388975791E+02  0.00000000000E+00 0.  1.
         13    1    5    5    0    0  0.11513511496E+03 -0.86230519159E+02 -0.95117947914E+02  0.17245063394E+03  0.00000000000E+00 0.  1.
        -13    1    5    5    0    0  0.10895105115E+03 -0.20291832090E+03 -0.22609049747E+03  0.32274307049E+03  0.00000000000E+00 0. -1.
          3    1    6    6  503    0 -0.93834076933E+02  0.14495008842E+03 -0.29158009270E+03  0.33887211833E+03  0.00000000000E+00 0. -1.
         -3    1    6    6    0  503 -0.21106196087E+03  0.20996927099E+03 -0.71970614091E+03  0.77885247342E+03  0.00000000000E+00 0.  1.
<mgrwt>
<rscale>  0 0.14604363E+04</rscale>
<asrwt>0</asrwt>
<pdfrwt beam="1">  1        2 0.54962773E-01 0.14604363E+04</pdfrwt>
<pdfrwt beam="2">  1       -1 0.22962009E+00 0.14604363E+04</pdfrwt>
<totfact> 0.95115823E+00</totfact>
</mgrwt>
</event>
<event>
12    7  0.1857704E-007  0.1468941E+04  0.7818608E-02  0.8905374E-01
          2   -1    0    0  501    0  0.00000000000E+00  0.00000000000E+00  0.30238379922E+04  0.30238379922E+04  0.00000000000E+00 0. -1.
         -1   -1    0    0    0  501 -0.00000000000E+00 -0.00000000000E+00 -0.17839807519E+03  0.17839807519E+03  0.00000000000E+00 0.  1.
         24    2    1    2    0    0  0.94692569654E+02  0.39843529978E+03  0.12637568986E+04  0.13309185842E+04  0.80903696600E+02 0.  0.
        254    2    1    2    0    0 -0.94692569654E+02 -0.39843529978E+03  0.15816830184E+04  0.18713174832E+04  0.91235441652E+03 0.  0.
         23    2    4    4    0    0  0.24315383306E+02  0.64157247499E+02  0.13083423428E+04  0.13134219328E+04  0.92790609693E+02 0.  0.
         23    2    4    4    0    0 -0.11900795296E+03 -0.46259254727E+03  0.27334067563E+03  0.55789555044E+03  0.91529025940E+02 0.  0.
          4    1    3    3  502    0  0.70961730013E+01  0.20392756667E+03  0.60526346604E+03  0.63873364671E+03  0.00000000000E+00 0. -1.
         -3    1    3    3    0  502  0.87596396653E+02  0.19450773311E+03  0.65849343254E+03  0.69218493745E+03  0.00000000000E+00 0.  1.
         13    1    5    5    0    0  0.50787201800E+01  0.37833034887E+02  0.15543440183E+03  0.16005306995E+03  0.00000000000E+00 0. -1.
        -13    1    5    5    0    0  0.19236663126E+02  0.26324212612E+02  0.11529079410E+04  0.11533688628E+04  0.00000000000E+00 0.  1.
          1    1    6    6  503    0 -0.58902810727E+02 -0.13818450610E+03  0.12807497345E+03  0.19740237502E+03  0.00000000000E+00 0. -1.
         -1    1    6    6    0  503 -0.60105142234E+02 -0.32440804117E+03  0.14526570218E+03  0.36049317543E+03  0.00000000000E+00 0.  1.
<mgrwt>
<rscale>  0 0.14689409E+04</rscale>
<asrwt>0</asrwt>
<pdfrwt beam="1">  1        2 0.46520581E+00 0.14689409E+04</pdfrwt>
<pdfrwt beam="2">  1       -1 0.27445860E-01 0.14689409E+04</pdfrwt>
<totfact> 0.22295222E+01</totfact>
</mgrwt>
</event>
<event>
12    7  0.1857704E-007  0.1765383E+04  0.7818608E-02  0.8724928E-01
         -1   -1    0    0    0  501 -0.00000000000E+00  0.00000000000E+00  0.70736988101E+03  0.70736988101E+03  0.00000000000E+00 0.  1.
          2   -1    0    0  501    0  0.00000000000E+00 -0.00000000000E+00 -0.11014671353E+04  0.11014671353E+04  0.00000000000E+00 0. -1.
         24    2    1    2    0    0 -0.58981241822E+02 -0.62584854952E+03  0.20174030769E+02  0.63443468602E+03  0.83277761051E+02 0.  0.
        254    2    1    2    0    0  0.58981241822E+02  0.62584854952E+03 -0.41427128506E+03  0.11744023303E+04  0.90135173044E+03 0.  0.
         23    2    4    4    0    0 -0.92545233872E+02  0.75854625609E+03 -0.79916665265E+02  0.77357408081E+03  0.89850665987E+02 0.  0.
         23    2    4    4    0    0  0.15152647569E+03 -0.13269770657E+03 -0.33435461979E+03  0.40082824949E+03  0.91111577983E+02 0.  0.
          2    1    3    3  502    0 -0.25743190762E+02 -0.15882012346E+03 -0.29577850591E+02  0.16358909723E+03  0.00000000000E+00 0. -1.
         -1    1    3    3    0  502 -0.33238051061E+02 -0.46702842606E+03  0.49751881360E+02  0.47084558879E+03  0.00000000000E+00 0.  1.
         13    1    5    5    0    0  0.96637645661E+01  0.30998971562E+02  0.85451783453E+01  0.33575953545E+02  0.00000000000E+00 0. -1.
        -13    1    5    5    0    0 -0.10220899844E+03  0.72754728453E+03 -0.88461843610E+02  0.73999812727E+03  0.00000000000E+00 0.  1.
          1    1    6    6  503    0  0.26417764780E+02 -0.55336361352E+02 -0.44430510241E+02  0.75723717710E+02  0.00000000000E+00 0. -1.
         -1    1    6    6    0  503  0.12510871092E+03 -0.77361345221E+02 -0.28992410955E+03  0.32510453178E+03  0.00000000000E+00 0.  1.
<mgrwt>
<rscale>  0 0.17653834E+04</rscale>
<asrwt>0</asrwt>
<pdfrwt beam="1">  1        2 0.16945648E+00 0.17653834E+04</pdfrwt>
<pdfrwt beam="2">  1       -1 0.10882614E+00 0.17653834E+04</pdfrwt>
<totfact> 0.18377828E+01</totfact>
</mgrwt>
</event>
<event>
12    7  0.1857704E-007  0.1944712E+04  0.7818608E-02  0.8632915E-01
          2   -1    0    0  501    0  0.00000000000E+00  0.00000000000E+00  0.98145267794E+03  0.98145267794E+03  0.00000000000E+00 0. -1.
         -1   -1    0    0    0  501 -0.00000000000E+00 -0.00000000000E+00 -0.96334388398E+03  0.96334388398E+03  0.00000000000E+00 0.  1.
         24    2    1    2    0    0 -0.37200037853E+03  0.60589050568E+03 -0.23601685143E+03  0.75355900655E+03  0.81606590969E+02 0.  0.
        254    2    1    2    0    0  0.37200037853E+03 -0.60589050568E+03  0.25412564539E+03  0.11912375554E+04  0.92140082657E+03 0.  0.
         23    2    4    4    0    0  0.59641677030E+03 -0.33947372948E+03 -0.84503729302E+02  0.69748874142E+03  0.91620342889E+02 0.  0.
         23    2    4    4    0    0 -0.22441639177E+03 -0.26641677620E+03  0.33862937469E+03  0.49374881396E+03  0.88189695245E+02 0.  0.
          4    1    3    3  502    0 -0.25872658523E+02  0.15683635889E+02 -0.15807069920E+01  0.30296361635E+02  0.00000000000E+00 0. -1.
         -1    1    3    3    0  502 -0.34612772001E+03  0.59020686979E+03 -0.23443614444E+03  0.72326264491E+03  0.00000000000E+00 0.  1.
         13    1    5    5    0    0  0.26746859733E+03 -0.19169240703E+03 -0.98011560566E+01  0.32921344464E+03  0.00000000000E+00 0. -1.
        -13    1    5    5    0    0  0.32894817298E+03 -0.14778132245E+03 -0.74702573246E+02  0.36827529678E+03  0.00000000000E+00 0.  1.
          1    1    6    6  503    0 -0.15995846655E+03 -0.12197875256E+03  0.18889465836E+03  0.27594694971E+03  0.00000000000E+00 0. -1.
         -1    1    6    6    0  503 -0.64457925226E+02 -0.14443802364E+03  0.14973471633E+03  0.21780186425E+03  0.00000000000E+00 0.  1.
<mgrwt>
<rscale>  0 0.19447123E+04</rscale>
<asrwt>0</asrwt>
<pdfrwt beam="1">  1        2 0.15099272E+00 0.19447123E+04</pdfrwt>
<pdfrwt beam="2">  1       -1 0.14820675E+00 0.19447123E+04</pdfrwt>
<totfact> 0.99351769E+00</totfact>
</mgrwt>
</event>
<event>
12    7  0.1857704E-007  0.1416703E+04  0.7818608E-02  0.8941816E-01
          2   -1    0    0  501    0  0.00000000000E+00  0.00000000000E+00  0.94351728977E+03  0.94351728977E+03  0.00000000000E+00 0. -1.
         -1   -1    0    0    0  501 -0.00000000000E+00 -0.00000000000E+00 -0.53179944900E+03  0.53179944900E+03  0.00000000000E+00 0.  1.
         24    2    1    2    0    0  0.37123215458E+03  0.16801220110E+03  0.29241668962E+01  0.41099271912E+03  0.53526181487E+02 0.  0.
        254    2    1    2    0    0 -0.37123215458E+03 -0.16801220110E+03  0.40879367388E+03  0.10643240197E+04  0.89422141481E+03 0.  0.
         23    2    4    4    0    0 -0.21422377509E+03  0.30159556428E+03  0.41134970475E+03  0.56074377052E+03  0.91505663059E+02 0.  0.
         23    2    4    4    0    0 -0.15700837948E+03 -0.46960776538E+03 -0.25560308670E+01  0.50358024914E+03  0.91670330520E+02 0.  0.
          2    1    3    3  502    0  0.22096030074E+03  0.11988869814E+03 -0.16930130688E+02  0.25195909146E+03  0.00000000000E+00 0. -1.
         -1    1    3    3    0  502  0.15027185384E+03  0.48123502961E+02  0.19854297585E+02  0.15903362766E+03  0.00000000000E+00 0.  1.
         13    1    5    5    0    0 -0.11723754161E+03  0.22930341953E+03  0.24845799606E+03  0.35784923526E+03  0.00000000000E+00 0. -1.
        -13    1    5    5    0    0 -0.96986233484E+02  0.72292144743E+02  0.16289170868E+03  0.20289453525E+03  0.00000000000E+00 0.  1.
          3    1    6    6  503    0 -0.11230259348E+02 -0.34742687036E+02  0.24763924389E+02  0.44118306616E+02  0.00000000000E+00 0. -1.
         -3    1    6    6    0  503 -0.14577812014E+03 -0.43486507834E+03 -0.27319955256E+02  0.45946194252E+03  0.00000000000E+00 0.  1.
<mgrwt>
<rscale>  0 0.14167032E+04</rscale>
<asrwt>0</asrwt>
<pdfrwt beam="1">  1        2 0.14515651E+00 0.14167032E+04</pdfrwt>
<pdfrwt beam="2">  1       -1 0.81815300E-01 0.14167032E+04</pdfrwt>
<totfact> 0.45235091E+01</totfact>
</mgrwt>
</event>
<event>
12    7  0.1857704E-007  0.5020473E+04  0.7818608E-02  0.7825357E-01
          2   -1    0    0  501    0  0.00000000000E+00  0.00000000000E+00  0.29902811402E+04  0.29902811402E+04  0.00000000000E+00 0. -1.
         -3   -1    0    0    0  501 -0.00000000000E+00 -0.00000000000E+00 -0.21072558080E+04  0.21072558080E+04  0.00000000000E+00 0.  1.
         24    2    1    2    0    0 -0.19871301286E+04 -0.86961032666E+03  0.15449139680E+04  0.26641682802E+04  0.78263584182E+02 0.  0.
        254    2    1    2    0    0  0.19871301286E+04  0.86961032666E+03 -0.66188863579E+03  0.24333686679E+04  0.88220079322E+03 0.  0.
         23    2    4    4    0    0  0.17667888635E+04  0.10049230559E+04 -0.71035552019E+03  0.21552491016E+04  0.95291597672E+02 0.  0.
         23    2    4    4    0    0  0.22034126515E+03 -0.13531272923E+03  0.48466884403E+02  0.27811956631E+03  0.90231072594E+02 0.  0.
          2    1    3    3  502    0 -0.11600018549E+04 -0.49615565997E+03  0.85281659690E+03  0.15228495954E+04  0.00000000000E+00 0. -1.
         -1    1    3    3    0  502 -0.82712827374E+03 -0.37345466669E+03  0.69209737111E+03  0.11413186849E+04  0.00000000000E+00 0.  1.
         13    1    5    5    0    0  0.15723145808E+04  0.87929504345E+03 -0.60000315642E+03  0.18987724198E+04  0.00000000000E+00 0.  1.
        -13    1    5    5    0    0  0.19447428269E+03  0.12562801244E+03 -0.11035236377E+03  0.25647668184E+03  0.00000000000E+00 0. -1.
          3    1    6    6  503    0  0.21731507360E+02  0.12532779047E+02 -0.28910614993E+01  0.25252469174E+02  0.00000000000E+00 0. -1.
         -3    1    6    6    0  503  0.19860975779E+03 -0.14784550828E+03  0.51357945902E+02  0.25286709714E+03  0.00000000000E+00 0.  1.
<mgrwt>
<rscale>  0 0.50204730E+04</rscale>
<asrwt>0</asrwt>
<pdfrwt beam="1">  1        2 0.46004325E+00 0.50204730E+04</pdfrwt>
<pdfrwt beam="2">  1       -3 0.32419320E+00 0.50204730E+04</pdfrwt>
<totfact> 0.22485324E-02</totfact>
</mgrwt>
</event>
<event>
12    7  0.1857704E-007  0.2106515E+04  0.7818608E-02  0.8558379E-01
          2   -1    0    0  501    0  0.00000000000E+00  0.00000000000E+00  0.23093821602E+04  0.23093821602E+04  0.00000000000E+00 0. -1.
         -1   -1    0    0    0  501 -0.00000000000E+00 -0.00000000000E+00 -0.48036720855E+03  0.48036720855E+03  0.00000000000E+00 0.  1.
         24    2    1    2    0    0 -0.78167219122E+03 -0.17371558224E+03  0.34792579865E+03  0.87679434718E+03  0.80792622481E+02 0.  0.
        254    2    1    2    0    0  0.78167219122E+03  0.17371558224E+03  0.14810891530E+04  0.19129550215E+04  0.90806570100E+03 0.  0.
         23    2    4    4    0    0  0.91327708582E+03  0.26149814823E+03  0.93196291724E+03  0.13339390149E+04  0.91553805825E+02 0.  0.
         23    2    4    4    0    0 -0.13160489460E+03 -0.87782565995E+02  0.54912623574E+03  0.57901600664E+03  0.93243155195E+02 0.  0.
          4    1    3    3  502    0 -0.75653924092E+03 -0.16750966566E+03  0.35113264381E+03  0.85070867204E+03  0.00000000000E+00 0. -1.
         -3    1    3    3    0  502 -0.25132950306E+02 -0.62059165774E+01 -0.32068451684E+01  0.26085675142E+02  0.00000000000E+00 0.  1.
         13    1    5    5    0    0  0.85906239945E+03  0.25565617636E+03  0.90254555223E+03  0.12719814309E+04  0.00000000000E+00 0.  1.
        -13    1    5    5    0    0  0.54214686372E+02  0.58419718700E+01  0.29417365007E+02  0.61957584021E+02  0.00000000000E+00 0. -1.
          2    1    6    6  503    0 -0.20554309115E+02 -0.67312965468E+02  0.19426443834E+03  0.20662087733E+03  0.00000000000E+00 0. -1.
         -2    1    6    6    0  503 -0.11105058549E+03 -0.20469600528E+02  0.35486179740E+03  0.37239512931E+03  0.00000000000E+00 0.  1.
<mgrwt>
<rscale>  0 0.21065151E+04</rscale>
<asrwt>0</asrwt>
<pdfrwt beam="1">  1        2 0.35528956E+00 0.21065151E+04</pdfrwt>
<pdfrwt beam="2">  1       -1 0.73902649E-01 0.21065151E+04</pdfrwt>
<totfact> 0.86570328E+00</totfact>
</mgrwt>
</event>
<event>
12    7  0.1857704E-007  0.1380475E+04  0.7818608E-02  0.8968074E-01
         -1   -1    0    0    0  501 -0.00000000000E+00  0.00000000000E+00  0.32033800142E+03  0.32033800142E+03  0.00000000000E+00 0.  1.
          2   -1    0    0  501    0  0.00000000000E+00 -0.00000000000E+00 -0.14872657525E+04  0.14872657525E+04  0.00000000000E+00 0. -1.
         24    2    1    2    0    0  0.46457109752E+02 -0.87394869484E+02  0.16093045814E+03  0.20418242418E+03  0.77432058780E+02 0.  0.
        254    2    1    2    0    0 -0.46457109752E+02  0.87394869484E+02 -0.13278582092E+04  0.16034213297E+04  0.89328405929E+03 0.  0.
         23    2    4    4    0    0 -0.35335437771E+03  0.31690699542E+03 -0.90274717746E+03  0.10242580843E+04  0.94142428538E+02 0.  0.
         23    2    4    4    0    0  0.30689726796E+03 -0.22951212594E+03 -0.42511103177E+03  0.57916324543E+03  0.88594167401E+02 0.  0.
          2    1    3    3  502    0  0.80311454650E+01  0.13950793157E+02  0.12444724062E+02  0.20346869149E+02  0.00000000000E+00 0. -1.
         -1    1    3    3    0  502  0.38425964287E+02 -0.10134566264E+03  0.14848573408E+03  0.18383555503E+03  0.00000000000E+00 0.  1.
         13    1    5    5    0    0 -0.24137191386E+03  0.15784404440E+03 -0.57045741669E+03  0.63921577531E+03  0.00000000000E+00 0. -1.
        -13    1    5    5    0    0 -0.11198246385E+03  0.15906295102E+03 -0.33228976077E+03  0.38504230898E+03  0.00000000000E+00 0.  1.
          4    1    6    6  503    0  0.30923914158E+03 -0.23227802634E+03 -0.41003718763E+03  0.56365984729E+03  0.00000000000E+00 0. -1.
         -4    1    6    6    0  503 -0.23418736131E+01  0.27659004065E+01 -0.15073844133E+02  0.15503398145E+02  0.00000000000E+00 0.  1.
<mgrwt>
<rscale>  0 0.13804749E+04</rscale>
<asrwt>0</asrwt>
<pdfrwt beam="1">  1        2 0.22881012E+00 0.13804749E+04</pdfrwt>
<pdfrwt beam="2">  1       -1 0.49282769E-01 0.13804749E+04</pdfrwt>
<totfact> 0.59131076E+01</totfact>
</mgrwt>
</event>
<event>
12    7  0.1857704E-007  0.4601024E+04  0.7818608E-02  0.7893185E-01
          2   -1    0    0  501    0  0.00000000000E+00  0.00000000000E+00  0.24579281552E+04  0.24579281552E+04  0.00000000000E+00 0. -1.
         -1   -1    0    0    0  501 -0.00000000000E+00 -0.00000000000E+00 -0.21531774251E+04  0.21531774251E+04  0.00000000000E+00 0.  1.
         24    2    1    2    0    0  0.96721703876E+03  0.18219979914E+04 -0.65495278138E+03  0.21657441834E+04  0.79367760601E+02 0.  0.
        254    2    1    2    0    0 -0.96721703876E+03 -0.18219979914E+04  0.95970351151E+03  0.24453613970E+04  0.89642403528E+03 0.  0.
         23    2    4    4    0    0 -0.27197483045E+03 -0.11286460492E+04  0.15889349160E+03  0.11750305480E+04  0.87392415056E+02 0.  0.
         23    2    4    4    0    0 -0.69524220831E+03 -0.69335194216E+03  0.80081001991E+03  0.12703308490E+04  0.91351704537E+02 0.  0.
          2    1    3    3  502    0  0.21150391857E+02  0.53157615701E+02 -0.64613429558E+01  0.57574474688E+02  0.00000000000E+00 0. -1.
         -1    1    3    3    0  502  0.94606664690E+03  0.17688403757E+04 -0.64849143843E+03  0.21081697087E+04  0.00000000000E+00 0.  1.
         13    1    5    5    0    0 -0.16974601540E+03 -0.79350472915E+03  0.76266230423E+02  0.81503374337E+03  0.00000000000E+00 0.  1.
        -13    1    5    5    0    0 -0.10222881505E+03 -0.33514132007E+03  0.82627261175E+02  0.35999680462E+03  0.00000000000E+00 0. -1.
          4    1    6    6  503    0 -0.31802731533E+02 -0.64542164369E+02  0.62893378038E+02  0.95565065350E+02  0.00000000000E+00 0. -1.
         -4    1    6    6    0  503 -0.66343947678E+03 -0.62880977780E+03  0.73791664187E+03  0.11747657836E+04  0.00000000000E+00 0.  1.
<mgrwt>
<rscale>  0 0.46010240E+04</rscale>
<asrwt>0</asrwt>
<pdfrwt beam="1">  1        2 0.37814279E+00 0.46010240E+04</pdfrwt>
<pdfrwt beam="2">  1       -1 0.33125807E+00 0.46010240E+04</pdfrwt>
<totfact> 0.65002305E-02</totfact>
</mgrwt>
</event>
<event>
12    7  0.1857704E-007  0.2427585E+04  0.7818608E-02  0.8429248E-01
          2   -1    0    0  501    0  0.00000000000E+00  0.00000000000E+00  0.26021443970E+04  0.26021443970E+04  0.00000000000E+00 0. -1.
         -1   -1    0    0    0  501 -0.00000000000E+00 -0.00000000000E+00 -0.56618368447E+03  0.56618368447E+03  0.00000000000E+00 0.  1.
         24    2    1    2    0    0 -0.46128078143E+03 -0.23476913841E+03  0.20796840652E+04  0.21446195230E+04  0.80066096012E+02 0.  0.
        254    2    1    2    0    0  0.46128078143E+03  0.23476913841E+03 -0.43723352629E+02  0.10237085585E+04  0.88213999655E+03 0.  0.
         23    2    4    4    0    0  0.36109985710E+03  0.42036244618E+01 -0.42057756263E+03  0.56193401621E+03  0.92052024045E+02 0.  0.
         23    2    4    4    0    0  0.10018092433E+03  0.23056551395E+03  0.37685421000E+03  0.46177454229E+03  0.89554220964E+02 0.  0.
          4    1    3    3  502    0 -0.15687510745E+03 -0.94425540070E+02  0.59346529290E+03  0.62106926814E+03  0.00000000000E+00 0. -1.
         -3    1    3    3    0  502 -0.30440567398E+03 -0.14034359834E+03  0.14862187723E+04  0.15235502548E+04  0.00000000000E+00 0.  1.
         13    1    5    5    0    0  0.32815532873E+03  0.28218765969E+02 -0.39273555005E+03  0.51256553805E+03  0.00000000000E+00 0.  1.
        -13    1    5    5    0    0  0.32944528368E+02 -0.24015141507E+02 -0.27842012581E+02  0.49368478157E+02  0.00000000000E+00 0. -1.
          3    1    6    6  503    0  0.75221639387E+02  0.19678066958E+03  0.24361059980E+03  0.32206684289E+03  0.00000000000E+00 0. -1.
         -3    1    6    6    0  503  0.24959284947E+02  0.33784844368E+02  0.13324361020E+03  0.13970769941E+03  0.00000000000E+00 0.  1.
<mgrwt>
<rscale>  0 0.24275846E+04</rscale>
<asrwt>0</asrwt>
<pdfrwt beam="1">  1        2 0.40032990E+00 0.24275846E+04</pdfrwt>
<pdfrwt beam="2">  1       -1 0.87105184E-01 0.24275846E+04</pdfrwt>
<totfact> 0.40191985E+00</totfact>
</mgrwt>
</event>
<event>
12    7  0.1857704E-007  0.1192320E+04  0.7818608E-02  0.9119605E-01
          2   -1    0    0  501    0  0.00000000000E+00  0.00000000000E+00  0.28545915133E+04  0.28545915133E+04  0.00000000000E+00 0. -1.
         -1   -1    0    0    0  501 -0.00000000000E+00 -0.00000000000E+00 -0.12450359907E+03  0.12450359907E+03  0.00000000000E+00 0.  1.
         24    2    1    2    0    0  0.24688171167E+03 -0.10861794097E+02  0.61566520866E+03  0.66830469840E+03  0.80740093037E+02 0.  0.
        254    2    1    2    0    0 -0.24688171167E+03  0.10861794097E+02  0.21144227056E+04  0.23107904140E+04  0.89883279943E+03 0.  0.
         23    2    4    4    0    0  0.28905203985E+03 -0.99229994844E+02  0.42025697537E+03  0.52806261994E+03  0.94002827703E+02 0.  0.
         23    2    4    4    0    0 -0.53593375152E+03  0.11009178894E+03  0.16941657302E+04  0.17827277941E+04  0.92604957738E+02 0.  0.
          2    1    3    3  502    0  0.17196732353E+02 -0.68506624134E+01  0.12694295298E+03  0.12828551161E+03  0.00000000000E+00 0. -1.
         -1    1    3    3    0  502  0.22968497931E+03 -0.40111316841E+01  0.48872225569E+03  0.54001918679E+03  0.00000000000E+00 0.  1.
         13    1    5    5    0    0  0.77414942515E+01 -0.16187840347E+02  0.64673496162E+02  0.67116600138E+02  0.00000000000E+00 0.  1.
        -13    1    5    5    0    0  0.28131054560E+03 -0.83042154497E+02  0.35558347921E+03  0.46094601981E+03  0.00000000000E+00 0. -1.
          3    1    6    6  503    0 -0.35949038644E+03  0.29048788093E+02  0.10869001920E+04  0.11451764918E+04  0.00000000000E+00 0. -1.
         -3    1    6    6    0  503 -0.17644336508E+03  0.81043000849E+02  0.60726553826E+03  0.63755130227E+03  0.00000000000E+00 0.  1.
<mgrwt>
<rscale>  0 0.11923203E+04</rscale>
<asrwt>0</asrwt>
<pdfrwt beam="1">  1        2 0.43916787E+00 0.11923203E+04</pdfrwt>
<pdfrwt beam="2">  1       -1 0.19154402E-01 0.11923203E+04</pdfrwt>
<totfact> 0.53608072E+01</totfact>
</mgrwt>
</event>
<event>
12    7  0.1857704E-007  0.1193765E+04  0.7818608E-02  0.9118331E-01
          2   -1    0    0  501    0  0.00000000000E+00  0.00000000000E+00  0.86926718926E+03  0.86926718926E+03  0.00000000000E+00 0. -1.
         -1   -1    0    0    0  501 -0.00000000000E+00 -0.00000000000E+00 -0.40984969568E+03  0.40984969568E+03  0.00000000000E+00 0.  1.
         24    2    1    2    0    0  0.21321285185E+03 -0.72087106472E+02  0.25768271043E+03  0.35100567689E+03  0.78411318317E+02 0.  0.
        254    2    1    2    0    0 -0.21321285185E+03  0.72087106472E+02  0.20173478315E+03  0.92811120805E+03  0.87751764692E+03 0.  0.
         23    2    4    4    0    0 -0.45839162963E+03 -0.14731864412E+03 -0.65557433420E+02  0.49417259696E+03  0.89906114839E+02 0.  0.
         23    2    4    4    0    0  0.24517877778E+03  0.21940575059E+03  0.26729221657E+03  0.43393861109E+03  0.92768920915E+02 0.  0.
          2    1    3    3  502    0  0.14323826435E+03 -0.45317471062E+02  0.11269827629E+03  0.18780781410E+03  0.00000000000E+00 0. -1.
         -1    1    3    3    0  502  0.69974587493E+02 -0.26769635410E+02  0.14498443414E+03  0.16319786279E+03  0.00000000000E+00 0.  1.
         13    1    5    5    0    0 -0.31605806318E+03 -0.75792524527E+02 -0.90259457759E+01  0.32514408156E+03  0.00000000000E+00 0. -1.
        -13    1    5    5    0    0 -0.14233356645E+03 -0.71526119593E+02 -0.56531487644E+02  0.16902851540E+03  0.00000000000E+00 0.  1.
          1    1    6    6  503    0  0.13694325091E+03  0.68186910940E+02  0.92782293813E+02  0.17891747494E+03  0.00000000000E+00 0. -1.
         -1    1    6    6    0  503  0.10823552687E+03  0.15121883965E+03  0.17450992276E+03  0.25502113615E+03  0.00000000000E+00 0.  1.
<mgrwt>
<rscale>  0 0.11937653E+04</rscale>
<asrwt>0</asrwt>
<pdfrwt beam="1">  1        2 0.13373341E+00 0.11937653E+04</pdfrwt>
<pdfrwt beam="2">  1       -1 0.63053799E-01 0.11937653E+04</pdfrwt>
<totfact> 0.88461824E+01</totfact>
</mgrwt>
</event>
<event>
12    7  0.1857704E-007  0.1571879E+04  0.7818608E-02  0.8838012E-01
         -1   -1    0    0    0  501 -0.00000000000E+00  0.00000000000E+00  0.88511542897E+03  0.88511542897E+03  0.00000000000E+00 0.  1.
          2   -1    0    0  501    0  0.00000000000E+00 -0.00000000000E+00 -0.69787638154E+03  0.69787638154E+03  0.00000000000E+00 0. -1.
         24    2    1    2    0    0 -0.24015673599E+03  0.38171956644E+03 -0.21181766872E+03  0.50462859634E+03  0.79988813093E+02 0.  0.
        254    2    1    2    0    0  0.24015673599E+03 -0.38171956644E+03  0.39905671615E+03  0.10783632142E+04  0.89455903870E+03 0.  0.
         23    2    4    4    0    0 -0.33066658596E+03 -0.10405053317E+03  0.10625841331E+03  0.37379500652E+03  0.90911781301E+02 0.  0.
         23    2    4    4    0    0  0.57082332195E+03 -0.27766903328E+03  0.29279830284E+03  0.70456820765E+03  0.88012250083E+02 0.  0.
          4    1    3    3  502    0 -0.24456398992E+03  0.37962831393E+03 -0.21344281691E+03  0.49948677459E+03  0.00000000000E+00 0. -1.
         -3    1    3    3    0  502  0.44072539325E+01  0.20912525129E+01  0.16251481867E+01  0.51418217517E+01  0.00000000000E+00 0.  1.
         13    1    5    5    0    0 -0.28603731374E+03 -0.10055636660E+03  0.12131141546E+03  0.32656605341E+03  0.00000000000E+00 0.  1.
        -13    1    5    5    0    0 -0.44629272219E+02 -0.34941665642E+01 -0.15053002149E+02  0.47228953117E+02  0.00000000000E+00 0. -1.
          3    1    6    6  503    0  0.89258285972E+02 -0.11032863455E+02  0.50509096211E+02  0.10315005812E+03  0.00000000000E+00 0. -1.
         -3    1    6    6    0  503  0.48156503597E+03 -0.26663616982E+03  0.24228920663E+03  0.60141814952E+03  0.00000000000E+00 0.  1.
<mgrwt>
<rscale>  0 0.15718793E+04</rscale>
<asrwt>0</asrwt>
<pdfrwt beam="1">  1        2 0.10736560E+00 0.15718793E+04</pdfrwt>
<pdfrwt beam="2">  1       -1 0.13617160E+00 0.15718793E+04</pdfrwt>
<totfact> 0.20341539E+01</totfact>
</mgrwt>
</event>
<event>
12    7  0.1857704E-007  0.3050862E+04  0.7818608E-02  0.8229354E-01
         -1   -1    0    0    0  501 -0.00000000000E+00  0.00000000000E+00  0.23704927559E+04  0.23704927559E+04  0.00000000000E+00 0.  1.
          2   -1    0    0  501    0  0.00000000000E+00 -0.00000000000E+00 -0.98162719359E+03  0.98162719359E+03  0.00000000000E+00 0. -1.
         24    2    1    2    0    0  0.57578267494E+03 -0.11452496068E+04  0.12213089359E+04  0.17722298154E+04  0.77978529838E+02 0.  0.
        254    2    1    2    0    0 -0.57578267494E+03  0.11452496068E+04  0.16755662638E+03  0.15798901340E+04  0.90821542705E+03 0.  0.
         23    2    4    4    0    0  0.14799646235E+03 -0.20137349422E+02  0.10423399375E+03  0.20366616216E+03  0.91141178644E+02 0.  0.
         23    2    4    4    0    0 -0.72377913730E+03  0.11653869562E+04  0.63322632629E+02  0.13762239719E+04  0.89440861084E+02 0.  0.
          2    1    3    3  502    0  0.13340270066E+03 -0.31916809307E+03  0.29565795425E+03  0.45505843371E+03  0.00000000000E+00 0. -1.
         -1    1    3    3    0  502  0.44237997428E+03 -0.82608151373E+03  0.92565098165E+03  0.13171713817E+04  0.00000000000E+00 0.  1.
         13    1    5    5    0    0  0.43682863393E+02  0.16074611358E+02 -0.68387287501E+01  0.47046295236E+02  0.00000000000E+00 0. -1.
        -13    1    5    5    0    0  0.10431359896E+03 -0.36211960780E+02  0.11107272250E+03  0.15661986692E+03  0.00000000000E+00 0.  1.
          4    1    6    6  503    0 -0.25007554321E+03  0.48471823444E+03  0.31444588100E+02  0.54633168152E+03  0.00000000000E+00 0. -1.
         -4    1    6    6    0  503 -0.47370359409E+03  0.68066872179E+03  0.31878044529E+02  0.82989229036E+03  0.00000000000E+00 0.  1.
<mgrwt>
<rscale>  0 0.30508623E+04</rscale>
<asrwt>0</asrwt>
<pdfrwt beam="1">  1        2 0.15101957E+00 0.30508623E+04</pdfrwt>
<pdfrwt beam="2">  1       -1 0.36469119E+00 0.30508623E+04</pdfrwt>
<totfact> 0.31176782E-01</totfact>
</mgrwt>
</event>
<event>
12    7  0.1857704E-007  0.1884320E+04  0.7818608E-02  0.8662701E-01
         -1   -1    0    0    0  501 -0.00000000000E+00  0.00000000000E+00  0.39985814574E+03  0.39985814574E+03  0.00000000000E+00 0.  1.
          2   -1    0    0  501    0  0.00000000000E+00 -0.00000000000E+00 -0.22199514032E+04  0.22199514032E+04  0.00000000000E+00 0. -1.
         24    2    1    2    0    0  0.22085483827E+03  0.32830568631E+03 -0.15817278885E+04  0.16324095949E+04  0.79602065716E+02 0.  0.
        254    2    1    2    0    0 -0.22085483827E+03 -0.32830568631E+03 -0.23836536894E+03  0.98739995406E+03  0.87268501587E+03 0.  0.
         23    2    4    4    0    0  0.23336523688E+03 -0.21603619275E+03  0.15890259232E+03  0.36680417608E+03  0.90356512681E+02 0.  0.
         23    2    4    4    0    0 -0.45422007515E+03 -0.11226949356E+03 -0.39726796126E+03  0.62059577798E+03  0.91634986538E+02 0.  0.
          4    1    3    3  502    0  0.18643243325E+03  0.21217653949E+03 -0.10968910131E+04  0.11326719873E+04  0.00000000000E+00 0. -1.
         -3    1    3    3    0  502  0.34422405015E+02  0.11612914682E+03 -0.48483687539E+03  0.49973760760E+03  0.00000000000E+00 0.  1.
         13    1    5    5    0    0  0.90940344859E+01  0.72260464159E+01 -0.20100276116E+01  0.11788020234E+02  0.00000000000E+00 0. -1.
        -13    1    5    5    0    0  0.22427120239E+03 -0.22326223916E+03  0.16091261993E+03  0.35501615584E+03  0.00000000000E+00 0.  1.
          4    1    6    6  503    0 -0.92492287752E+02 -0.26258305239E+02 -0.37445248001E+02  0.10318172554E+03  0.00000000000E+00 0. -1.
         -4    1    6    6    0  503 -0.36172778739E+03 -0.86011188323E+02 -0.35982271325E+03  0.51741405244E+03  0.00000000000E+00 0.  1.
<mgrwt>
<rscale>  0 0.18843202E+04</rscale>
<asrwt>0</asrwt>
<pdfrwt beam="1">  1        2 0.34153100E+00 0.18843202E+04</pdfrwt>
<pdfrwt beam="2">  1       -1 0.61516636E-01 0.18843202E+04</pdfrwt>
<totfact> 0.14402194E+01</totfact>
</mgrwt>
</event>
<event>
12    7  0.1857704E-007  0.2066677E+04  0.7818608E-02  0.8576066E-01
         -1   -1    0    0    0  501 -0.00000000000E+00  0.00000000000E+00  0.12683270552E+04  0.12683270552E+04  0.00000000000E+00 0.  1.
          2   -1    0    0  501    0  0.00000000000E+00 -0.00000000000E+00 -0.84188743000E+03  0.84188743000E+03  0.00000000000E+00 0. -1.
         24    2    1    2    0    0 -0.60664093176E+03  0.15520511659E+03  0.74045076107E+03  0.97309131864E+03  0.80855034121E+02 0.  0.
        254    2    1    2    0    0  0.60664093176E+03 -0.15520511659E+03 -0.31401113592E+03  0.11371231665E+04  0.89573671021E+03 0.  0.
         23    2    4    4    0    0  0.82221050400E+03 -0.46634990623E+02 -0.19102757803E+03  0.85018787389E+03  0.90127410432E+02 0.  0.
         23    2    4    4    0    0 -0.21556957224E+03 -0.10857012597E+03 -0.12298355789E+03  0.28693529261E+03  0.94600179211E+02 0.  0.
          4    1    3    3  502    0 -0.18976662258E+03  0.48878039147E+02  0.29184983169E+03  0.35153486031E+03  0.00000000000E+00 0. -1.
         -3    1    3    3    0  502 -0.41687430917E+03  0.10632707745E+03  0.44860092938E+03  0.62155645833E+03  0.00000000000E+00 0.  1.
         13    1    5    5    0    0  0.79652675840E+03 -0.45180262255E+02 -0.16723361369E+03  0.81514613076E+03  0.00000000000E+00 0. -1.
        -13    1    5    5    0    0  0.25683745597E+02 -0.14547283685E+01 -0.23793964346E+02  0.35041743133E+02  0.00000000000E+00 0.  1.
          1    1    6    6  503    0 -0.75923199312E+02 -0.56464346393E+01 -0.75169826506E+02  0.10698933234E+03  0.00000000000E+00 0. -1.
         -1    1    6    6    0  503 -0.13964637293E+03 -0.10292369133E+03 -0.47813731381E+02  0.17994596027E+03  0.00000000000E+00 0.  1.
<mgrwt>
<rscale>  0 0.20666771E+04</rscale>
<asrwt>0</asrwt>
<pdfrwt beam="1">  1        2 0.12952114E+00 0.20666771E+04</pdfrwt>
<pdfrwt beam="2">  1       -1 0.19512724E+00 0.20666771E+04</pdfrwt>
<totfact> 0.55155599E+00</totfact>
</mgrwt>
</event>
<event>
12    7  0.1857704E-007  0.2858340E+04  0.7818608E-02  0.8285382E-01
         -1   -1    0    0    0  501 -0.00000000000E+00  0.00000000000E+00  0.44532653831E+03  0.44532653831E+03  0.00000000000E+00 0.  1.
          2   -1    0    0  501    0  0.00000000000E+00 -0.00000000000E+00 -0.45865823192E+04  0.45865823192E+04  0.00000000000E+00 0. -1.
         24    2    1    2    0    0 -0.88271028637E+03  0.70687567283E+03 -0.79657021800E+03  0.13857490699E+04  0.83220826035E+02 0.  0.
        254    2    1    2    0    0  0.88271028637E+03 -0.70687567283E+03 -0.33446855629E+04  0.36461597877E+04  0.91033456270E+03 0.  0.
         23    2    4    4    0    0  0.55276709012E+03 -0.55055457745E+02 -0.68554442373E+03  0.88701626237E+03  0.90797210584E+02 0.  0.
         23    2    4    4    0    0  0.32994319625E+03 -0.65182021508E+03 -0.26591411392E+04  0.27591435253E+04  0.90051594329E+02 0.  0.
          4    1    3    3  502    0 -0.24260416243E+03  0.15159466100E+03 -0.21827647231E+03  0.35983654517E+03  0.00000000000E+00 0. -1.
         -3    1    3    3    0  502 -0.64010612393E+03  0.55528101183E+03 -0.57829374570E+03  0.10259125247E+04  0.00000000000E+00 0.  1.
         13    1    5    5    0    0  0.44850687256E+02  0.13578793844E+02 -0.33286044851E+02  0.57479810120E+02  0.00000000000E+00 0. -1.
        -13    1    5    5    0    0  0.50791640286E+03 -0.68634251589E+02 -0.65225837888E+03  0.82953645225E+03  0.00000000000E+00 0.  1.
          1    1    6    6  503    0  0.66637106451E+02 -0.66540775987E+02 -0.35909887487E+03  0.37124140496E+03  0.00000000000E+00 0. -1.
         -1    1    6    6    0  503  0.26330608980E+03 -0.58527943910E+03 -0.23000422643E+04  0.23879021203E+04  0.00000000000E+00 0.  1.
<mgrwt>
<rscale>  0 0.28583400E+04</rscale>
<asrwt>0</asrwt>
<pdfrwt beam="1">  1        2 0.70562802E+00 0.28583400E+04</pdfrwt>
<pdfrwt beam="2">  1       -1 0.68511777E-01 0.28583400E+04</pdfrwt>
<totfact> 0.21424816E-01</totfact>
</mgrwt>
</event>
<event>
12    7  0.1857704E-007  0.2123595E+04  0.7818608E-02  0.8550920E-01
         -1   -1    0    0    0  501 -0.00000000000E+00  0.00000000000E+00  0.66534348826E+03  0.66534348826E+03  0.00000000000E+00 0.  1.
          2   -1    0    0  501    0  0.00000000000E+00 -0.00000000000E+00 -0.16944842114E+04  0.16944842114E+04  0.00000000000E+00 0. -1.
         24    2    1    2    0    0 -0.77761037423E+03  0.92924576741E+02 -0.83003833744E+03  0.11440261670E+04  0.80742541965E+02 0.  0.
        254    2    1    2    0    0  0.77761037423E+03 -0.92924576741E+02 -0.19910238567E+03  0.12158015326E+04  0.90841550828E+03 0.  0.
         23    2    4    4    0    0 -0.80164882398E+02  0.20608002583E+03 -0.18592884717E+03  0.30278749127E+03  0.90638530678E+02 0.  0.
         23    2    4    4    0    0  0.85777525663E+03 -0.29900460257E+03 -0.13173538502E+02  0.91301404136E+03  0.90768686047E+02 0.  0.
          2    1    3    3  502    0 -0.64241883364E+03  0.79117755594E+02 -0.63870285806E+03  0.90934202474E+03  0.00000000000E+00 0. -1.
         -1    1    3    3    0  502 -0.13519154059E+03  0.13806821147E+02 -0.19133547938E+03  0.23468414226E+03  0.00000000000E+00 0.  1.
         13    1    5    5    0    0 -0.25913984279E+02  0.59490490103E+01 -0.44350928908E+02  0.51710063434E+02  0.00000000000E+00 0. -1.
        -13    1    5    5    0    0 -0.54250898119E+02  0.20013097681E+03 -0.14157791826E+03  0.25107742783E+03  0.00000000000E+00 0.  1.
          4    1    6    6  503    0  0.29228934933E+03 -0.14713115386E+03  0.35231377874E+01  0.32725074892E+03  0.00000000000E+00 0.  1.
         -4    1    6    6    0  503  0.56548590730E+03 -0.15187344871E+03 -0.16696676289E+02  0.58576329244E+03  0.00000000000E+00 0. -1.
<mgrwt>
<rscale>  0 0.21235951E+04</rscale>
<asrwt>0</asrwt>
<pdfrwt beam="1">  1        2 0.26068988E+00 0.21235951E+04</pdfrwt>
<pdfrwt beam="2">  1       -1 0.10236054E+00 0.21235951E+04</pdfrwt>
<totfact> 0.93442016E+00</totfact>
</mgrwt>
</event>
<event>
12    7  0.1857704E-007  0.1674148E+04  0.7818608E-02  0.8776248E-01
         -1   -1    0    0    0  501 -0.00000000000E+00  0.00000000000E+00  0.54243972996E+03  0.54243972996E+03  0.00000000000E+00 0.  1.
          2   -1    0    0  501    0  0.00000000000E+00 -0.00000000000E+00 -0.12917435058E+04  0.12917435058E+04  0.00000000000E+00 0. -1.
         24    2    1    2    0    0  0.22508854745E+03  0.13265244979E+03 -0.85351462394E+03  0.89625190172E+03  0.80738661320E+02 0.  0.
        254    2    1    2    0    0 -0.22508854745E+03 -0.13265244979E+03  0.10421084807E+03  0.93793133408E+03  0.89475905134E+03 0.  0.
         23    2    4    4    0    0  0.15062714272E+03 -0.34477894516E+03 -0.16526859373E+03  0.42108989511E+03  0.91880000774E+02 0.  0.
         23    2    4    4    0    0 -0.37571569017E+03  0.21212649537E+03  0.26947944180E+03  0.51684143897E+03  0.91356300292E+02 0.  0.
          4    1    3    3  502    0  0.12802880926E+03  0.44654258935E+02 -0.33403405378E+03  0.36050537850E+03  0.00000000000E+00 0. -1.
         -3    1    3    3    0  502  0.97059738186E+02  0.87998190851E+02 -0.51948057017E+03  0.53574652323E+03  0.00000000000E+00 0.  1.
         13    1    5    5    0    0  0.12893137210E+03 -0.30227182796E+03 -0.17510667766E+03  0.37236259916E+03  0.00000000000E+00 0.  1.
        -13    1    5    5    0    0  0.21695770618E+02 -0.42507117201E+02  0.98380839339E+01  0.48727295953E+02  0.00000000000E+00 0. -1.
          3    1    6    6  503    0  0.25952763981E+01  0.13211804768E+02  0.10605770739E+02  0.17139708800E+02  0.00000000000E+00 0. -1.
         -3    1    6    6    0  503 -0.37831096657E+03  0.19891469061E+03  0.25887367106E+03  0.49970173017E+03  0.00000000000E+00 0.  1.
<mgrwt>
<rscale>  0 0.16741481E+04</rscale>
<asrwt>0</asrwt>
<pdfrwt beam="1">  1        2 0.19872977E+00 0.16741481E+04</pdfrwt>
<pdfrwt beam="2">  1       -1 0.83452266E-01 0.16741481E+04</pdfrwt>
<totfact> 0.25888217E+01</totfact>
</mgrwt>
</event>
<event>
12    7  0.1857704E-007  0.1788481E+04  0.7818608E-02  0.8712449E-01
         -1   -1    0    0    0  501 -0.00000000000E+00  0.00000000000E+00  0.57170532526E+03  0.57170532526E+03  0.00000000000E+00 0.  1.
          2   -1    0    0  501    0  0.00000000000E+00 -0.00000000000E+00 -0.13987388031E+04  0.13987388031E+04  0.00000000000E+00 0. -1.
         24    2    1    2    0    0  0.36280904634E+03  0.44206181146E+03 -0.53252915092E+03  0.78545658080E+03  0.79408403110E+02 0.  0.
        254    2    1    2    0    0 -0.36280904634E+03 -0.44206181146E+03 -0.29450432688E+03  0.11849875475E+04  0.99519527731E+03 0.  0.
         23    2    4    4    0    0 -0.11750122203E+03 -0.35718920689E+03 -0.63724810501E+03  0.74540155601E+03  0.90264420822E+02 0.  0.
         23    2    4    4    0    0 -0.24530782431E+03 -0.84872604569E+02  0.34274377813E+03  0.43958599152E+03  0.91560137718E+02 0.  0.
          2    1    3    3  502    0  0.20698857661E+03  0.25765437647E+03 -0.25379629562E+03  0.41670446149E+03  0.00000000000E+00 0. -1.
         -1    1    3    3    0  502  0.15582046973E+03  0.18440743499E+03 -0.27873285530E+03  0.36875211930E+03  0.00000000000E+00 0.  1.
         13    1    5    5    0    0 -0.95444410541E+02 -0.21708170160E+03 -0.32371307310E+03  0.40127827547E+03  0.00000000000E+00 0. -1.
        -13    1    5    5    0    0 -0.22056811493E+02 -0.14010750530E+03 -0.31353503191E+03  0.34412328054E+03  0.00000000000E+00 0.  1.
          1    1    6    6  503    0 -0.22915419796E+03 -0.46808469166E+02  0.28965625660E+03  0.37229481089E+03  0.00000000000E+00 0. -1.
         -1    1    6    6    0  503 -0.16153626349E+02 -0.38064135402E+02  0.53087521532E+02  0.67291180630E+02  0.00000000000E+00 0.  1.
<mgrwt>
<rscale>  0 0.17884814E+04</rscale>
<asrwt>0</asrwt>
<pdfrwt beam="1">  1        2 0.21519058E+00 0.17884814E+04</pdfrwt>
<pdfrwt beam="2">  1       -1 0.87954666E-01 0.17884814E+04</pdfrwt>
<totfact> 0.19836130E+01</totfact>
</mgrwt>
</event>
<event>
12    7  0.1857704E-007  0.1337396E+04  0.7818608E-02  0.9000424E-01
         -1   -1    0    0    0  501 -0.00000000000E+00  0.00000000000E+00  0.70543953381E+03  0.70543953381E+03  0.00000000000E+00 0.  1.
          2   -1    0    0  501    0  0.00000000000E+00 -0.00000000000E+00 -0.63386995848E+03  0.63386995848E+03  0.00000000000E+00 0. -1.
         24    2    1    2    0    0  0.24864824975E+03  0.25591454259E+03  0.27118364558E+02  0.36755111943E+03  0.83905986031E+02 0.  0.
        254    2    1    2    0    0 -0.24864824975E+03 -0.25591454259E+03  0.44451210766E+02  0.97175837286E+03  0.90278470295E+03 0.  0.
         23    2    4    4    0    0 -0.52598617479E+02  0.29921327747E+03 -0.14245074555E+03  0.34794705800E+03  0.92085505309E+02 0.  0.
         23    2    4    4    0    0 -0.19604963227E+03 -0.55512782006E+03  0.18690195631E+03  0.62381131486E+03  0.87211583827E+02 0.  0.
          4    1    3    3  502    0  0.96396509603E+02  0.78870103783E+02 -0.27930063732E+02  0.12764352234E+03  0.00000000000E+00 0. -1.
         -3    1    3    3    0  502  0.15225174014E+03  0.17704443880E+03  0.55048428291E+02  0.23990759710E+03  0.00000000000E+00 0.  1.
         13    1    5    5    0    0 -0.35577839653E+00  0.15293596302E+03 -0.11225593781E+03  0.18971275902E+03  0.00000000000E+00 0.  1.
        -13    1    5    5    0    0 -0.52242839083E+02  0.14627731445E+03 -0.30194807742E+02  0.15823429898E+03  0.00000000000E+00 0. -1.
          1    1    6    6  503    0 -0.11819326945E+03 -0.41980591823E+03  0.11003534771E+03  0.44979377015E+03  0.00000000000E+00 0. -1.
         -1    1    6    6    0  503 -0.77856362818E+02 -0.13532190183E+03  0.76866608608E+02  0.17401754471E+03  0.00000000000E+00 0.  1.
<mgrwt>
<rscale>  0 0.13373959E+04</rscale>
<asrwt>0</asrwt>
<pdfrwt beam="1">  1        2 0.97518455E-01 0.13373959E+04</pdfrwt>
<pdfrwt beam="2">  1       -1 0.10852916E+00 0.13373959E+04</pdfrwt>
<totfact> 0.40836051E+01</totfact>
</mgrwt>
</event>
<event>
12    7  0.1857704E-007  0.1599168E+04  0.7818608E-02  0.8821059E-01
          2   -1    0    0  501    0  0.00000000000E+00  0.00000000000E+00  0.96382050402E+03  0.96382050402E+03  0.00000000000E+00 0. -1.
         -1   -1    0    0    0  501 -0.00000000000E+00 -0.00000000000E+00 -0.66333398063E+03  0.66333398063E+03  0.00000000000E+00 0.  1.
         24    2    1    2    0    0 -0.50260828151E+03 -0.19700093889E+03  0.16577789209E+03  0.57024782438E+03  0.79220055150E+02 0.  0.
        254    2    1    2    0    0  0.50260828151E+03  0.19700093889E+03  0.13470863130E+03  0.10569066603E+04  0.89859936491E+03 0.  0.
         23    2    4    4    0    0 -0.23399164838E+03 -0.54033164224E+02  0.10086597918E+03  0.27260716039E+03  0.80430366097E+02 0.  0.
         23    2    4    4    0    0  0.73659992988E+03  0.25103410312E+03  0.33842652113E+02  0.78429949989E+03  0.91557647351E+02 0.  0.
          2    1    3    3  502    0 -0.50661004422E+02 -0.24837668636E+02 -0.66238284584E+01  0.56809526101E+02  0.00000000000E+00 0. -1.
         -3    1    3    3    0  502 -0.45194727708E+03 -0.17216327026E+03  0.17240172055E+03  0.51343829828E+03  0.00000000000E+00 0.  1.
         13    1    5    5    0    0 -0.96282709203E+02 -0.32382185369E+02  0.18132283734E+01  0.10159849319E+03  0.00000000000E+00 0. -1.
        -13    1    5    5    0    0 -0.13770893917E+03 -0.21650978855E+02  0.99052750811E+02  0.17100866720E+03  0.00000000000E+00 0.  1.
          4    1    6    6  503    0  0.28309660148E+03  0.53571264065E+02  0.29771012159E+02  0.28965475875E+03  0.00000000000E+00 0. -1.
         -4    1    6    6    0  503  0.45350332840E+03  0.19746283905E+03  0.40716399535E+01  0.49464474113E+03  0.00000000000E+00 0.  1.
<mgrwt>
<rscale>  0 0.15991684E+04</rscale>
<asrwt>0</asrwt>
<pdfrwt beam="1">  1        2 0.14828008E+00 0.15991684E+04</pdfrwt>
<pdfrwt beam="2">  1       -1 0.10205138E+00 0.15991684E+04</pdfrwt>
<totfact> 0.26469801E+01</totfact>
</mgrwt>
</event>
<event>
12    7  0.1857704E-007  0.1724720E+04  0.7818608E-02  0.8747390E-01
         -1   -1    0    0    0  501 -0.00000000000E+00  0.00000000000E+00  0.51264549538E+03  0.51264549538E+03  0.00000000000E+00 0.  1.
          2   -1    0    0  501    0  0.00000000000E+00 -0.00000000000E+00 -0.14506415176E+04  0.14506415176E+04  0.00000000000E+00 0. -1.
         24    2    1    2    0    0 -0.57416711585E+03 -0.18476723926E+03 -0.12284268956E+03  0.62064918764E+03  0.79424669409E+02 0.  0.
        254    2    1    2    0    0  0.57416711585E+03  0.18476723926E+03 -0.81515333261E+03  0.13426378253E+04  0.87999691170E+03 0.  0.
         23    2    4    4    0    0  0.19254600046E+03  0.44282907915E+03 -0.70638344657E+03  0.86040083603E+03  0.90224550035E+02 0.  0.
         23    2    4    4    0    0  0.38162111539E+03 -0.25806183989E+03 -0.10876988604E+03  0.48223698926E+03  0.92146821877E+02 0.  0.
          4    1    3    3  502    0 -0.12083670448E+03 -0.10088415441E+02 -0.85003532363E+01  0.12155468432E+03  0.00000000000E+00 0. -1.
         -3    1    3    3    0  502 -0.45333041137E+03 -0.17467882382E+03 -0.11434233633E+03  0.49909450332E+03  0.00000000000E+00 0.  1.
         13    1    5    5    0    0  0.32224555214E+01 -0.43179830414E+01 -0.51178723759E+01  0.74311381893E+01  0.00000000000E+00 0.  1.
        -13    1    5    5    0    0  0.18932354494E+03  0.44714706219E+03 -0.70126557419E+03  0.85296969784E+03  0.00000000000E+00 0. -1.
          1    1    6    6  503    0  0.23469770730E+03 -0.18257432276E+03 -0.28872675230E+02  0.29874743265E+03  0.00000000000E+00 0. -1.
         -1    1    6    6    0  503  0.14692340809E+03 -0.75487517125E+02 -0.79897210811E+02  0.18348955660E+03  0.00000000000E+00 0.  1.
<mgrwt>
<rscale>  0 0.17247201E+04</rscale>
<asrwt>0</asrwt>
<pdfrwt beam="1">  1        2 0.22317562E+00 0.17247201E+04</pdfrwt>
<pdfrwt beam="2">  1       -1 0.78868536E-01 0.17247201E+04</pdfrwt>
<totfact> 0.23560880E+01</totfact>
</mgrwt>
</event>
<event>
12    7  0.1857704E-007  0.2953510E+04  0.7818608E-02  0.8257132E-01
          2   -1    0    0  501    0  0.00000000000E+00  0.00000000000E+00  0.21660638227E+04  0.21660638227E+04  0.00000000000E+00 0. -1.
         -1   -1    0    0    0  501 -0.00000000000E+00 -0.00000000000E+00 -0.10068059651E+04  0.10068059651E+04  0.00000000000E+00 0.  1.
         24    2    1    2    0    0 -0.23900204147E+03  0.65564403113E+03  0.17015782821E+04  0.18407930659E+04  0.78481780811E+02 0.  0.
        254    2    1    2    0    0  0.23900204147E+03 -0.65564403113E+03 -0.54232042454E+03  0.13320767219E+04  0.99665735277E+03 0.  0.
         23    2    4    4    0    0 -0.16334367851E+03 -0.74861819547E+03 -0.22648477754E+03  0.80371961996E+03  0.86945460811E+02 0.  0.
         23    2    4    4    0    0  0.40234571998E+03  0.92974164348E+02 -0.31583564700E+03  0.52835710196E+03  0.94248594967E+02 0.  0.
          4    1    3    3  502    0 -0.17931748608E+03  0.47462995988E+03  0.13227105231E+04  0.14166832700E+04  0.00000000000E+00 0. -1.
         -3    1    3    3    0  502 -0.59684555381E+02  0.18101407125E+03  0.37886775901E+03  0.42410979588E+03  0.00000000000E+00 0.  1.
         13    1    5    5    0    0 -0.11127793451E+03 -0.43402870856E+03 -0.90755792271E+02  0.45716551969E+03  0.00000000000E+00 0.  1.
        -13    1    5    5    0    0 -0.52065743997E+02 -0.31458948691E+03 -0.13572898527E+03  0.34655410027E+03  0.00000000000E+00 0. -1.
          1    1    6    6  503    0  0.19602720476E+02 -0.99663154832E+01 -0.70642720744E+00  0.22002116575E+02  0.00000000000E+00 0. -1.
         -1    1    6    6    0  503  0.38274299950E+03  0.10294047983E+03 -0.31512921980E+03  0.50635498538E+03  0.00000000000E+00 0.  1.
<mgrwt>
<rscale>  0 0.29535104E+04</rscale>
<asrwt>0</asrwt>
<pdfrwt beam="1">  1        2 0.33324059E+00 0.29535104E+04</pdfrwt>
<pdfrwt beam="2">  1       -1 0.15489323E+00 0.29535104E+04</pdfrwt>
<totfact> 0.16857263E+00</totfact>
</mgrwt>
</event>
<event>
12    7  0.1906486E-007  0.1932983E+04  0.7818608E-02  0.8638611E-01
          2   -1    0    0  501    0  0.00000000000E+00  0.00000000000E+00  0.11530500191E+04  0.11530500191E+04  0.00000000000E+00 0. -1.
         -1   -1    0    0    0  501 -0.00000000000E+00 -0.00000000000E+00 -0.81011741733E+03  0.81011741733E+03  0.00000000000E+00 0.  1.
         24    2    1    2    0    0 -0.56677916756E+03  0.13341065361E+03 -0.35270091455E+03  0.68539011078E+03  0.79527615021E+02 0.  0.
        254    2    1    2    0    0  0.56677916756E+03 -0.13341065361E+03  0.69563351630E+03  0.12777773256E+04  0.89987325643E+03 0.  0.
         23    2    4    4    0    0  0.75077601208E+03  0.75805316130E+02  0.60191540764E+03  0.96958840208E+03  0.91588455784E+02 0.  0.
         23    2    4    4    0    0 -0.18399684452E+03 -0.20921596974E+03  0.93718108664E+02  0.30818892356E+03  0.92580602302E+02 0.  0.
          4    1    3    3  502    0 -0.55421041695E+02  0.25866287848E+01 -0.60467374822E+02  0.82063913683E+02  0.00000000000E+00 0. -1.
         -3    1    3    3    0  502 -0.51135812586E+03  0.13082402483E+03 -0.29223353973E+03  0.60332619710E+03  0.00000000000E+00 0.  1.
         13    1    5    5    0    0  0.50441470586E+03  0.25688283151E+02  0.35614054089E+03  0.61800499047E+03  0.00000000000E+00 0.  1.
        -13    1    5    5    0    0  0.24636130622E+03  0.50117032979E+02  0.24577486675E+03  0.35158341161E+03  0.00000000000E+00 0. -1.
          2    1    6    6  503    0 -0.14022772437E+03 -0.18405456102E+03  0.40628385450E+02  0.23492671585E+03  0.00000000000E+00 0. -1.
         -2    1    6    6    0  503 -0.43769120144E+02 -0.25161408723E+02  0.53089723214E+02  0.73262207706E+02  0.00000000000E+00 0.  1.
<mgrwt>
<rscale>  0 0.19329831E+04</rscale>
<asrwt>0</asrwt>
<pdfrwt beam="1">  1        2 0.17739231E+00 0.19329831E+04</pdfrwt>
<pdfrwt beam="2">  1       -1 0.12463345E+00 0.19329831E+04</pdfrwt>
<totfact> 0.12140466E+01</totfact>
</mgrwt>
</event>
<event>
12    7  0.1857704E-007  0.1620283E+04  0.7818608E-02  0.8808183E-01
         -1   -1    0    0    0  501 -0.00000000000E+00  0.00000000000E+00  0.22985256645E+03  0.22985256645E+03  0.00000000000E+00 0.  1.
          2   -1    0    0  501    0  0.00000000000E+00 -0.00000000000E+00 -0.28554374892E+04  0.28554374892E+04  0.00000000000E+00 0. -1.
         24    2    1    2    0    0  0.47920792669E+03  0.13563040747E+03 -0.43413975034E+03  0.66560426378E+03  0.80720931009E+02 0.  0.
        254    2    1    2    0    0 -0.47920792669E+03 -0.13563040747E+03 -0.21914451724E+04  0.24196857919E+04  0.89688992818E+03 0.  0.
         23    2    4    4    0    0 -0.53693461380E+03 -0.14395705901E+03 -0.59478684525E+03  0.81936820016E+03  0.92576680795E+02 0.  0.
         23    2    4    4    0    0  0.57726687103E+02  0.83266515420E+01 -0.15966583272E+04  0.16003175917E+04  0.91087194983E+02 0.  0.
          4    1    3    3  502    0  0.75529040549E+02  0.52750182551E+02 -0.70529576988E+02  0.11602430330E+03  0.00000000000E+00 0. -1.
         -3    1    3    3    0  502  0.40367888615E+03  0.82880224920E+02 -0.36361017335E+03  0.54957996049E+03  0.00000000000E+00 0.  1.
         13    1    5    5    0    0 -0.15156038142E+03  0.15058479735E+01 -0.16584714723E+03  0.22467330291E+03  0.00000000000E+00 0.  1.
        -13    1    5    5    0    0 -0.38537423238E+03 -0.14546290699E+03 -0.42893969801E+03  0.59469489726E+03  0.00000000000E+00 0. -1.
          2    1    6    6  503    0  0.30619508003E+02  0.38615227585E+02 -0.40816211269E+03  0.41112650159E+03  0.00000000000E+00 0. -1.
         -2    1    6    6    0  503  0.27107179101E+02 -0.30288576043E+02 -0.11884962145E+04  0.11891910901E+04  0.00000000000E+00 0.  1.
<mgrwt>
<rscale>  0 0.16202835E+04</rscale>
<asrwt>0</asrwt>
<pdfrwt beam="1">  1        2 0.43929808E+00 0.16202835E+04</pdfrwt>
<pdfrwt beam="2">  1       -1 0.35361933E-01 0.16202835E+04</pdfrwt>
<totfact> 0.17849193E+01</totfact>
</mgrwt>
</event>
<event>
12    7  0.1857704E-007  0.1236733E+04  0.7818608E-02  0.9081298E-01
         -1   -1    0    0    0  501 -0.00000000000E+00  0.00000000000E+00  0.41209256649E+03  0.41209256649E+03  0.00000000000E+00 0.  1.
          2   -1    0    0  501    0  0.00000000000E+00 -0.00000000000E+00 -0.92789122428E+03  0.92789122428E+03  0.00000000000E+00 0. -1.
         24    2    1    2    0    0  0.15282459858E+03 -0.38153471955E+02 -0.37764334964E+03  0.41736162296E+03  0.82250710878E+02 0.  0.
        254    2    1    2    0    0 -0.15282459858E+03  0.38153471955E+02 -0.13815530816E+03  0.92262216781E+03  0.89851751792E+03 0.  0.
         23    2    4    4    0    0 -0.13696816274E+03 -0.40938733891E+03 -0.15029098888E+03  0.46598549576E+03  0.90536346602E+02 0.  0.
         23    2    4    4    0    0 -0.15856435838E+02  0.44754081086E+03  0.12135680718E+02  0.45663667206E+03  0.88462260739E+02 0.  0.
          4    1    3    3  502    0  0.12801868872E+03 -0.58724077427E+02 -0.33867752740E+03  0.36679663235E+03  0.00000000000E+00 0. -1.
         -3    1    3    3    0  502  0.24805909858E+02  0.20570605472E+02 -0.38965822235E+02  0.50564990614E+02  0.00000000000E+00 0.  1.
         13    1    5    5    0    0 -0.98396418931E+01 -0.93058160672E+02 -0.41891127877E+00  0.93577856926E+02  0.00000000000E+00 0.  1.
        -13    1    5    5    0    0 -0.12712852085E+03 -0.31632917823E+03 -0.14987207760E+03  0.37240763883E+03  0.00000000000E+00 0. -1.
          4    1    6    6  503    0  0.65746870753E+01  0.42218019365E+03  0.16163424142E+02  0.42254064740E+03  0.00000000000E+00 0. -1.
         -4    1    6    6    0  503 -0.22431122914E+02  0.25360617208E+02 -0.40277434238E+01  0.34096024658E+02  0.00000000000E+00 0.  1.
<mgrwt>
<rscale>  0 0.12367329E+04</rscale>
<asrwt>0</asrwt>
<pdfrwt beam="1">  1        2 0.14275250E+00 0.12367329E+04</pdfrwt>
<pdfrwt beam="2">  1       -1 0.63398856E-01 0.12367329E+04</pdfrwt>
<totfact> 0.79600156E+01</totfact>
</mgrwt>
</event>
<event>
12    7  0.1857704E-007  0.4003510E+04  0.7818608E-02  0.8003839E-01
         -1   -1    0    0    0  501 -0.00000000000E+00  0.00000000000E+00  0.10998875685E+04  0.10998875685E+04  0.00000000000E+00 0.  1.
          2   -1    0    0  501    0  0.00000000000E+00 -0.00000000000E+00 -0.36431211402E+04  0.36431211402E+04  0.00000000000E+00 0. -1.
         24    2    1    2    0    0 -0.90444265443E+02 -0.35227018020E+03  0.10011085274E+04  0.10693422393E+04  0.94868835597E+02 0.  0.
        254    2    1    2    0    0  0.90444265443E+02  0.35227018020E+03 -0.35443420991E+04  0.36736664694E+04  0.89509215619E+03 0.  0.
         23    2    4    4    0    0  0.33184701851E+03 -0.35223697100E+02 -0.25779326806E+04  0.26009235804E+04  0.87769089491E+02 0.  0.
         23    2    4    4    0    0 -0.24140275307E+03  0.38749387730E+03 -0.96640941853E+03  0.10727428890E+04  0.91669774480E+02 0.  0.
          4    1    3    3  502    0 -0.16165525581E+02 -0.46851012492E+02  0.64143363232E+02  0.81059932369E+02  0.00000000000E+00 0. -1.
         -3    1    3    3    0  502 -0.74278739863E+02 -0.30541916771E+03  0.93696516420E+03  0.98828230690E+03  0.00000000000E+00 0.  1.
         13    1    5    5    0    0  0.88408578996E+02 -0.17043022870E+02 -0.10218514540E+04  0.10258103799E+04  0.00000000000E+00 0. -1.
        -13    1    5    5    0    0  0.24343843952E+03 -0.18180674231E+02 -0.15560812266E+04  0.15751132005E+04  0.00000000000E+00 0.  1.
          4    1    6    6  503    0 -0.40514372569E+02  0.66845227320E+02 -0.97077586112E+02  0.12463449172E+03  0.00000000000E+00 0. -1.
         -4    1    6    6    0  503 -0.20088838050E+03  0.32064864998E+03 -0.86933183242E+03  0.94810839729E+03  0.00000000000E+00 0.  1.
<mgrwt>
<rscale>  0 0.40035103E+04</rscale>
<asrwt>0</asrwt>
<pdfrwt beam="1">  1        2 0.56048018E+00 0.40035103E+04</pdfrwt>
<pdfrwt beam="2">  1       -1 0.16921347E+00 0.40035103E+04</pdfrwt>
<totfact> 0.14306366E-01</totfact>
</mgrwt>
</event>
<event>
12    7  0.1857704E-007  0.1084272E+04  0.7818608E-02  0.9220659E-01
          2   -1    0    0  501    0  0.00000000000E+00  0.00000000000E+00  0.11974325398E+04  0.11974325398E+04  0.00000000000E+00 0. -1.
         -1   -1    0    0    0  501 -0.00000000000E+00 -0.00000000000E+00 -0.24545130208E+03  0.24545130208E+03  0.00000000000E+00 0.  1.
         24    2    1    2    0    0 -0.10679363013E+03  0.10199829018E+03  0.20844476092E+03  0.26762299997E+03  0.79776695356E+02 0.  0.
        254    2    1    2    0    0  0.10679363013E+03 -0.10199829018E+03  0.74353647680E+03  0.11752608419E+04  0.89809967350E+03 0.  0.
         23    2    4    4    0    0  0.18610416821E+03  0.63109492726E+02 -0.14685764638E+03  0.26162709665E+03  0.90906544887E+02 0.  0.
         23    2    4    4    0    0 -0.79310538074E+02 -0.16510778291E+03  0.89039412319E+03  0.91363374525E+03  0.91510570061E+02 0.  0.
          2    1    3    3  502    0 -0.10876871952E+03  0.11103275468E+03  0.20599553654E+03  0.25805632725E+03  0.00000000000E+00 0. -1.
         -1    1    3    3    0  502  0.19750893892E+01 -0.90344645015E+01  0.24492243805E+01  0.95666727230E+01  0.00000000000E+00 0.  1.
         13    1    5    5    0    0 -0.91175014281E+01 -0.33917848254E+01 -0.30238633634E+01  0.10187089193E+02  0.00000000000E+00 0. -1.
        -13    1    5    5    0    0  0.19522166964E+03  0.66501277552E+02 -0.14383378302E+03  0.25144000746E+03  0.00000000000E+00 0.  1.
          1    1    6    6  503    0 -0.42487548646E+02 -0.13976860199E+03  0.79469436713E+03  0.80800964787E+03  0.00000000000E+00 0.  1.
         -1    1    6    6    0  503 -0.36822989429E+02 -0.25339180911E+02  0.95699756054E+02  0.10562409739E+03  0.00000000000E+00 0. -1.
<mgrwt>
<rscale>  0 0.10842719E+04</rscale>
<asrwt>0</asrwt>
<pdfrwt beam="1">  1        2 0.18422039E+00 0.10842719E+04</pdfrwt>
<pdfrwt beam="2">  1       -1 0.37761739E-01 0.10842719E+04</pdfrwt>
<totfact> 0.14553531E+02</totfact>
</mgrwt>
</event>
<event>
12    7  0.1857704E-007  0.1248798E+04  0.7818608E-02  0.9071184E-01
         -1   -1    0    0    0  501 -0.00000000000E+00  0.00000000000E+00  0.15221660093E+04  0.15221660093E+04  0.00000000000E+00 0.  1.
          2   -1    0    0  501    0  0.00000000000E+00 -0.00000000000E+00 -0.25613117078E+03  0.25613117078E+03  0.00000000000E+00 0. -1.
         24    2    1    2    0    0  0.36007747375E+02 -0.58673801991E+02  0.73006559319E+03  0.73777653887E+03  0.81112748865E+02 0.  0.
        254    2    1    2    0    0 -0.36007747375E+02  0.58673801991E+02  0.53596924530E+03  0.10405206412E+04  0.88920245159E+03 0.  0.
         23    2    4    4    0    0 -0.38280272915E+03 -0.75131225800E+02  0.26484518368E+02  0.40167110637E+03  0.91954431379E+02 0.  0.
         23    2    4    4    0    0  0.34679498177E+03  0.13380502779E+03  0.50948472693E+03  0.63884953481E+03  0.10189944216E+03 0.  0.
          2    1    3    3  502    0 -0.24195800822E+02 -0.57497192657E+01  0.22798214017E+03  0.22933458589E+03  0.00000000000E+00 0. -1.
         -1    1    3    3    0  502  0.60203548198E+02 -0.52924082725E+02  0.50208345302E+03  0.50844195298E+03  0.00000000000E+00 0.  1.
         13    1    5    5    0    0 -0.35720741065E+03 -0.84437576566E+02  0.43403688994E+02  0.36960887270E+03  0.00000000000E+00 0. -1.
        -13    1    5    5    0    0 -0.25595318492E+02  0.93063507656E+01 -0.16919170626E+02  0.32062233671E+02  0.00000000000E+00 0.  1.
          2    1    6    6  503    0  0.30566148298E+03  0.11158932548E+03  0.49000125027E+03  0.58820263941E+03  0.00000000000E+00 0. -1.
         -2    1    6    6    0  503  0.41133498790E+02  0.22215702307E+02  0.19483476666E+02  0.50646895409E+02  0.00000000000E+00 0.  1.
<mgrwt>
<rscale>  0 0.12487981E+04</rscale>
<asrwt>0</asrwt>
<pdfrwt beam="1">  1        2 0.39404797E-01 0.12487981E+04</pdfrwt>
<pdfrwt beam="2">  1       -1 0.23417938E+00 0.12487981E+04</pdfrwt>
<totfact> 0.13095541E+01</totfact>
</mgrwt>
</event>
<event>
12    7  0.1857704E-007  0.2831347E+04  0.7818608E-02  0.8293602E-01
          2   -1    0    0  501    0  0.00000000000E+00  0.00000000000E+00  0.23025493087E+04  0.23025493087E+04  0.00000000000E+00 0. -1.
         -1   -1    0    0    0  501 -0.00000000000E+00 -0.00000000000E+00 -0.87039673490E+03  0.87039673490E+03  0.00000000000E+00 0.  1.
         24    2    1    2    0    0 -0.10772597106E+04 -0.66711979379E+03  0.51978403656E+03  0.13719699906E+04  0.81172082181E+02 0.  0.
        254    2    1    2    0    0  0.10772597106E+04  0.66711979379E+03  0.91236853729E+03  0.18009760531E+04  0.89753055238E+03 0.  0.
         23    2    4    4    0    0  0.24444865329E+03  0.92540609428E+00  0.64730466065E+03  0.69833353212E+03  0.94394904042E+02 0.  0.
         23    2    4    4    0    0  0.83281105736E+03  0.66619438770E+03  0.26506387663E+03  0.11026425209E+04  0.90401608695E+02 0.  0.
          2    1    3    3  502    0 -0.88007800053E+02 -0.36589129354E+02  0.55740841594E+02  0.11041367071E+03  0.00000000000E+00 0. -1.
         -1    1    3    3    0  502 -0.98925191059E+03 -0.63053066444E+03  0.46404319496E+03  0.12615563199E+04  0.00000000000E+00 0.  1.
         13    1    5    5    0    0  0.23320571103E+03 -0.22804746686E+02  0.60161257510E+03  0.64563352658E+03  0.00000000000E+00 0. -1.
        -13    1    5    5    0    0  0.11242942262E+02  0.23730152780E+02  0.45692085557E+02  0.52700005543E+02  0.00000000000E+00 0.  1.
          2    1    6    6  503    0  0.63251106736E+03  0.49010285405E+03  0.23667117682E+03  0.83443651875E+03  0.00000000000E+00 0. -1.
         -2    1    6    6    0  503  0.20029998999E+03  0.17609153365E+03  0.28392699816E+02  0.26820600220E+03  0.00000000000E+00 0.  1.
<mgrwt>
<rscale>  0 0.28313470E+04</rscale>
<asrwt>0</asrwt>
<pdfrwt beam="1">  1        2 0.35423835E+00 0.28313470E+04</pdfrwt>
<pdfrwt beam="2">  1       -1 0.13390719E+00 0.28313470E+04</pdfrwt>
<totfact> 0.20970779E+00</totfact>
</mgrwt>
</event>
<event>
12    7  0.1857704E-007  0.1882243E+04  0.7818608E-02  0.8663746E-01
          2   -1    0    0  501    0  0.00000000000E+00  0.00000000000E+00  0.19413625566E+04  0.19413625566E+04  0.00000000000E+00 0. -1.
         -1   -1    0    0    0  501 -0.00000000000E+00 -0.00000000000E+00 -0.45623087731E+03  0.45623087731E+03  0.00000000000E+00 0.  1.
         24    2    1    2    0    0 -0.34809531751E+03  0.62425590464E+03  0.43959443208E+03  0.84283480839E+03  0.79129419141E+02 0.  0.
        254    2    1    2    0    0  0.34809531751E+03 -0.62425590464E+03  0.10455372473E+04  0.15547586256E+04  0.90180954962E+03 0.  0.
         23    2    4    4    0    0 -0.22260874802E+03  0.30136337842E+02  0.88003091586E+02  0.25883573042E+03  0.93747200799E+02 0.  0.
         23    2    4    4    0    0  0.57070406553E+03 -0.65439224248E+03  0.95753415567E+03  0.12959228951E+04  0.92801688789E+02 0.  0.
          2    1    3    3  502    0 -0.28127666553E+02  0.98983781389E+02  0.80307634120E+02  0.13053072704E+03  0.00000000000E+00 0. -1.
         -1    1    3    3    0  502 -0.31996765095E+03  0.52527212325E+03  0.35928679796E+03  0.71230408135E+03  0.00000000000E+00 0.  1.
         13    1    5    5    0    0 -0.22561695833E+03  0.20299111896E+02  0.95775071798E+02  0.24594294096E+03  0.00000000000E+00 0. -1.
        -13    1    5    5    0    0  0.30082103087E+01  0.98372259457E+01 -0.77719802127E+01  0.12892789458E+02  0.00000000000E+00 0.  1.
          4    1    6    6  503    0  0.34764346849E+03 -0.46081478134E+03  0.65692564704E+03  0.87450417360E+03  0.00000000000E+00 0. -1.
         -4    1    6    6    0  503  0.22306059703E+03 -0.19357746114E+03  0.30060850863E+03  0.42141872155E+03  0.00000000000E+00 0.  1.
<mgrwt>
<rscale>  0 0.18822429E+04</rscale>
<asrwt>0</asrwt>
<pdfrwt beam="1">  1        2 0.29867116E+00 0.18822429E+04</pdfrwt>
<pdfrwt beam="2">  1       -1 0.70189367E-01 0.18822429E+04</pdfrwt>
<totfact> 0.15782155E+01</totfact>
</mgrwt>
</event>
<event>
12    7  0.1857704E-007  0.2199051E+04  0.7818608E-02  0.8518823E-01
          2   -1    0    0  501    0  0.00000000000E+00  0.00000000000E+00  0.17173352193E+04  0.17173352193E+04  0.00000000000E+00 0. -1.
         -1   -1    0    0    0  501 -0.00000000000E+00 -0.00000000000E+00 -0.70397227364E+03  0.70397227364E+03  0.00000000000E+00 0.  1.
         24    2    1    2    0    0  0.53812907406E+03  0.32415830444E+03  0.11600696465E+04  0.13216647948E+04  0.79841959284E+02 0.  0.
        254    2    1    2    0    0 -0.53812907406E+03 -0.32415830444E+03 -0.14670670091E+03  0.10996426980E+04  0.89052215054E+03 0.  0.
         23    2    4    4    0    0 -0.31609071486E+03  0.25876643659E+03  0.86512970577E+02  0.42745491863E+03  0.91431967383E+02 0.  0.
         23    2    4    4    0    0 -0.22203835920E+03 -0.58292474103E+03 -0.23321967149E+03  0.67218777942E+03  0.91338430982E+02 0.  0.
          4    1    3    3  502    0  0.52915217810E+03  0.30203406472E+03  0.11209222758E+04  0.12758108607E+04  0.00000000000E+00 0. -1.
         -3    1    3    3    0  502  0.89768959592E+01  0.22124239713E+02  0.39147370747E+02  0.45853934186E+02  0.00000000000E+00 0.  1.
         13    1    5    5    0    0 -0.29305138845E+03  0.19847625992E+03  0.76978337009E+02  0.36221210139E+03  0.00000000000E+00 0.  1.
        -13    1    5    5    0    0 -0.23039326405E+02  0.60290176671E+02  0.95346335683E+01  0.65242817240E+02  0.00000000000E+00 0. -1.
          3    1    6    6  503    0 -0.53989667797E+02 -0.20622200109E+03 -0.11918549228E+03  0.24422853955E+03  0.00000000000E+00 0. -1.
         -3    1    6    6    0  503 -0.16804869141E+03 -0.37670273994E+03 -0.11403417921E+03  0.42795923987E+03  0.00000000000E+00 0.  1.
<mgrwt>
<rscale>  0 0.21990510E+04</rscale>
<asrwt>0</asrwt>
<pdfrwt beam="1">  1        2 0.26420542E+00 0.21990510E+04</pdfrwt>
<pdfrwt beam="2">  1       -1 0.10830343E+00 0.21990510E+04</pdfrwt>
<totfact> 0.79043300E+00</totfact>
</mgrwt>
</event>
<event>
12    7  0.1857704E-007  0.1768302E+04  0.7818608E-02  0.8723340E-01
         -1   -1    0    0    0  501 -0.00000000000E+00  0.00000000000E+00  0.20201148292E+04  0.20201148292E+04  0.00000000000E+00 0.  1.
          2   -1    0    0  501    0  0.00000000000E+00 -0.00000000000E+00 -0.38696941634E+03  0.38696941634E+03  0.00000000000E+00 0. -1.
         24    2    1    2    0    0  0.10559840611E+02 -0.55628586384E+02  0.14901204639E+04  0.14933358655E+04  0.79918461329E+02 0.  0.
        254    2    1    2    0    0 -0.10559840611E+02  0.55628586384E+02  0.14302494899E+03  0.91374838006E+03  0.90070745316E+03 0.  0.
         23    2    4    4    0    0 -0.30183234928E+03 -0.16059437473E+03  0.34041859177E+03  0.49107587922E+03  0.91528035418E+02 0.  0.
         23    2    4    4    0    0  0.29127250867E+03  0.21622296111E+03 -0.19739364277E+03  0.42267250084E+03  0.89976383211E+02 0.  0.
          2    1    3    3  502    0 -0.16609610937E+02 -0.18176750389E+02  0.12340697665E+03  0.12583940287E+03  0.00000000000E+00 0. -1.
         -1    1    3    3    0  502  0.27169451548E+02 -0.37451835995E+02  0.13667134872E+04  0.13674964626E+04  0.00000000000E+00 0.  1.
         13    1    5    5    0    0 -0.36774416983E+01 -0.11060930307E+02  0.41757368701E+02  0.43353726455E+02  0.00000000000E+00 0. -1.
        -13    1    5    5    0    0 -0.29815490759E+03 -0.14953344442E+03  0.29866122307E+03  0.44772215277E+03  0.00000000000E+00 0.  1.
          3    1    6    6  503    0  0.16999922058E+03  0.15464551882E+03 -0.16483967759E+03  0.28281989109E+03  0.00000000000E+00 0. -1.
         -3    1    6    6    0  503  0.12127328809E+03  0.61577442294E+02 -0.32553965185E+02  0.13985260974E+03  0.00000000000E+00 0.  1.
<mgrwt>
<rscale>  0 0.17683016E+04</rscale>
<asrwt>0</asrwt>
<pdfrwt beam="1">  1        2 0.59533758E-01 0.17683016E+04</pdfrwt>
<pdfrwt beam="2">  1       -1 0.31078689E+00 0.17683016E+04</pdfrwt>
<totfact> 0.25148001E+00</totfact>
</mgrwt>
</event>
<event>
12    7  0.1857704E-007  0.1851320E+04  0.7818608E-02  0.8679474E-01
          2   -1    0    0  501    0  0.00000000000E+00  0.00000000000E+00  0.14559714950E+04  0.14559714950E+04  0.00000000000E+00 0. -1.
         -1   -1    0    0    0  501 -0.00000000000E+00 -0.00000000000E+00 -0.58850472947E+03  0.58850472947E+03  0.00000000000E+00 0.  1.
         24    2    1    2    0    0 -0.10091867037E+03  0.35152943052E+03 -0.33076649267E+03  0.49959493228E+03  0.80194171480E+02 0.  0.
        254    2    1    2    0    0  0.10091867037E+03 -0.35152943052E+03  0.11982332582E+04  0.15448812922E+04  0.90395671764E+03 0.  0.
         23    2    4    4    0    0 -0.24481812327E+03  0.18645495360E+03  0.48449943696E+03  0.58128281344E+03  0.91916492454E+02 0.  0.
         23    2    4    4    0    0  0.34573679364E+03 -0.53798438412E+03  0.71373382127E+03  0.96359847878E+03  0.10072205637E+03 0.  0.
          4    1    3    3  502    0  0.18717430456E+01  0.21829166403E+01 -0.21916800673E+02  0.22104630710E+02  0.00000000000E+00 0. -1.
         -3    1    3    3    0  502 -0.10279041342E+03  0.34934651388E+03 -0.30884969199E+03  0.47749030157E+03  0.00000000000E+00 0.  1.
         13    1    5    5    0    0 -0.43596403387E+02  0.75826727619E+01  0.31505245079E+02  0.54320565001E+02  0.00000000000E+00 0.  1.
        -13    1    5    5    0    0 -0.20122171988E+03  0.17887228083E+03  0.45299419188E+03  0.52696224844E+03  0.00000000000E+00 0. -1.
          2    1    6    6  503    0  0.34811247496E+03 -0.51242143375E+03  0.69898519006E+03  0.93399053363E+03  0.00000000000E+00 0. -1.
         -2    1    6    6    0  503 -0.23756813136E+01 -0.25562950365E+02  0.14748631210E+02  0.29607945144E+02  0.00000000000E+00 0.  1.
<mgrwt>
<rscale>  0 0.18513196E+04</rscale>
<asrwt>0</asrwt>
<pdfrwt beam="1">  1        2 0.22399561E+00 0.18513196E+04</pdfrwt>
<pdfrwt beam="2">  1       -1 0.90539190E-01 0.18513196E+04</pdfrwt>
<totfact> 0.17171885E+01</totfact>
</mgrwt>
</event>
<event>
12    7  0.1857704E-007  0.6268485E+04  0.7818608E-02  0.7657976E-01
          2   -1    0    0  501    0  0.00000000000E+00  0.00000000000E+00  0.22699819481E+04  0.22699819481E+04  0.00000000000E+00 0. -1.
         -1   -1    0    0    0  501 -0.00000000000E+00 -0.00000000000E+00 -0.43275569503E+04  0.43275569503E+04  0.00000000000E+00 0.  1.
         24    2    1    2    0    0  0.82224311999E+03 -0.29542046837E+04 -0.83908213291E+03  0.31802178935E+04  0.79485611672E+02 0.  0.
        254    2    1    2    0    0 -0.82224311999E+03  0.29542046837E+04 -0.12184928693E+04  0.34173210049E+04  0.88879070428E+03 0.  0.
         23    2    4    4    0    0 -0.91433087721E+03  0.17727542492E+04 -0.87720516926E+03  0.21807124844E+04  0.85787233576E+02 0.  0.
         23    2    4    4    0    0  0.92087757222E+02  0.11814504345E+04 -0.34128770001E+03  0.12366085205E+04  0.91749956237E+02 0.  0.
          4    1    3    3  502    0  0.59180551441E+03 -0.21997095904E+04 -0.65282543694E+03  0.23696280510E+04  0.00000000000E+00 0. -1.
         -1    1    3    3    0  502  0.23043760558E+03 -0.75449509333E+03 -0.18625669597E+03  0.81058984247E+03  0.00000000000E+00 0.  1.
         13    1    5    5    0    0 -0.20480483520E+02  0.56140743861E+02 -0.13081829536E+02  0.61174893465E+02  0.00000000000E+00 0.  1.
        -13    1    5    5    0    0 -0.89385039369E+03  0.17166135053E+04 -0.86412333972E+03  0.21195375909E+04  0.00000000000E+00 0. -1.
          2    1    6    6  503    0  0.80698750784E+02  0.58450294382E+03 -0.13882650899E+03  0.60615903797E+03  0.00000000000E+00 0.  1.
         -2    1    6    6    0  503  0.11389006439E+02  0.59694749071E+03 -0.20246119102E+03  0.63044948252E+03  0.00000000000E+00 0. -1.
<mgrwt>
<rscale>  0 0.62684850E+04</rscale>
<asrwt>0</asrwt>
<pdfrwt beam="1">  1        2 0.34922799E+00 0.62684850E+04</pdfrwt>
<pdfrwt beam="2">  1       -1 0.66577799E+00 0.62684850E+04</pdfrwt>
<totfact> 0.94442929E-04</totfact>
</mgrwt>
</event>
<event>
12    7  0.1857704E-007  0.1977275E+04  0.7818608E-02  0.8617320E-01
         -1   -1    0    0    0  501 -0.00000000000E+00  0.00000000000E+00  0.46777423443E+03  0.46777423443E+03  0.00000000000E+00 0.  1.
          2   -1    0    0  501    0  0.00000000000E+00 -0.00000000000E+00 -0.20894772636E+04  0.20894772636E+04  0.00000000000E+00 0. -1.
         24    2    1    2    0    0 -0.16722149093E+03 -0.36897806660E+03  0.22037213187E+03  0.46798582368E+03  0.79617925096E+02 0.  0.
        254    2    1    2    0    0  0.16722149093E+03  0.36897806660E+03 -0.18420751610E+04  0.20892656743E+04  0.89871147677E+03 0.  0.
         23    2    4    4    0    0 -0.24286556884E+03  0.17084888160E+03 -0.14453537236E+04  0.14783836713E+04  0.91639884060E+02 0.  0.
         23    2    4    4    0    0  0.41008705978E+03  0.19812918500E+03 -0.39672143742E+03  0.61088200306E+03  0.91445897682E+02 0.  0.
          4    1    3    3  502    0 -0.13056763967E+00 -0.72654980368E+02  0.37506012808E+02  0.81764688081E+02  0.00000000000E+00 0. -1.
         -3    1    3    3    0  502 -0.16709092329E+03 -0.29632308623E+03  0.18286611906E+03  0.38622113559E+03  0.00000000000E+00 0.  1.
         13    1    5    5    0    0 -0.17878727416E+03  0.71918629385E+02 -0.92096561375E+03  0.94091170700E+03  0.00000000000E+00 0.  1.
        -13    1    5    5    0    0 -0.64078294682E+02  0.98930252215E+02 -0.52438810982E+03  0.53747196427E+03  0.00000000000E+00 0. -1.
          1    1    6    6  503    0  0.15145769948E+03  0.86571992121E+02 -0.97102047962E+02  0.19965708670E+03  0.00000000000E+00 0. -1.
         -1    1    6    6    0  503  0.25862936029E+03  0.11155719288E+03 -0.29961938946E+03  0.41122491635E+03  0.00000000000E+00 0.  1.
<mgrwt>
<rscale>  0 0.19772745E+04</rscale>
<asrwt>0</asrwt>
<pdfrwt beam="1">  1        2 0.32145805E+00 0.19772745E+04</pdfrwt>
<pdfrwt beam="2">  1       -1 0.71965266E-01 0.19772745E+04</pdfrwt>
<totfact> 0.12298573E+01</totfact>
</mgrwt>
</event>
<event>
12    7  0.1857704E-007  0.1410216E+04  0.7818608E-02  0.8946457E-01
          2   -1    0    0  501    0  0.00000000000E+00  0.00000000000E+00  0.81019701321E+03  0.81019701321E+03  0.00000000000E+00 0. -1.
         -1   -1    0    0    0  501 -0.00000000000E+00 -0.00000000000E+00 -0.61365005228E+03  0.61365005228E+03  0.00000000000E+00 0.  1.
         24    2    1    2    0    0 -0.63580182433E+02 -0.38003746849E+03  0.20007212293E+03  0.44094031322E+03  0.76997327198E+02 0.  0.
        254    2    1    2    0    0  0.63580182433E+02  0.38003746849E+03 -0.35251620060E+01  0.98290675227E+03  0.90422471755E+03 0.  0.
         23    2    4    4    0    0 -0.72800690726E+02 -0.17651068259E+03 -0.27117992286E+03  0.34420576064E+03  0.92103710319E+02 0.  0.
         23    2    4    4    0    0  0.13638087316E+03  0.55654815108E+03  0.26765476086E+03  0.63870099163E+03  0.89186874997E+02 0.  0.
          2    1    3    3  502    0 -0.56215537768E+02 -0.33243381070E+03  0.20144655839E+03  0.39275073657E+03  0.00000000000E+00 0. -1.
         -1    1    3    3    0  502 -0.73646446650E+01 -0.47603657785E+02 -0.13744354557E+01  0.48189576657E+02  0.00000000000E+00 0.  1.
         13    1    5    5    0    0 -0.47934542486E+02 -0.42173016855E+02 -0.39005813057E+02  0.74818027014E+02  0.00000000000E+00 0.  1.
        -13    1    5    5    0    0 -0.24866148240E+02 -0.13433766573E+03 -0.23217410981E+03  0.26938773362E+03  0.00000000000E+00 0. -1.
          3    1    6    6  503    0  0.11681267029E+03  0.51855677352E+03  0.26941805258E+03  0.59592987369E+03  0.00000000000E+00 0. -1.
         -3    1    6    6    0  503  0.19568202874E+02  0.37991377561E+02 -0.17632917170E+01  0.42771117946E+02  0.00000000000E+00 0.  1.
<mgrwt>
<rscale>  0 0.14102162E+04</rscale>
<asrwt>0</asrwt>
<pdfrwt beam="1">  1        2 0.12464569E+00 0.14102162E+04</pdfrwt>
<pdfrwt beam="2">  1       -1 0.94407700E-01 0.14102162E+04</pdfrwt>
<totfact> 0.40853735E+01</totfact>
</mgrwt>
</event>
<event>
12    7  0.1857704E-007  0.1640070E+04  0.7818608E-02  0.8796303E-01
          2   -1    0    0  501    0  0.00000000000E+00  0.00000000000E+00  0.19855814492E+04  0.19855814492E+04  0.00000000000E+00 0. -1.
         -1   -1    0    0    0  501 -0.00000000000E+00 -0.00000000000E+00 -0.33867026355E+03  0.33867026355E+03  0.00000000000E+00 0.  1.
         24    2    1    2    0    0  0.12130853068E+02 -0.23024985358E+03 -0.14654889803E+03  0.28440410013E+03  0.79037712436E+02 0.  0.
        254    2    1    2    0    0 -0.12130853068E+02  0.23024985358E+03  0.17934600837E+04  0.20398476126E+04  0.94409589466E+03 0.  0.
         23    2    4    4    0    0  0.13318177133E+03 -0.32968209668E+03  0.89397216128E+03  0.96651772374E+03  0.92426273716E+02 0.  0.
         23    2    4    4    0    0 -0.14531262439E+03  0.55993195026E+03  0.89948792242E+03  0.10733298889E+04  0.91208443197E+02 0.  0.
          4    1    3    3  502    0 -0.32365053702E+02 -0.12238316048E+03 -0.85025222018E+02  0.15249400988E+03  0.00000000000E+00 0. -1.
         -3    1    3    3    0  502  0.44495906770E+02 -0.10786669310E+03 -0.61523676009E+02  0.13191009024E+03  0.00000000000E+00 0.  1.
         13    1    5    5    0    0  0.12144154474E+03 -0.18078276936E+03  0.51315829791E+03  0.55746022029E+03  0.00000000000E+00 0. -1.
        -13    1    5    5    0    0  0.11740226582E+02 -0.14889932732E+03  0.38081386336E+03  0.40905750345E+03  0.00000000000E+00 0.  1.
          4    1    6    6  503    0 -0.11449380549E+03  0.40699020973E+03  0.57951833640E+03  0.71735023840E+03  0.00000000000E+00 0. -1.
         -4    1    6    6    0  503 -0.30818818903E+02  0.15294174053E+03  0.31996958602E+03  0.35597965050E+03  0.00000000000E+00 0.  1.
<mgrwt>
<rscale>  0 0.16400700E+04</rscale>
<asrwt>0</asrwt>
<pdfrwt beam="1">  1        2 0.30547406E+00 0.16400700E+04</pdfrwt>
<pdfrwt beam="2">  1       -1 0.52103119E-01 0.16400700E+04</pdfrwt>
<totfact> 0.27493749E+01</totfact>
</mgrwt>
</event>
<event>
12    7  0.1857704E-007  0.1370771E+04  0.7818608E-02  0.8975252E-01
          2   -1    0    0  501    0  0.00000000000E+00  0.00000000000E+00  0.52295367484E+03  0.52295367484E+03  0.00000000000E+00 0. -1.
         -1   -1    0    0    0  501 -0.00000000000E+00 -0.00000000000E+00 -0.89826924116E+03  0.89826924116E+03  0.00000000000E+00 0.  1.
         24    2    1    2    0    0  0.14461917576E+03  0.11847311055E+03 -0.44285523749E+03  0.48722780206E+03  0.79495822544E+02 0.  0.
        254    2    1    2    0    0 -0.14461917576E+03 -0.11847311055E+03  0.67539671163E+02  0.93399511394E+03  0.91259776559E+03 0.  0.
         23    2    4    4    0    0  0.13296669797E+03  0.29835463421E+03  0.21887141234E+03  0.40319753402E+03  0.89263238661E+02 0.  0.
         23    2    4    4    0    0 -0.27758587373E+03 -0.41682774477E+03 -0.15133174118E+03  0.53079757992E+03  0.89696649093E+02 0.  0.
          2    1    3    3  502    0  0.20259640757E+02  0.77936277329E+01 -0.13963339730E+03  0.14131057752E+03  0.00000000000E+00 0. -1.
         -1    1    3    3    0  502  0.12435953501E+03  0.11067948282E+03 -0.30322184019E+03  0.34591722454E+03  0.00000000000E+00 0.  1.
         13    1    5    5    0    0  0.22616481515E+01  0.18343235418E+02  0.44948695266E+02  0.48600149630E+02  0.00000000000E+00 0. -1.
        -13    1    5    5    0    0  0.13070504982E+03  0.28001139880E+03  0.17392271707E+03  0.35459738439E+03  0.00000000000E+00 0.  1.
          4    1    6    6  503    0 -0.55708673926E+02 -0.10889768830E+03 -0.75536884321E+02  0.14376363852E+03  0.00000000000E+00 0. -1.
         -4    1    6    6    0  503 -0.22187719981E+03 -0.30793005647E+03 -0.75794856854E+02  0.38703394140E+03  0.00000000000E+00 0.  1.
<mgrwt>
<rscale>  0 0.13707709E+04</rscale>
<asrwt>0</asrwt>
<pdfrwt beam="1">  1        2 0.80454412E-01 0.13707709E+04</pdfrwt>
<pdfrwt beam="2">  1       -1 0.13819527E+00 0.13707709E+04</pdfrwt>
<totfact> 0.28257289E+01</totfact>
</mgrwt>
</event>
<event>
12    7  0.1857704E-007  0.1203874E+04  0.7818608E-02  0.9109472E-01
         -1   -1    0    0    0  501 -0.00000000000E+00  0.00000000000E+00  0.12651255320E+04  0.12651255320E+04  0.00000000000E+00 0.  1.
          2   -1    0    0  501    0  0.00000000000E+00 -0.00000000000E+00 -0.28639722170E+03  0.28639722170E+03  0.00000000000E+00 0. -1.
         24    2    1    2    0    0 -0.51178212670E+02  0.11533538926E+03 -0.75615820750E+02  0.16955254127E+03  0.84313999055E+02 0.  0.
        254    2    1    2    0    0  0.51178212670E+02 -0.11533538926E+03  0.10543441310E+04  0.13819702124E+04  0.88446518295E+03 0.  0.
         23    2    4    4    0    0  0.48794307451E+02 -0.72897391631E+02 -0.13700319223E+03  0.18642111422E+03  0.91038689573E+02 0.  0.
         23    2    4    4    0    0  0.23839052195E+01 -0.42437997628E+02  0.11913473232E+04  0.11955490982E+04  0.90678194151E+02 0.  0.
          2    1    3    3  502    0  0.30244125465E+01  0.71182813418E+02 -0.69245232298E+02  0.99353118689E+02  0.00000000000E+00 0. -1.
         -1    1    3    3    0  502 -0.54202625217E+02  0.44152575841E+02 -0.63705884522E+01  0.70199422583E+02  0.00000000000E+00 0.  1.
         13    1    5    5    0    0  0.44886995191E+02 -0.86098574510E+02 -0.14178653337E+03  0.17184652431E+03  0.00000000000E+00 0.  1.
        -13    1    5    5    0    0  0.39073122600E+01  0.13201182879E+02  0.47833411477E+01  0.14574589910E+02  0.00000000000E+00 0. -1.
          4    1    6    6  503    0  0.40439945727E+02 -0.34921094924E+01  0.70399958857E+03  0.70516877749E+03  0.00000000000E+00 0. -1.
         -4    1    6    6    0  503 -0.38056040507E+02 -0.38945888136E+02  0.48734773467E+03  0.49038032068E+03  0.00000000000E+00 0.  1.
<mgrwt>
<rscale>  0 0.12038745E+04</rscale>
<asrwt>0</asrwt>
<pdfrwt beam="1">  1        2 0.44061112E-01 0.12038745E+04</pdfrwt>
<pdfrwt beam="2">  1       -1 0.19463469E+00 0.12038745E+04</pdfrwt>
<totfact> 0.21438968E+01</totfact>
</mgrwt>
</event>
<event>
12    7  0.1857704E-007  0.1255723E+04  0.7818608E-02  0.9065433E-01
          2   -1    0    0  501    0  0.00000000000E+00  0.00000000000E+00  0.65409880235E+03  0.65409880235E+03  0.00000000000E+00 0. -1.
         -1   -1    0    0    0  501 -0.00000000000E+00 -0.00000000000E+00 -0.60267673509E+03  0.60267673509E+03  0.00000000000E+00 0.  1.
         24    2    1    2    0    0 -0.13967211688E+03 -0.58439713060E+02  0.29095923690E+03  0.33746356190E+03  0.79378068622E+02 0.  0.
        254    2    1    2    0    0  0.13967211688E+03  0.58439713060E+02 -0.23953716964E+03  0.91931197554E+03  0.87454728427E+03 0.  0.
         23    2    4    4    0    0 -0.35279465338E+03  0.68606648274E+02 -0.19812960978E+02  0.37264834569E+03  0.96453597566E+02 0.  0.
         23    2    4    4    0    0  0.49246677025E+03 -0.10166935214E+02 -0.21972420866E+03  0.54666362985E+03  0.89081479277E+02 0.  0.
          2    1    3    3  502    0 -0.90042375778E+02 -0.56842092814E+01  0.21153578320E+03  0.22997244888E+03  0.00000000000E+00 0. -1.
         -1    1    3    3    0  502 -0.49629741099E+02 -0.52755503779E+02  0.79423453702E+02  0.10749111302E+03  0.00000000000E+00 0.  1.
         13    1    5    5    0    0 -0.10996239325E+03  0.10078264791E+02  0.37047255230E+02  0.11647230774E+03  0.00000000000E+00 0.  1.
        -13    1    5    5    0    0 -0.24283226013E+03  0.58528383483E+02 -0.56860216208E+02  0.25617603795E+03  0.00000000000E+00 0. -1.
          3    1    6    6  503    0  0.46473126167E+03 -0.16836364183E+02 -0.22662066744E+03  0.51731570210E+03  0.00000000000E+00 0. -1.
         -3    1    6    6    0  503  0.27735508583E+02  0.66694289690E+01  0.68964587783E+01  0.29347927743E+02  0.00000000000E+00 0.  1.
<mgrwt>
<rscale>  0 0.12557231E+04</rscale>
<asrwt>0</asrwt>
<pdfrwt beam="1">  1        2 0.10063059E+00 0.12557231E+04</pdfrwt>
<pdfrwt beam="2">  1       -1 0.92719497E-01 0.12557231E+04</pdfrwt>
<totfact> 0.56687527E+01</totfact>
</mgrwt>
</event>
<event>
12    7  0.1857704E-007  0.1622343E+04  0.7818608E-02  0.8806938E-01
          2   -1    0    0  501    0  0.00000000000E+00  0.00000000000E+00  0.75659744488E+03  0.75659744488E+03  0.00000000000E+00 0. -1.
         -1   -1    0    0    0  501 -0.00000000000E+00 -0.00000000000E+00 -0.86968226425E+03  0.86968226425E+03  0.00000000000E+00 0.  1.
         24    2    1    2    0    0  0.15422425155E+03  0.35310162064E+03 -0.44707627661E+03  0.59396583163E+03  0.66725840366E+02 0.  0.
        254    2    1    2    0    0 -0.15422425155E+03 -0.35310162064E+03  0.33399145724E+03  0.10323138775E+04  0.89758329636E+03 0.  0.
         23    2    4    4    0    0  0.19715749304E+03  0.53832026001E+02 -0.17736259136E+03  0.28449922581E+03  0.87825717125E+02 0.  0.
         23    2    4    4    0    0 -0.35138174459E+03 -0.40693364664E+03  0.51135404860E+03  0.74781465168E+03  0.93164730716E+02 0.  0.
          4    1    3    3  502    0  0.98924099102E+02  0.23889057717E+03 -0.34484345429E+03  0.43101240494E+03  0.00000000000E+00 0. -1.
         -3    1    3    3    0  502  0.55300152448E+02  0.11421104347E+03 -0.10223282232E+03  0.16295342669E+03  0.00000000000E+00 0.  1.
         13    1    5    5    0    0  0.19643080031E+03  0.63492382266E+02 -0.14917950154E+03  0.25469759637E+03  0.00000000000E+00 0. -1.
        -13    1    5    5    0    0  0.72669272742E+00 -0.96603562658E+01 -0.28183089822E+02  0.29801629442E+02  0.00000000000E+00 0.  1.
          4    1    6    6  503    0 -0.34006483945E+03 -0.37397060336E+03  0.44762633540E+03  0.67517956378E+03  0.00000000000E+00 0. -1.
         -4    1    6    6    0  503 -0.11316905144E+02 -0.32963043287E+02  0.63727713204E+02  0.72635087905E+02  0.00000000000E+00 0.  1.
<mgrwt>
<rscale>  0 0.16223432E+04</rscale>
<asrwt>0</asrwt>
<pdfrwt beam="1">  1        2 0.11639961E+00 0.16223432E+04</pdfrwt>
<pdfrwt beam="2">  1       -1 0.13379727E+00 0.16223432E+04</pdfrwt>
<totfact> 0.19103986E+01</totfact>
</mgrwt>
</event>
<event>
12    7  0.1857704E-007  0.1242383E+04  0.7818608E-02  0.9076547E-01
          2   -1    0    0  501    0  0.00000000000E+00  0.00000000000E+00  0.23986931454E+04  0.23986931454E+04  0.00000000000E+00 0. -1.
         -1   -1    0    0    0  501 -0.00000000000E+00 -0.00000000000E+00 -0.16087041051E+03  0.16087041051E+03  0.00000000000E+00 0.  1.
         24    2    1    2    0    0  0.29219799005E+03  0.22211660910E+02  0.55195727064E+03  0.63180723675E+03  0.93008239050E+02 0.  0.
        254    2    1    2    0    0 -0.29219799005E+03 -0.22211660910E+02  0.16858654642E+04  0.19277563191E+04  0.88782263950E+03 0.  0.
         23    2    4    4    0    0 -0.40710245448E+03 -0.27923441448E+03  0.14881965224E+04  0.15705892339E+04  0.91199701205E+02 0.  0.
         23    2    4    4    0    0  0.11490446444E+03  0.25702275357E+03  0.19766894179E+03  0.35716708526E+03  0.96081134680E+02 0.  0.
          2    1    3    3  502    0  0.75939269681E+01 -0.15317822144E+01  0.78513336581E+02  0.78894601239E+02  0.00000000000E+00 0. -1.
         -3    1    3    3    0  502  0.28460406308E+03  0.23743443125E+02  0.47344393406E+03  0.55291263552E+03  0.00000000000E+00 0.  1.
         13    1    5    5    0    0 -0.14249145193E+03 -0.11388355589E+03  0.42352026685E+03  0.46113197092E+03  0.00000000000E+00 0. -1.
        -13    1    5    5    0    0 -0.26461100255E+03 -0.16535085859E+03  0.10646762556E+04  0.11094572629E+04  0.00000000000E+00 0.  1.
          3    1    6    6  503    0  0.84417328379E+02  0.18149023709E+03  0.18893330440E+03  0.27524677110E+03  0.00000000000E+00 0. -1.
         -3    1    6    6    0  503  0.30487136056E+02  0.75532516479E+02  0.87356373913E+01  0.81920314154E+02  0.00000000000E+00 0.  1.
<mgrwt>
<rscale>  0 0.12423828E+04</rscale>
<asrwt>0</asrwt>
<pdfrwt beam="1">  1        2 0.36902969E+00 0.12423828E+04</pdfrwt>
<pdfrwt beam="2">  1       -1 0.24749296E-01 0.12423828E+04</pdfrwt>
<totfact> 0.63895954E+01</totfact>
</mgrwt>
</event>
<event>
12    7  0.1857704E-007  0.1646739E+04  0.7818608E-02  0.8792338E-01
          2   -1    0    0  501    0  0.00000000000E+00  0.00000000000E+00  0.32325275004E+04  0.32325275004E+04  0.00000000000E+00 0. -1.
         -1   -1    0    0    0  501 -0.00000000000E+00 -0.00000000000E+00 -0.20972349959E+03  0.20972349959E+03  0.00000000000E+00 0.  1.
         24    2    1    2    0    0  0.17481131971E+03  0.21256210129E+02  0.21826022018E+04  0.21911900736E+04  0.80936662894E+02 0.  0.
        254    2    1    2    0    0 -0.17481131971E+03 -0.21256210129E+02  0.84020179901E+03  0.12510609264E+04  0.91005689629E+03 0.  0.
         23    2    4    4    0    0  0.43451047412E+02 -0.22001794583E+03 -0.99400943766E+02  0.26215784388E+03  0.92467818619E+02 0.  0.
         23    2    4    4    0    0 -0.21826236712E+03  0.19876173570E+03  0.93960274278E+03  0.98890308250E+03  0.89057868067E+02 0.  0.
          4    1    3    3  502    0  0.11464188864E+03 -0.88738756911E+01  0.17047007594E+04  0.17085743143E+04  0.00000000000E+00 0. -1.
         -3    1    3    3    0  502  0.60169431075E+02  0.30130085820E+02  0.47790144240E+03  0.48261575933E+03  0.00000000000E+00 0.  1.
         13    1    5    5    0    0  0.24535198079E+02 -0.65917747153E+02  0.11621792251E+02  0.71289490036E+02  0.00000000000E+00 0.  1.
        -13    1    5    5    0    0  0.18915849333E+02 -0.15410019868E+03 -0.11102273602E+03  0.19086835385E+03  0.00000000000E+00 0. -1.
          2    1    6    6  503    0 -0.20156586906E+03  0.13586768671E+03  0.72670303034E+03  0.76628070716E+03  0.00000000000E+00 0. -1.
         -2    1    6    6    0  503 -0.16696498061E+02  0.62894048990E+02  0.21289971244E+03  0.22262237534E+03  0.00000000000E+00 0.  1.
<mgrwt>
<rscale>  0 0.16467386E+04</rscale>
<asrwt>0</asrwt>
<pdfrwt beam="1">  1        2 0.49731189E+00 0.16467386E+04</pdfrwt>
<pdfrwt beam="2">  1       -1 0.32265156E-01 0.16467386E+04</pdfrwt>
<totfact> 0.12145844E+01</totfact>
</mgrwt>
</event>
<event>
12    7  0.1857704E-007  0.1507522E+04  0.7818608E-02  0.8879466E-01
         -1   -1    0    0    0  501 -0.00000000000E+00  0.00000000000E+00  0.44837649843E+03  0.44837649843E+03  0.00000000000E+00 0.  1.
          2   -1    0    0  501    0  0.00000000000E+00 -0.00000000000E+00 -0.12671390195E+04  0.12671390195E+04  0.00000000000E+00 0. -1.
         24    2    1    2    0    0  0.52633714870E+02  0.16050415197E+03  0.24664531029E+03  0.30928544017E+03  0.79320134075E+02 0.  0.
        254    2    1    2    0    0 -0.52633714870E+02 -0.16050415197E+03 -0.10654078314E+04  0.14062300778E+04  0.90214039582E+03 0.  0.
         23    2    4    4    0    0  0.37276914502E+03 -0.26845117639E+03 -0.51382066761E+03  0.69549295617E+03  0.93144533067E+02 0.  0.
         23    2    4    4    0    0 -0.42540285989E+03  0.10794702442E+03 -0.55158716374E+03  0.71073712159E+03  0.90987381116E+02 0.  0.
          2    1    3    3  502    0  0.60524450429E+01  0.96108333811E+02  0.18550882849E+03  0.20901428029E+03  0.00000000000E+00 0. -1.
         -1    1    3    3    0  502  0.46581269827E+02  0.64395818161E+02  0.61136481800E+02  0.10027115987E+03  0.00000000000E+00 0.  1.
         13    1    5    5    0    0  0.28866471237E+03 -0.24226114177E+03 -0.44862605332E+03  0.58590367186E+03  0.00000000000E+00 0. -1.
        -13    1    5    5    0    0  0.84104432645E+02 -0.26190034622E+02 -0.65194614289E+02  0.10958928431E+03  0.00000000000E+00 0.  1.
          3    1    6    6  503    0 -0.40572514818E+03  0.85603807044E+02 -0.53424032325E+03  0.67627925492E+03  0.00000000000E+00 0. -1.
         -3    1    6    6    0  503 -0.19677711709E+02  0.22343217374E+02 -0.17346840493E+02  0.34457866675E+02  0.00000000000E+00 0.  1.
<mgrwt>
<rscale>  0 0.15075216E+04</rscale>
<asrwt>0</asrwt>
<pdfrwt beam="1">  1        2 0.19494447E+00 0.15075216E+04</pdfrwt>
<pdfrwt beam="2">  1       -1 0.68981000E-01 0.15075216E+04</pdfrwt>
<totfact> 0.40453668E+01</totfact>
</mgrwt>
</event>
<event>
12    7  0.1857704E-007  0.1632142E+04  0.7818608E-02  0.8801042E-01
         -1   -1    0    0    0  501 -0.00000000000E+00  0.00000000000E+00  0.32703388008E+03  0.32703388008E+03  0.00000000000E+00 0.  1.
          2   -1    0    0  501    0  0.00000000000E+00 -0.00000000000E+00 -0.20363999722E+04  0.20363999722E+04  0.00000000000E+00 0. -1.
         24    2    1    2    0    0 -0.88388322796E+02 -0.17698834146E+03 -0.13604879383E+04  0.13771425157E+04  0.80353653977E+02 0.  0.
        254    2    1    2    0    0  0.88388322796E+02  0.17698834146E+03 -0.34887815383E+03  0.98629133657E+03  0.90106451809E+03 0.  0.
         23    2    4    4    0    0  0.23963975675E+03 -0.14228161655E+03  0.17904627613E+03  0.34399489941E+03  0.92755864497E+02 0.  0.
         23    2    4    4    0    0 -0.15125143396E+03  0.31926995802E+03 -0.52792442996E+03  0.64229643716E+03  0.95027401697E+02 0.  0.
          4    1    3    3  502    0 -0.25107615182E+02 -0.12582988682E+03 -0.95396444555E+03  0.96255478604E+03  0.00000000000E+00 0. -1.
         -3    1    3    3    0  502 -0.63280707614E+02 -0.51158454648E+02 -0.40652349272E+03  0.41458772964E+03  0.00000000000E+00 0.  1.
         13    1    5    5    0    0  0.13263008322E+03 -0.29522182342E+02  0.61727377494E+02  0.14923996568E+03  0.00000000000E+00 0. -1.
        -13    1    5    5    0    0  0.10700967353E+03 -0.11275943421E+03  0.11731889864E+03  0.19475493373E+03  0.00000000000E+00 0.  1.
          2    1    6    6  503    0 -0.14131015817E+03  0.21488264936E+03 -0.33075235108E+03  0.41897521591E+03  0.00000000000E+00 0. -1.
         -2    1    6    6    0  503 -0.99412757877E+01  0.10438730865E+03 -0.19717207888E+03  0.22332122125E+03  0.00000000000E+00 0.  1.
<mgrwt>
<rscale>  0 0.16321419E+04</rscale>
<asrwt>0</asrwt>
<pdfrwt beam="1">  1        2 0.31329231E+00 0.16321419E+04</pdfrwt>
<pdfrwt beam="2">  1       -1 0.50312904E-01 0.16321419E+04</pdfrwt>
<totfact> 0.27562815E+01</totfact>
</mgrwt>
</event>
<event>
12    7  0.1857704E-007  0.2077270E+04  0.7818608E-02  0.8571323E-01
          2   -1    0    0  501    0  0.00000000000E+00  0.00000000000E+00  0.23717775400E+04  0.23717775400E+04  0.00000000000E+00 0. -1.
         -1   -1    0    0    0  501 -0.00000000000E+00 -0.00000000000E+00 -0.45483305825E+03  0.45483305825E+03  0.00000000000E+00 0.  1.
         24    2    1    2    0    0  0.48625047793E+02 -0.91333010217E+02 -0.35643759326E+03  0.37969073056E+03  0.80069837997E+02 0.  0.
        254    2    1    2    0    0 -0.48625047793E+02  0.91333010217E+02  0.22733820750E+04  0.24469198677E+04  0.89913551033E+03 0.  0.
         23    2    4    4    0    0  0.34506248542E+03  0.10327949222E+03  0.17351164709E+04  0.17744443110E+04  0.91042148198E+02 0.  0.
         23    2    4    4    0    0 -0.39368753321E+03 -0.11946482002E+02  0.53826560401E+03  0.67247555665E+03  0.85795813338E+02 0.  0.
          2    1    3    3  502    0  0.71672092602E+01  0.77334091397E+01 -0.40375468785E+01  0.11290539859E+02  0.00000000000E+00 0. -1.
         -1    1    3    3    0  502  0.41457838533E+02 -0.99066419357E+02 -0.35240004638E+03  0.36840019070E+03  0.00000000000E+00 0.  1.
         13    1    5    5    0    0  0.24109142157E+03  0.48827776859E+02  0.98779576461E+03  0.10179635052E+04  0.00000000000E+00 0. -1.
        -13    1    5    5    0    0  0.10397106385E+03  0.54451715360E+02  0.74732070633E+03  0.75648080580E+03  0.00000000000E+00 0.  1.
          3    1    6    6  503    0 -0.17817400694E+03  0.48033588328E+00  0.31510073392E+03  0.36198712682E+03  0.00000000000E+00 0. -1.
         -3    1    6    6    0  503 -0.21551352627E+03 -0.12426817886E+02  0.22316487010E+03  0.31048842982E+03  0.00000000000E+00 0.  1.
<mgrwt>
<rscale>  0 0.20772702E+04</rscale>
<asrwt>0</asrwt>
<pdfrwt beam="1">  1        2 0.36488884E+00 0.20772702E+04</pdfrwt>
<pdfrwt beam="2">  1       -1 0.69974318E-01 0.20772702E+04</pdfrwt>
<totfact> 0.89546287E+00</totfact>
</mgrwt>
</event>
<event>
12    7  0.1857704E-007  0.2419993E+04  0.7818608E-02  0.8432056E-01
         -1   -1    0    0    0  501 -0.00000000000E+00  0.00000000000E+00  0.66172618844E+03  0.66172618844E+03  0.00000000000E+00 0.  1.
          2   -1    0    0  501    0  0.00000000000E+00 -0.00000000000E+00 -0.22125329355E+04  0.22125329355E+04  0.00000000000E+00 0. -1.
         24    2    1    2    0    0  0.62237333049E+03 -0.83867385978E+03 -0.64928577206E+03  0.12324709349E+04  0.81793557650E+02 0.  0.
        254    2    1    2    0    0 -0.62237333049E+03  0.83867385978E+03 -0.90152097498E+03  0.16417881890E+04  0.88994718020E+03 0.  0.
         23    2    4    4    0    0 -0.68544355102E+03  0.27839213020E+03 -0.73408543744E+03  0.10464717698E+04  0.94269271999E+02 0.  0.
         23    2    4    4    0    0  0.63070220530E+02  0.56028172959E+03 -0.16743553754E+03  0.59531641922E+03  0.92051673187E+02 0.  0.
          2    1    3    3  502    0  0.61284211216E+03 -0.80643096021E+03 -0.61785048442E+03  0.11864424003E+04  0.00000000000E+00 0. -1.
         -1    1    3    3    0  502  0.95312183252E+01 -0.32242899578E+02 -0.31435287645E+02  0.46028534685E+02  0.00000000000E+00 0.  1.
         13    1    5    5    0    0 -0.46644845250E+02 -0.47603675221E+01 -0.51810888299E+02  0.69876826156E+02  0.00000000000E+00 0.  1.
        -13    1    5    5    0    0 -0.63879870577E+03  0.28315249772E+03 -0.68227454914E+03  0.97659494360E+03  0.00000000000E+00 0. -1.
          3    1    6    6  503    0 -0.23525470887E+02  0.87802624526E+02 -0.29113753138E+02  0.95448202057E+02  0.00000000000E+00 0.  1.
         -3    1    6    6    0  503  0.86595691417E+02  0.47247910506E+03 -0.13832178440E+03  0.49986821716E+03  0.00000000000E+00 0. -1.
<mgrwt>
<rscale>  0 0.24199926E+04</rscale>
<asrwt>0</asrwt>
<pdfrwt beam="1">  1        2 0.34038968E+00 0.24199926E+04</pdfrwt>
<pdfrwt beam="2">  1       -1 0.10180403E+00 0.24199926E+04</pdfrwt>
<totfact> 0.47458909E+00</totfact>
</mgrwt>
</event>
<event>
12    7  0.1857704E-007  0.1913099E+04  0.7818608E-02  0.8648363E-01
         -1   -1    0    0    0  501 -0.00000000000E+00  0.00000000000E+00  0.40059316964E+03  0.40059316964E+03  0.00000000000E+00 0.  1.
          2   -1    0    0  501    0  0.00000000000E+00 -0.00000000000E+00 -0.22840805179E+04  0.22840805179E+04  0.00000000000E+00 0. -1.
         24    2    1    2    0    0 -0.13090190209E+03 -0.44982365153E+03  0.23118624757E+02  0.47607279534E+03  0.81450661124E+02 0.  0.
        254    2    1    2    0    0  0.13090190209E+03  0.44982365153E+03 -0.19066059730E+04  0.22086008922E+04  0.10115804166E+04 0.  0.
         23    2    4    4    0    0  0.10390666946E+03 -0.25334815206E+03 -0.17333637961E+03  0.33585243275E+03  0.88144619653E+02 0.  0.
         23    2    4    4    0    0  0.26995232638E+02  0.70317180360E+03 -0.17332695934E+04  0.18727484595E+04  0.88226872631E+02 0.  0.
          4    1    3    3  502    0 -0.15505782990E+02 -0.62358228691E+02  0.31800168207E+02  0.71695388203E+02  0.00000000000E+00 0. -1.
         -3    1    3    3    0  502 -0.11539611910E+03 -0.38746542284E+03 -0.86815434497E+01  0.40437740713E+03  0.00000000000E+00 0.  1.
         13    1    5    5    0    0  0.63547307341E+02 -0.14865526693E+03 -0.50244950015E+02  0.16929620096E+03  0.00000000000E+00 0. -1.
        -13    1    5    5    0    0  0.40359362116E+02 -0.10469288513E+03 -0.12309142960E+03  0.16655623179E+03  0.00000000000E+00 0.  1.
          3    1    6    6  503    0  0.40953776387E+02  0.62494591077E+03 -0.15903504105E+04  0.17092246872E+04  0.00000000000E+00 0. -1.
         -3    1    6    6    0  503 -0.13958543750E+02  0.78225892824E+02 -0.14291918296E+03  0.16352377231E+03  0.00000000000E+00 0.  1.
<mgrwt>
<rscale>  0 0.19130991E+04</rscale>
<asrwt>0</asrwt>
<pdfrwt beam="1">  1        2 0.35139700E+00 0.19130991E+04</pdfrwt>
<pdfrwt beam="2">  1       -1 0.61629719E-01 0.19130991E+04</pdfrwt>
<totfact> 0.13170063E+01</totfact>
</mgrwt>
</event>
<event>
12    7  0.1857704E-007  0.1457186E+04  0.7818608E-02  0.8913434E-01
          2   -1    0    0  501    0  0.00000000000E+00  0.00000000000E+00  0.18840213338E+04  0.18840213338E+04  0.00000000000E+00 0. -1.
         -1   -1    0    0    0  501 -0.00000000000E+00 -0.00000000000E+00 -0.28176315420E+03  0.28176315420E+03  0.00000000000E+00 0.  1.
         24    2    1    2    0    0 -0.23720164091E+03  0.24355625007E+03  0.60127357421E+02  0.35436694553E+03  0.79852160739E+02 0.  0.
        254    2    1    2    0    0  0.23720164091E+03 -0.24355625007E+03  0.15421308222E+04  0.18114175425E+04  0.88740169882E+03 0.  0.
         23    2    4    4    0    0  0.43443388222E+03 -0.25682783585E+03  0.15064076178E+04  0.15920048914E+04  0.10257839946E+03 0.  0.
         23    2    4    4    0    0 -0.19723224132E+03  0.13271585775E+02  0.35723204445E+02  0.21941265112E+03  0.88255720099E+02 0.  0.
          2    1    3    3  502    0 -0.85263835932E+02  0.81648206825E+02  0.59795182362E+02  0.13233221539E+03  0.00000000000E+00 0. -1.
         -1    1    3    3    0  502 -0.15193780497E+03  0.16190804325E+03  0.33217505909E+00  0.22203473014E+03  0.00000000000E+00 0.  1.
         13    1    5    5    0    0  0.40667136658E+03 -0.20322845863E+03  0.13317997096E+04  0.14072575717E+04  0.00000000000E+00 0. -1.
        -13    1    5    5    0    0  0.27762515642E+02 -0.53599377215E+02  0.17460790820E+03  0.18474731965E+03  0.00000000000E+00 0.  1.
          4    1    6    6  503    0 -0.51385124127E+02 -0.39198092203E+01 -0.28766846646E+02  0.59019720025E+02  0.00000000000E+00 0. -1.
         -4    1    6    6    0  503 -0.14584711719E+03  0.17191394996E+02  0.64490051091E+02  0.16039293109E+03  0.00000000000E+00 0.  1.
<mgrwt>
<rscale>  0 0.14571860E+04</rscale>
<asrwt>0</asrwt>
<pdfrwt beam="1">  1        2 0.28984943E+00 0.14571860E+04</pdfrwt>
<pdfrwt beam="2">  1       -1 0.43348179E-01 0.14571860E+04</pdfrwt>
<totfact> 0.44943248E+01</totfact>
</mgrwt>
</event>
<event>
12    7  0.1857704E-007  0.2391531E+04  0.7818608E-02  0.8442681E-01
         -1   -1    0    0    0  501 -0.00000000000E+00  0.00000000000E+00  0.65459322025E+03  0.65459322025E+03  0.00000000000E+00 0.  1.
          2   -1    0    0  501    0  0.00000000000E+00 -0.00000000000E+00 -0.21843406399E+04  0.21843406399E+04  0.00000000000E+00 0. -1.
         24    2    1    2    0    0 -0.73038509465E+03 -0.38107174406E+03 -0.13834299519E+04  0.16121188795E+04  0.79817225036E+02 0.  0.
        254    2    1    2    0    0  0.73038509465E+03  0.38107174406E+03 -0.14631746775E+03  0.12268149806E+04  0.89721130990E+03 0.  0.
         23    2    4    4    0    0  0.80629916741E+03  0.54942878231E+03 -0.22353153893E+03  0.10062859096E+04  0.10322135835E+03 0.  0.
         23    2    4    4    0    0 -0.75914072756E+02 -0.16835703825E+03  0.77214071187E+02  0.22052907096E+03  0.92541988195E+02 0.  0.
          2    1    3    3  502    0 -0.52556503060E+03 -0.30037060908E+03 -0.96094749864E+03  0.11357205639E+04  0.00000000000E+00 0. -1.
         -1    1    3    3    0  502 -0.20482006405E+03 -0.80701134978E+02 -0.42248245323E+03  0.47639831560E+03  0.00000000000E+00 0.  1.
         13    1    5    5    0    0  0.64178485459E+02  0.26423253720E+02  0.64752354691E+01  0.69706491860E+02  0.00000000000E+00 0. -1.
        -13    1    5    5    0    0  0.74212068195E+03  0.52300552859E+03 -0.23000677440E+03  0.93657941776E+03  0.00000000000E+00 0.  1.
          1    1    6    6  503    0  0.12749311226E+02 -0.35155895983E+01 -0.73599319822E+01  0.15135154633E+02  0.00000000000E+00 0. -1.
         -1    1    6    6    0  503 -0.88663383982E+02 -0.16484144865E+03  0.84574003169E+02  0.20539391633E+03  0.00000000000E+00 0.  1.
<mgrwt>
<rscale>  0 0.23915305E+04</rscale>
<asrwt>0</asrwt>
<pdfrwt beam="1">  1        2 0.33605241E+00 0.23915305E+04</pdfrwt>
<pdfrwt beam="2">  1       -1 0.10070665E+00 0.23915305E+04</pdfrwt>
<totfact> 0.50592028E+00</totfact>
</mgrwt>
</event>
<event>
12    7  0.1857704E-007  0.1493864E+04  0.7818608E-02  0.8888544E-01
         -1   -1    0    0    0  501 -0.00000000000E+00  0.00000000000E+00  0.25996723050E+03  0.25996723050E+03  0.00000000000E+00 0.  1.
          2   -1    0    0  501    0  0.00000000000E+00 -0.00000000000E+00 -0.21460682709E+04  0.21460682709E+04  0.00000000000E+00 0. -1.
         24    2    1    2    0    0 -0.85547122652E+02  0.35296283024E+02  0.14135462052E+03  0.18625647934E+03  0.78397765046E+02 0.  0.
        254    2    1    2    0    0  0.85547122652E+02 -0.35296283024E+02 -0.20274556610E+04  0.22197790221E+04  0.89904299785E+03 0.  0.
         23    2    4    4    0    0  0.40650419330E+03 -0.25930621438E+03 -0.12834099302E+04  0.13741180060E+04  0.92595213486E+02 0.  0.
         23    2    4    4    0    0 -0.32095707065E+03  0.22400993136E+03 -0.74404573075E+03  0.84566101606E+03  0.91348859250E+02 0.  0.
          4    1    3    3  502    0  0.13560646204E+02 -0.36103605157E+01  0.23994413726E+02  0.27796721364E+02  0.00000000000E+00 0. -1.
         -3    1    3    3    0  502 -0.99107768856E+02  0.38906643540E+02  0.11736020679E+03  0.15845975797E+03  0.00000000000E+00 0.  1.
         13    1    5    5    0    0  0.82686073484E+02 -0.64824531359E+02 -0.39512420181E+03  0.40885491494E+03  0.00000000000E+00 0.  1.
        -13    1    5    5    0    0  0.32381811982E+03 -0.19448168302E+03 -0.88828572840E+03  0.96526309110E+03  0.00000000000E+00 0. -1.
          4    1    6    6  503    0 -0.19459158746E+03  0.15754125014E+03 -0.55406840013E+03  0.60801062773E+03  0.00000000000E+00 0. -1.
         -4    1    6    6    0  503 -0.12636548319E+03  0.66468681210E+02 -0.18997733062E+03  0.23765038833E+03  0.00000000000E+00 0.  1.
<mgrwt>
<rscale>  0 0.14938640E+04</rscale>
<asrwt>0</asrwt>
<pdfrwt beam="1">  1        2 0.33016436E+00 0.14938640E+04</pdfrwt>
<pdfrwt beam="2">  1       -1 0.39994958E-01 0.14938640E+04</pdfrwt>
<totfact> 0.37173241E+01</totfact>
</mgrwt>
</event>
<event>
12    7  0.1857704E-007  0.1616203E+04  0.7818608E-02  0.8810655E-01
          2   -1    0    0  501    0  0.00000000000E+00  0.00000000000E+00  0.88881510005E+03  0.88881510005E+03  0.00000000000E+00 0. -1.
         -1   -1    0    0    0  501 -0.00000000000E+00 -0.00000000000E+00 -0.73471781679E+03  0.73471781679E+03  0.00000000000E+00 0.  1.
         24    2    1    2    0    0 -0.51965667748E+03 -0.15412782929E+03 -0.84181031099E+02  0.55440683747E+03  0.80511149713E+02 0.  0.
        254    2    1    2    0    0  0.51965667748E+03  0.15412782929E+03  0.23827831435E+03  0.10691260794E+04  0.89019973505E+03 0.  0.
         23    2    4    4    0    0  0.36698906214E+03  0.46970305457E+03 -0.52172972072E+02  0.60514147506E+03  0.90400523334E+02 0.  0.
         23    2    4    4    0    0  0.15266761534E+03 -0.31557522528E+03  0.29045128643E+03  0.46398460431E+03  0.89580353115E+02 0.  0.
          4    1    3    3  502    0 -0.49677306790E+03 -0.14154277310E+03 -0.62207434833E+02  0.52027646742E+03  0.00000000000E+00 0. -1.
         -3    1    3    3    0  502 -0.22883609580E+02 -0.12585056194E+02 -0.21973596266E+02  0.34130370049E+02  0.00000000000E+00 0.  1.
         13    1    5    5    0    0  0.19052354522E+03  0.31126646977E+03 -0.46713877703E+02  0.36792420803E+03  0.00000000000E+00 0. -1.
        -13    1    5    5    0    0  0.17646551692E+03  0.15843658481E+03 -0.54590943689E+01  0.23721726703E+03  0.00000000000E+00 0.  1.
          4    1    6    6  503    0  0.15017625864E+03 -0.31580633609E+03  0.29583708560E+03  0.45804599309E+03  0.00000000000E+00 0. -1.
         -4    1    6    6    0  503  0.24913566975E+01  0.23111081240E+00 -0.53857991724E+01  0.59386112120E+01  0.00000000000E+00 0.  1.
<mgrwt>
<rscale>  0 0.16162033E+04</rscale>
<asrwt>0</asrwt>
<pdfrwt beam="1">  1        2 0.13674078E+00 0.16162033E+04</pdfrwt>
<pdfrwt beam="2">  1       -1 0.11303351E+00 0.16162033E+04</pdfrwt>
<totfact> 0.23338997E+01</totfact>
</mgrwt>
</event>
<event>
12    7  0.1857704E-007  0.1464621E+04  0.7818608E-02  0.8908326E-01
          2   -1    0    0  501    0  0.00000000000E+00  0.00000000000E+00  0.14242107142E+04  0.14242107142E+04  0.00000000000E+00 0. -1.
         -1   -1    0    0    0  501 -0.00000000000E+00 -0.00000000000E+00 -0.37654464175E+03  0.37654464175E+03  0.00000000000E+00 0.  1.
         24    2    1    2    0    0 -0.97677831021E+02 -0.81465563116E+02  0.85736636419E+03  0.87128131041E+03  0.88749325485E+02 0.  0.
        254    2    1    2    0    0  0.97677831021E+02  0.81465563116E+02  0.19029970824E+03  0.92947404552E+03  0.90084983526E+03 0.  0.
         23    2    4    4    0    0  0.21826844925E+03  0.44928242062E+03  0.62162167612E+02  0.51169441170E+03  0.92039265931E+02 0.  0.
         23    2    4    4    0    0 -0.12059061823E+03 -0.36781685750E+03  0.12813754063E+03  0.41777963381E+03  0.91045347190E+02 0.  0.
          2    1    3    3  502    0 -0.55237867651E+02 -0.94714790002E+02  0.65226234489E+03  0.66141384929E+03  0.00000000000E+00 0. -1.
         -1    1    3    3    0  502 -0.42439963370E+02  0.13249226886E+02  0.20510401930E+03  0.20986746112E+03  0.00000000000E+00 0.  1.
         13    1    5    5    0    0  0.30573315841E+01  0.13302390491E+02 -0.14009983700E+02  0.19559665449E+02  0.00000000000E+00 0.  1.
        -13    1    5    5    0    0  0.21521111767E+03  0.43598003013E+03  0.76172151312E+02  0.49213474626E+03  0.00000000000E+00 0. -1.
          1    1    6    6  503    0 -0.99182380709E+02 -0.27185845566E+03  0.53378716847E+02  0.29426765362E+03  0.00000000000E+00 0. -1.
         -1    1    6    6    0  503 -0.21408237524E+02 -0.95958401844E+02  0.74758823782E+02  0.12351198019E+03  0.00000000000E+00 0.  1.
<mgrwt>
<rscale>  0 0.14646213E+04</rscale>
<asrwt>0</asrwt>
<pdfrwt beam="1">  1        2 0.21910934E+00 0.14646213E+04</pdfrwt>
<pdfrwt beam="2">  1       -1 0.57929946E-01 0.14646213E+04</pdfrwt>
<totfact> 0.46710409E+01</totfact>
</mgrwt>
</event>
<event>
12    7  0.1857704E-007  0.1458748E+04  0.7818608E-02  0.8912358E-01
         -1   -1    0    0    0  501 -0.00000000000E+00  0.00000000000E+00  0.34513452218E+03  0.34513452218E+03  0.00000000000E+00 0.  1.
          2   -1    0    0  501    0  0.00000000000E+00 -0.00000000000E+00 -0.15413894882E+04  0.15413894882E+04  0.00000000000E+00 0. -1.
         24    2    1    2    0    0  0.39928903406E+03 -0.18517175228E+03 -0.29781167830E+03  0.53723788475E+03  0.78819023831E+02 0.  0.
        254    2    1    2    0    0 -0.39928903406E+03  0.18517175228E+03 -0.89844328773E+03  0.13492861256E+04  0.90534656184E+03 0.  0.
         23    2    4    4    0    0 -0.91967800618E+02 -0.17494663475E+03  0.10053599452E+03  0.23992219556E+03  0.91601159201E+02 0.  0.
         23    2    4    4    0    0 -0.30732123344E+03  0.36011838703E+03 -0.99897928225E+03  0.11093639301E+04  0.92720708610E+02 0.  0.
          4    1    3    3  502    0  0.28871972601E+03 -0.10898968348E+03 -0.17234943262E+03  0.35347158049E+03  0.00000000000E+00 0. -1.
         -3    1    3    3    0  502  0.11056930805E+03 -0.76182068804E+02 -0.12546224569E+03  0.18376630427E+03  0.00000000000E+00 0.  1.
         13    1    5    5    0    0  0.56507937586E+01 -0.43141073461E+02 -0.66088746396E+01  0.44008645894E+02  0.00000000000E+00 0.  1.
        -13    1    5    5    0    0 -0.97618594377E+02 -0.13180556129E+03  0.10714486916E+03  0.19591354967E+03  0.00000000000E+00 0. -1.
          1    1    6    6  503    0 -0.17958836527E+03  0.15708363504E+03 -0.56903859721E+03  0.61703498640E+03  0.00000000000E+00 0. -1.
         -1    1    6    6    0  503 -0.12773286817E+03  0.20303475200E+03 -0.42994068505E+03  0.49232894368E+03  0.00000000000E+00 0.  1.
<mgrwt>
<rscale>  0 0.14587484E+04</rscale>
<asrwt>0</asrwt>
<pdfrwt beam="1">  1        2 0.23713685E+00 0.14587484E+04</pdfrwt>
<pdfrwt beam="2">  1       -1 0.53097619E-01 0.14587484E+04</pdfrwt>
<totfact> 0.47510014E+01</totfact>
</mgrwt>
</event>
<event>
12    7  0.1857704E-007  0.1308669E+04  0.7818608E-02  0.9022719E-01
          2   -1    0    0  501    0  0.00000000000E+00  0.00000000000E+00  0.60444828717E+03  0.60444828717E+03  0.00000000000E+00 0. -1.
         -1   -1    0    0    0  501 -0.00000000000E+00 -0.00000000000E+00 -0.70833796259E+03  0.70833796259E+03  0.00000000000E+00 0.  1.
         24    2    1    2    0    0  0.96661156723E+02 -0.81756185491E+01 -0.43487772572E+03  0.45301636338E+03  0.81822791485E+02 0.  0.
        254    2    1    2    0    0 -0.96661156723E+02  0.81756185491E+01  0.33098805030E+03  0.85976988638E+03  0.78755377475E+03 0.  0.
         23    2    4    4    0    0 -0.20805777451E+03  0.25451704195E+03 -0.88957046144E+02  0.35233883953E+03  0.90345667346E+02 0.  0.
         23    2    4    4    0    0  0.11139661779E+03 -0.24634142340E+03  0.41994509645E+03  0.50743104685E+03  0.89660916425E+02 0.  0.
          2    1    3    3  502    0  0.12489901387E+02 -0.99618239969E+01 -0.79093376009E+01  0.17826755041E+02  0.00000000000E+00 0. -1.
         -1    1    3    3    0  502  0.84171255336E+02  0.17862054477E+01 -0.42696838812E+03  0.43518960834E+03  0.00000000000E+00 0.  1.
         13    1    5    5    0    0 -0.10644063296E+03  0.18053465943E+03 -0.86203374897E+02  0.22661287131E+03  0.00000000000E+00 0.  1.
        -13    1    5    5    0    0 -0.10161714155E+03  0.73982382522E+02 -0.27536712466E+01  0.12572596822E+03  0.00000000000E+00 0. -1.
          3    1    6    6  503    0  0.10352047723E+03 -0.17077892809E+03  0.24075893100E+03  0.31280472238E+03  0.00000000000E+00 0. -1.
         -3    1    6    6    0  503  0.78761405531E+01 -0.75562495311E+02  0.17918616544E+03  0.19462632446E+03  0.00000000000E+00 0.  1.
<mgrwt>
<rscale>  0 0.13086690E+04</rscale>
<asrwt>0</asrwt>
<pdfrwt beam="1">  1        2 0.92992044E-01 0.13086690E+04</pdfrwt>
<pdfrwt beam="2">  1       -1 0.10897507E+00 0.13086690E+04</pdfrwt>
<totfact> 0.42955293E+01</totfact>
</mgrwt>
</event>
<event>
12    7  0.1857704E-007  0.2414302E+04  0.7818608E-02  0.8434168E-01
          2   -1    0    0  501    0  0.00000000000E+00  0.00000000000E+00  0.15494162447E+04  0.15494162447E+04  0.00000000000E+00 0. -1.
         -1   -1    0    0    0  501 -0.00000000000E+00 -0.00000000000E+00 -0.94049196275E+03  0.94049196275E+03  0.00000000000E+00 0.  1.
         24    2    1    2    0    0  0.48951816808E+03  0.25789451174E+03 -0.63633144848E+03  0.84704294522E+03  0.80164971529E+02 0.  0.
        254    2    1    2    0    0 -0.48951816808E+03 -0.25789451174E+03  0.12452557304E+04  0.16428652622E+04  0.91771826810E+03 0.  0.
         23    2    4    4    0    0 -0.15888886266E+03 -0.43096417306E+03  0.16563261229E+03  0.49686463028E+03  0.92002768612E+02 0.  0.
         23    2    4    4    0    0 -0.33062930542E+03  0.17306966132E+03  0.10796231181E+04  0.11460006319E+04  0.91991988421E+02 0.  0.
          4    1    3    3  502    0  0.19470092774E+03  0.12496190076E+03 -0.31802171767E+03  0.39327056947E+03  0.00000000000E+00 0. -1.
         -3    1    3    3    0  502  0.29481724034E+03  0.13293261098E+03 -0.31830973081E+03  0.45377237575E+03  0.00000000000E+00 0.  1.
         13    1    5    5    0    0 -0.44323595718E+02 -0.76067724970E+02  0.68345162235E+02  0.11145376225E+03  0.00000000000E+00 0.  1.
        -13    1    5    5    0    0 -0.11456526694E+03 -0.35489644809E+03  0.97287450055E+02  0.38541086803E+03  0.00000000000E+00 0. -1.
          2    1    6    6  503    0  0.44197712737E+01  0.11438155159E+02  0.39263100208E+02  0.41133402601E+02  0.00000000000E+00 0.  1.
         -2    1    6    6    0  503 -0.33504907669E+03  0.16163150616E+03  0.10403600179E+04  0.11048672293E+04  0.00000000000E+00 0. -1.
<mgrwt>
<rscale>  0 0.24143020E+04</rscale>
<asrwt>0</asrwt>
<pdfrwt beam="1">  1        2 0.23837173E+00 0.24143020E+04</pdfrwt>
<pdfrwt beam="2">  1       -1 0.14469107E+00 0.24143020E+04</pdfrwt>
<totfact> 0.46798245E+00</totfact>
</mgrwt>
</event>
<event>
12    7  0.1857704E-007  0.1162877E+04  0.7818608E-02  0.9145986E-01
          2   -1    0    0  501    0  0.00000000000E+00  0.00000000000E+00  0.84141040219E+03  0.84141040219E+03  0.00000000000E+00 0. -1.
         -1   -1    0    0    0  501 -0.00000000000E+00 -0.00000000000E+00 -0.40179022607E+03  0.40179022607E+03  0.00000000000E+00 0.  1.
         24    2    1    2    0    0  0.10071304957E+03  0.12815785637E+03 -0.62369181253E+02  0.19247647191E+03  0.81177108630E+02 0.  0.
        254    2    1    2    0    0 -0.10071304957E+03 -0.12815785637E+03  0.50198935737E+03  0.10507241563E+04  0.90854850356E+03 0.  0.
         23    2    4    4    0    0 -0.40556403652E+03  0.20396351613E+03  0.25103825128E+03  0.52675630492E+03  0.91480585620E+02 0.  0.
         23    2    4    4    0    0  0.30485098694E+03 -0.33212137250E+03  0.25095110609E+03  0.52396785143E+03  0.91253062237E+02 0.  0.
          4    1    3    3  502    0  0.25916983242E+02  0.52105501291E+02 -0.63053644944E+02  0.85804635223E+02  0.00000000000E+00 0. -1.
         -3    1    3    3    0  502  0.74796066332E+02  0.76052355081E+02  0.68446369091E+00  0.10667183669E+03  0.00000000000E+00 0.  1.
         13    1    5    5    0    0 -0.39716716178E+03  0.18049184598E+03  0.22558428128E+03  0.49112862757E+03  0.00000000000E+00 0. -1.
        -13    1    5    5    0    0 -0.83968747380E+01  0.23471670145E+02  0.25453969995E+02  0.35627677349E+02  0.00000000000E+00 0.  1.
          1    1    6    6  503    0  0.21862381941E+03 -0.28974923905E+03  0.18470988160E+03  0.40726985686E+03  0.00000000000E+00 0. -1.
         -1    1    6    6    0  503  0.86227167531E+02 -0.42372133445E+02  0.66241224497E+02  0.11669799457E+03  0.00000000000E+00 0.  1.
<mgrwt>
<rscale>  0 0.11628766E+04</rscale>
<asrwt>0</asrwt>
<pdfrwt beam="1">  1        2 0.12944775E+00 0.11628766E+04</pdfrwt>
<pdfrwt beam="2">  1       -1 0.61813881E-01 0.11628766E+04</pdfrwt>
<totfact> 0.96448951E+01</totfact>
</mgrwt>
</event>
<event>
12    7  0.1857704E-007  0.3919196E+04  0.7818608E-02  0.8021049E-01
          2   -1    0    0  501    0  0.00000000000E+00  0.00000000000E+00  0.30527038292E+04  0.30527038292E+04  0.00000000000E+00 0. -1.
         -1   -1    0    0    0  501 -0.00000000000E+00 -0.00000000000E+00 -0.12579089966E+04  0.12579089966E+04  0.00000000000E+00 0.  1.
         24    2    1    2    0    0 -0.11561112425E+04  0.10137563719E+04 -0.29196567534E+03  0.15671140273E+04  0.79418085974E+02 0.  0.
        254    2    1    2    0    0  0.11561112425E+04 -0.10137563719E+04  0.20867605080E+04  0.27434987985E+04  0.89884428741E+03 0.  0.
         23    2    4    4    0    0  0.39671926179E+03 -0.39208859139E+03  0.17377953852E+03  0.59170253225E+03  0.93770584340E+02 0.  0.
         23    2    4    4    0    0  0.75939198072E+03 -0.62166778053E+03  0.19129809695E+04  0.21517962663E+04  0.87086004421E+02 0.  0.
          4    1    3    3  502    0 -0.41471185324E+03  0.37684620672E+03 -0.68918133848E+02  0.56457833284E+03  0.00000000000E+00 0. -1.
         -3    1    3    3    0  502 -0.74139938926E+03  0.63691016520E+03 -0.22304754149E+03  0.10025356945E+04  0.00000000000E+00 0.  1.
         13    1    5    5    0    0  0.39049972145E+03 -0.35888735288E+03  0.15280523326E+03  0.55194166705E+03  0.00000000000E+00 0.  1.
        -13    1    5    5    0    0  0.62195403412E+01 -0.33201238506E+02  0.20974305260E+02  0.39760865201E+02  0.00000000000E+00 0. -1.
          4    1    6    6  503    0  0.26022393470E+03 -0.24184148848E+03  0.77052139758E+03  0.84847335013E+03  0.00000000000E+00 0. -1.
         -4    1    6    6    0  503  0.49916804602E+03 -0.37982629206E+03  0.11424595719E+04  0.13033229161E+04  0.00000000000E+00 0.  1.
<mgrwt>
<rscale>  0 0.39191956E+04</rscale>
<asrwt>0</asrwt>
<pdfrwt beam="1">  1        2 0.46964674E+00 0.39191956E+04</pdfrwt>
<pdfrwt beam="2">  1       -1 0.19352446E+00 0.39191956E+04</pdfrwt>
<totfact> 0.24258729E-01</totfact>
</mgrwt>
</event>
<event>
12    7  0.1895608E-007  0.2129501E+04  0.7818608E-02  0.8548358E-01
         -1   -1    0    0    0  501 -0.00000000000E+00  0.00000000000E+00  0.43374604488E+03  0.43374604488E+03  0.00000000000E+00 0.  1.
          2   -1    0    0  501    0  0.00000000000E+00 -0.00000000000E+00 -0.26137273807E+04  0.26137273807E+04  0.00000000000E+00 0. -1.
         24    2    1    2    0    0  0.38006652027E+03  0.36230005697E+03 -0.18991431105E+04  0.19719873102E+04  0.79230715765E+02 0.  0.
        254    2    1    2    0    0 -0.38006652027E+03 -0.36230005697E+03 -0.28083822527E+03  0.10754861153E+04  0.89559387245E+03 0.  0.
         23    2    4    4    0    0  0.23768770412E+03 -0.32274274859E+03 -0.13535999571E+03  0.43313586347E+03  0.92876376580E+02 0.  0.
         23    2    4    4    0    0 -0.61775422439E+03 -0.39557308378E+02 -0.14547822956E+03  0.64235025185E+03  0.90911321516E+02 0.  0.
          2    1    3    3  502    0  0.34024509118E+03  0.29973071151E+03 -0.15451710390E+04  0.16103287743E+04  0.00000000000E+00 0. -1.
         -1    1    3    3    0  502  0.39821429094E+02  0.62569345466E+02 -0.35397207148E+03  0.36165853591E+03  0.00000000000E+00 0.  1.
         13    1    5    5    0    0  0.21107665268E+03 -0.27950782373E+03 -0.14890393984E+03  0.38059211780E+03  0.00000000000E+00 0. -1.
        -13    1    5    5    0    0  0.26611051446E+02 -0.43234924866E+02  0.13543944125E+02  0.52543745676E+02  0.00000000000E+00 0.  1.
          3    1    6    6  503    0 -0.28378112228E+03 -0.20273482740E+02 -0.20515820424E+02  0.28524312148E+03  0.00000000000E+00 0. -1.
         -3    1    6    6    0  503 -0.33397310211E+03 -0.19283825638E+02 -0.12496240913E+03  0.35710713037E+03  0.00000000000E+00 0.  1.
<mgrwt>
<rscale>  0 0.21295013E+04</rscale>
<asrwt>0</asrwt>
<pdfrwt beam="1">  1        2 0.40211191E+00 0.21295013E+04</pdfrwt>
<pdfrwt beam="2">  1       -1 0.66730160E-01 0.21295013E+04</pdfrwt>
<totfact> 0.71143749E+00</totfact>
</mgrwt>
</event>
<event>
12    7  0.1857704E-007  0.2320222E+04  0.7818608E-02  0.8469990E-01
          2   -1    0    0  501    0  0.00000000000E+00  0.00000000000E+00  0.32823598821E+04  0.32823598821E+04  0.00000000000E+00 0. -1.
         -1   -1    0    0    0  501 -0.00000000000E+00 -0.00000000000E+00 -0.41002749023E+03  0.41002749023E+03  0.00000000000E+00 0.  1.
         24    2    1    2    0    0 -0.84972317972E+03 -0.47357282920E+03  0.10104462470E+04  0.14048927783E+04  0.80133599311E+02 0.  0.
        254    2    1    2    0    0  0.84972317972E+03  0.47357282920E+03  0.18618861449E+04  0.22874945940E+04  0.90537881273E+03 0.  0.
         23    2    4    4    0    0  0.48198441759E+03  0.42135933127E+03  0.17830162084E+04  0.18969073694E+04  0.96219042015E+02 0.  0.
         23    2    4    4    0    0  0.36773876213E+03  0.52213497930E+02  0.78869936487E+02  0.39058722459E+03  0.91541611248E+02 0.  0.
          4    1    3    3  502    0 -0.17460662779E+03 -0.61893754183E+02  0.18446306599E+03  0.26142864034E+03  0.00000000000E+00 0. -1.
         -3    1    3    3    0  502 -0.67511655194E+03 -0.41167907502E+03  0.82598318101E+03  0.11434641380E+04  0.00000000000E+00 0.  1.
         13    1    5    5    0    0  0.15778114167E+03  0.84048808357E+02  0.45267367754E+03  0.48669554054E+03  0.00000000000E+00 0. -1.
        -13    1    5    5    0    0  0.32420327592E+03  0.33731052291E+03  0.13303425308E+04  0.14102118289E+04  0.00000000000E+00 0.  1.
          3    1    6    6  503    0  0.64197143892E+02 -0.81328825245E+01 -0.16431547134E+02  0.66763858510E+02  0.00000000000E+00 0. -1.
         -3    1    6    6    0  503  0.30354161824E+03  0.60346380454E+02  0.95301483620E+02  0.32382336608E+03  0.00000000000E+00 0.  1.
<mgrwt>
<rscale>  0 0.23202222E+04</rscale>
<asrwt>0</asrwt>
<pdfrwt beam="1">  1        2 0.50497843E+00 0.23202222E+04</pdfrwt>
<pdfrwt beam="2">  1       -1 0.63081154E-01 0.23202222E+04</pdfrwt>
<totfact> 0.30083858E+00</totfact>
</mgrwt>
</event>
<event>
12    7  0.1857704E-007  0.2010379E+04  0.7818608E-02  0.8601783E-01
          2   -1    0    0  501    0  0.00000000000E+00  0.00000000000E+00  0.13391266358E+04  0.13391266358E+04  0.00000000000E+00 0. -1.
         -1   -1    0    0    0  501 -0.00000000000E+00 -0.00000000000E+00 -0.75452618245E+03  0.75452618245E+03  0.00000000000E+00 0.  1.
         24    2    1    2    0    0  0.55420383193E+03  0.27902201048E+03  0.76196482434E+03  0.98590488447E+03  0.80142860180E+02 0.  0.
        254    2    1    2    0    0 -0.55420383193E+03 -0.27902201048E+03 -0.17736437096E+03  0.11077479338E+04  0.90036225773E+03 0.  0.
         23    2    4    4    0    0 -0.29828879914E+03 -0.23253719000E+03 -0.53166760843E+03  0.65889719960E+03  0.91789549330E+02 0.  0.
         23    2    4    4    0    0 -0.25591503278E+03 -0.46484820474E+02  0.35430323747E+03  0.44885073422E+03  0.91010191661E+02 0.  0.
          2    1    3    3  502    0  0.27111626495E+03  0.13480259690E+03  0.30888385093E+03  0.43253323874E+03  0.00000000000E+00 0. -1.
         -1    1    3    3    0  502  0.28308756698E+03  0.14421941358E+03  0.45308097341E+03  0.55337164573E+03  0.00000000000E+00 0.  1.
         13    1    5    5    0    0 -0.19794544205E+03 -0.11912658044E+03 -0.37902369666E+03  0.44388343383E+03  0.00000000000E+00 0. -1.
        -13    1    5    5    0    0 -0.10034335709E+03 -0.11341060956E+03 -0.15264391176E+03  0.21501376577E+03  0.00000000000E+00 0.  1.
          1    1    6    6  503    0 -0.21849916446E+03 -0.51207863342E+02  0.34223490668E+03  0.40925403051E+03  0.00000000000E+00 0. -1.
         -1    1    6    6    0  503 -0.37415868325E+02  0.47230428681E+01  0.12068330789E+02  0.39596703708E+02  0.00000000000E+00 0.  1.
<mgrwt>
<rscale>  0 0.20103792E+04</rscale>
<asrwt>0</asrwt>
<pdfrwt beam="1">  1        2 0.20601948E+00 0.20103792E+04</pdfrwt>
<pdfrwt beam="2">  1       -1 0.11608095E+00 0.20103792E+04</pdfrwt>
<totfact> 0.11139938E+01</totfact>
</mgrwt>
</event>
<event>
12    7  0.1857704E-007  0.2290105E+04  0.7818608E-02  0.8481833E-01
          2   -1    0    0  501    0  0.00000000000E+00  0.00000000000E+00  0.26828796574E+04  0.26828796574E+04  0.00000000000E+00 0. -1.
         -1   -1    0    0    0  501 -0.00000000000E+00 -0.00000000000E+00 -0.48870806419E+03  0.48870806419E+03  0.00000000000E+00 0.  1.
         24    2    1    2    0    0  0.47087224268E+03 -0.15735284679E+03 -0.20957220151E+03  0.54455829377E+03  0.78374998230E+02 0.  0.
        254    2    1    2    0    0 -0.47087224268E+03  0.15735284679E+03  0.24037437947E+04  0.26270294278E+04  0.93638602971E+03 0.  0.
         23    2    4    4    0    0 -0.24497273133E+02 -0.33071400255E+03  0.12239948598E+04  0.12714331922E+04  0.91690117311E+02 0.  0.
         23    2    4    4    0    0 -0.44637496955E+03  0.48806684934E+03  0.11797489349E+04  0.13555962356E+04  0.91508150548E+02 0.  0.
          2    1    3    3  502    0  0.85468135802E+02 -0.52228906527E+02 -0.19011179449E+02  0.10195138968E+03  0.00000000000E+00 0. -1.
         -1    1    3    3    0  502  0.38540410688E+03 -0.10512394026E+03 -0.19056102206E+03  0.44260690408E+03  0.00000000000E+00 0.  1.
         13    1    5    5    0    0  0.11070946219E+02 -0.21784219616E+03  0.65842880837E+03  0.69361825521E+03  0.00000000000E+00 0. -1.
        -13    1    5    5    0    0 -0.35568219352E+02 -0.11287180639E+03  0.56556605144E+03  0.57781493702E+03  0.00000000000E+00 0.  1.
          3    1    6    6  503    0 -0.43970731117E+03  0.47523129808E+03  0.11158509390E+04  0.12900816347E+04  0.00000000000E+00 0. -1.
         -3    1    6    6    0  503 -0.66676583738E+01  0.12835551263E+02  0.63897995869E+02  0.65514600820E+02  0.00000000000E+00 0.  1.
<mgrwt>
<rscale>  0 0.22901047E+04</rscale>
<asrwt>0</asrwt>
<pdfrwt beam="1">  1        2 0.41275071E+00 0.22901047E+04</pdfrwt>
<pdfrwt beam="2">  1       -1 0.75185858E-01 0.22901047E+04</pdfrwt>
<totfact> 0.49926679E+00</totfact>
</mgrwt>
</event>
<event>
12    7  0.1857704E-007  0.1306634E+04  0.7818608E-02  0.9024321E-01
         -1   -1    0    0    0  501 -0.00000000000E+00  0.00000000000E+00  0.29386127955E+03  0.29386127955E+03  0.00000000000E+00 0.  1.
          2   -1    0    0  501    0  0.00000000000E+00 -0.00000000000E+00 -0.14524642491E+04  0.14524642491E+04  0.00000000000E+00 0. -1.
         24    2    1    2    0    0  0.27283726766E+02  0.28703294707E+03 -0.69249545128E+02  0.30672635580E+03  0.78442612095E+02 0.  0.
        254    2    1    2    0    0 -0.27283726766E+02 -0.28703294707E+03 -0.10893534244E+04  0.14395991728E+04  0.89589205862E+03 0.  0.
         23    2    4    4    0    0 -0.26351826184E+03 -0.45785424487E+03 -0.35041301881E+03  0.64039343773E+03  0.90785943117E+02 0.  0.
         23    2    4    4    0    0  0.23623453507E+03  0.17082129780E+03 -0.73894040561E+03  0.79920573511E+03  0.87807816583E+02 0.  0.
          2    1    3    3  502    0  0.43984868104E+01 -0.19220665527E+01 -0.96856186464E+01  0.10809821211E+02  0.00000000000E+00 0. -1.
         -1    1    3    3    0  502  0.22885239956E+02  0.28895501362E+03 -0.59563926482E+02  0.29591653459E+03  0.00000000000E+00 0.  1.
         13    1    5    5    0    0 -0.11016853373E+03 -0.16086348257E+03 -0.81164968634E+02  0.21119166172E+03  0.00000000000E+00 0. -1.
        -13    1    5    5    0    0 -0.15334972811E+03 -0.29699076230E+03 -0.26924805017E+03  0.42920177600E+03  0.00000000000E+00 0.  1.
          4    1    6    6  503    0  0.20379214755E+03  0.11720463650E+03 -0.64282680198E+03  0.68446655401E+03  0.00000000000E+00 0.  1.
         -4    1    6    6    0  503  0.32442387524E+02  0.53616661295E+02 -0.96113603634E+02  0.11473918110E+03  0.00000000000E+00 0. -1.
<mgrwt>
<rscale>  0 0.13066338E+04</rscale>
<asrwt>0</asrwt>
<pdfrwt beam="1">  1        2 0.22345604E+00 0.13066338E+04</pdfrwt>
<pdfrwt beam="2">  1       -1 0.45209427E-01 0.13066338E+04</pdfrwt>
<totfact> 0.73189677E+01</totfact>
</mgrwt>
</event>
<event>
12    7  0.1857704E-007  0.3225479E+04  0.7818608E-02  0.8182120E-01
          2   -1    0    0  501    0  0.00000000000E+00  0.00000000000E+00  0.28833881941E+04  0.28833881941E+04  0.00000000000E+00 0. -1.
         -1   -1    0    0    0  501 -0.00000000000E+00 -0.00000000000E+00 -0.90203905331E+03  0.90203905331E+03  0.00000000000E+00 0.  1.
         24    2    1    2    0    0  0.42977827771E+03 -0.13780355140E+04  0.13287176386E+04  0.19635858111E+04  0.80544575439E+02 0.  0.
        254    2    1    2    0    0 -0.42977827771E+03  0.13780355140E+04  0.65263150227E+03  0.18218414363E+04  0.89971500788E+03 0.  0.
         23    2    4    4    0    0 -0.45290247217E+03  0.52095353664E+03  0.65904944619E+03  0.95896921909E+03  0.93608514546E+02 0.  0.
         23    2    4    4    0    0  0.23124194465E+02  0.85708197741E+03 -0.64179439199E+01  0.86287221724E+03  0.96866035955E+02 0.  0.
          4    1    3    3  502    0  0.17857279744E+03 -0.67553924351E+03  0.60720456097E+03  0.92570993965E+03  0.00000000000E+00 0. -1.
         -3    1    3    3    0  502  0.25120548027E+03 -0.70249627054E+03  0.72151307759E+03  0.10378758715E+04  0.00000000000E+00 0.  1.
         13    1    5    5    0    0 -0.43932967547E+03  0.51952711090E+03  0.63177632508E+03  0.92847202846E+03  0.00000000000E+00 0.  1.
        -13    1    5    5    0    0 -0.13572796708E+02  0.14264257372E+01  0.27273121111E+02  0.30497190625E+02  0.00000000000E+00 0. -1.
          1    1    6    6  503    0 -0.29130156172E+02  0.26319048464E+03 -0.28154485737E+02  0.26629020311E+03  0.00000000000E+00 0. -1.
         -1    1    6    6    0  503  0.52254350637E+02  0.59389149276E+03  0.21736541817E+02  0.59658201413E+03  0.00000000000E+00 0.  1.
<mgrwt>
<rscale>  0 0.32254790E+04</rscale>
<asrwt>0</asrwt>
<pdfrwt beam="1">  1        2 0.44359818E+00 0.32254790E+04</pdfrwt>
<pdfrwt beam="2">  1       -1 0.13877524E+00 0.32254790E+04</pdfrwt>
<totfact> 0.84160426E-01</totfact>
</mgrwt>
</event>
<event>
12    7  0.3159040E-007  0.3372438E+04  0.7818608E-02  0.8144704E-01
         -1   -1    0    0    0  501 -0.00000000000E+00  0.00000000000E+00  0.11636663059E+04  0.11636663059E+04  0.00000000000E+00 0.  1.
          2   -1    0    0  501    0  0.00000000000E+00 -0.00000000000E+00 -0.24434279796E+04  0.24434279796E+04  0.00000000000E+00 0. -1.
         24    2    1    2    0    0 -0.12635889846E+04  0.35629626290E+03  0.31696525136E+03  0.13529687846E+04  0.80333134416E+02 0.  0.
        254    2    1    2    0    0  0.12635889846E+04 -0.35629626290E+03 -0.15967269250E+04  0.22541255010E+04  0.89885524527E+03 0.  0.
         23    2    4    4    0    0  0.10062416374E+04 -0.63874379526E+03 -0.12380171479E+04  0.17209499131E+04  0.92012368804E+02 0.  0.
         23    2    4    4    0    0  0.25734734723E+03  0.28244753236E+03 -0.35870977713E+03  0.53317558788E+03  0.97975699245E+02 0.  0.
          2    1    3    3  502    0 -0.24776789076E+03  0.88963589524E+02  0.90911855678E+02  0.27851106523E+03  0.00000000000E+00 0. -1.
         -1    1    3    3    0  502 -0.10158210939E+04  0.26733267337E+03  0.22605339569E+03  0.10744577194E+04  0.00000000000E+00 0.  1.
         13    1    5    5    0    0  0.22748489133E+03 -0.11901880349E+03 -0.31272965139E+03  0.40461671521E+03  0.00000000000E+00 0. -1.
        -13    1    5    5    0    0  0.77875674607E+03 -0.51972499177E+03 -0.92528749653E+03  0.13163331979E+04  0.00000000000E+00 0.  1.
          3    1    6    6  503    0  0.12086605865E+03  0.14337246612E+03 -0.11064252765E+03  0.21772927479E+03  0.00000000000E+00 0. -1.
         -3    1    6    6    0  503  0.13648128858E+03  0.13907506625E+03 -0.24806724947E+03  0.31544631309E+03  0.00000000000E+00 0.  1.
<mgrwt>
<rscale>  0 0.33724382E+04</rscale>
<asrwt>0</asrwt>
<pdfrwt beam="1">  1        2 0.37591199E+00 0.33724382E+04</pdfrwt>
<pdfrwt beam="2">  1       -1 0.17902559E+00 0.33724382E+04</pdfrwt>
<totfact> 0.74901728E-01</totfact>
</mgrwt>
</event>
<event>
12    7  0.1857704E-007  0.2144337E+04  0.7818608E-02  0.8541960E-01
         -1   -1    0    0    0  501 -0.00000000000E+00  0.00000000000E+00  0.35575957794E+03  0.35575957794E+03  0.00000000000E+00 0.  1.
          2   -1    0    0  501    0  0.00000000000E+00 -0.00000000000E+00 -0.32312408497E+04  0.32312408497E+04  0.00000000000E+00 0. -1.
         24    2    1    2    0    0  0.63293184336E+03 -0.30840723529E+03 -0.20769332474E+04  0.21945072566E+04  0.80576944253E+02 0.  0.
        254    2    1    2    0    0 -0.63293184336E+03  0.30840723529E+03 -0.79854802433E+03  0.13924931710E+04  0.89757481197E+03 0.  0.
         23    2    4    4    0    0 -0.66953464492E+03  0.43670440753E+03 -0.28510874889E+03  0.85391334100E+03  0.94305964552E+02 0.  0.
         23    2    4    4    0    0  0.36602801552E+02 -0.12829717224E+03 -0.51343927544E+03  0.53857983003E+03  0.92996850836E+02 0.  0.
          2    1    3    3  502    0  0.49759562488E+03 -0.22085588168E+03 -0.15117085131E+04  0.16067486906E+04  0.00000000000E+00 0. -1.
         -1    1    3    3    0  502  0.13533621848E+03 -0.87551353608E+02 -0.56522473436E+03  0.58775856598E+03  0.00000000000E+00 0.  1.
         13    1    5    5    0    0 -0.46207652652E+03  0.34798835986E+03 -0.22233796464E+03  0.61971347047E+03  0.00000000000E+00 0. -1.
        -13    1    5    5    0    0 -0.20745811840E+03  0.88716047664E+02 -0.62770784250E+02  0.23419987053E+03  0.00000000000E+00 0.  1.
          3    1    6    6  503    0 -0.12105724753E+02 -0.56806485840E+02 -0.95451140457E+02  0.11173381592E+03  0.00000000000E+00 0. -1.
         -3    1    6    6    0  503  0.48708526305E+02 -0.71490686399E+02 -0.41798813498E+03  0.42684601411E+03  0.00000000000E+00 0.  1.
<mgrwt>
<rscale>  0 0.21443366E+04</rscale>
<asrwt>0</asrwt>
<pdfrwt beam="1">  1        2 0.49711397E+00 0.21443366E+04</pdfrwt>
<pdfrwt beam="2">  1       -1 0.54732244E-01 0.21443366E+04</pdfrwt>
<totfact> 0.43708880E+00</totfact>
</mgrwt>
</event>
<event>
12    7  0.1857704E-007  0.1817028E+04  0.7818608E-02  0.8697296E-01
          2   -1    0    0  501    0  0.00000000000E+00  0.00000000000E+00  0.14367995621E+04  0.14367995621E+04  0.00000000000E+00 0. -1.
         -1   -1    0    0    0  501 -0.00000000000E+00 -0.00000000000E+00 -0.57446937832E+03  0.57446937832E+03  0.00000000000E+00 0.  1.
         24    2    1    2    0    0 -0.20019932455E+03 -0.52271989270E+03 -0.10979018775E+03  0.57578640626E+03  0.78487225309E+02 0.  0.
        254    2    1    2    0    0  0.20019932455E+03  0.52271989270E+03  0.97212037152E+03  0.14354825341E+04  0.89569874026E+03 0.  0.
         23    2    4    4    0    0 -0.16263769617E+03  0.60278725709E+03  0.40330734274E+03  0.74990222805E+03  0.99463769253E+02 0.  0.
         23    2    4    4    0    0  0.36283702072E+03 -0.80067364389E+02  0.56881302878E+03  0.68558030609E+03  0.91709366691E+02 0.  0.
          4    1    3    3  502    0 -0.23518471135E+02 -0.67539091134E+02  0.12102282445E+02  0.72533527117E+02  0.00000000000E+00 0. -1.
         -1    1    3    3    0  502 -0.17668085342E+03 -0.45518080157E+03 -0.12189247020E+03  0.50325287915E+03  0.00000000000E+00 0.  1.
         13    1    5    5    0    0 -0.50448110201E+02  0.13155358945E+03  0.46852085756E+02  0.14848055987E+03  0.00000000000E+00 0.  1.
        -13    1    5    5    0    0 -0.11218958597E+03  0.47123366764E+03  0.35645525699E+03  0.60142166817E+03  0.00000000000E+00 0. -1.
          4    1    6    6  503    0  0.34278226644E+03 -0.51256931021E+02  0.50073321414E+03  0.60898333877E+03  0.00000000000E+00 0. -1.
         -4    1    6    6    0  503  0.20054754286E+02 -0.28810433368E+02  0.68079814641E+02  0.76596967315E+02  0.00000000000E+00 0.  1.
<mgrwt>
<rscale>  0 0.18170276E+04</rscale>
<asrwt>0</asrwt>
<pdfrwt beam="1">  1        2 0.22104609E+00 0.18170276E+04</pdfrwt>
<pdfrwt beam="2">  1       -1 0.88379905E-01 0.18170276E+04</pdfrwt>
<totfact> 0.18623933E+01</totfact>
</mgrwt>
</event>
<event>
12    7  0.2136746E-007  0.1612745E+04  0.7818608E-02  0.8812757E-01
         -1   -1    0    0    0  501 -0.00000000000E+00  0.00000000000E+00  0.26303323032E+03  0.26303323032E+03  0.00000000000E+00 0.  1.
          2   -1    0    0  501    0  0.00000000000E+00 -0.00000000000E+00 -0.24720689495E+04  0.24720689495E+04  0.00000000000E+00 0. -1.
         24    2    1    2    0    0  0.37705500099E+03 -0.35258173433E+03 -0.44825210319E+03  0.68808066163E+03  0.77721912919E+02 0.  0.
        254    2    1    2    0    0 -0.37705500099E+03  0.35258173433E+03 -0.17607836160E+04  0.20470215181E+04  0.90744355218E+03 0.  0.
         23    2    4    4    0    0  0.37117696934E+02 -0.22977938400E+03 -0.17135105893E+03  0.30217965812E+03  0.88176366715E+02 0.  0.
         23    2    4    4    0    0 -0.41417269792E+03  0.58236111833E+03 -0.15894325570E+04  0.17448418600E+04  0.86566548624E+02 0.  0.
          4    1    3    3  502    0  0.78924824783E+01 -0.70794216290E+01  0.22939341805E+01  0.10847655244E+02  0.00000000000E+00 0. -1.
         -3    1    3    3    0  502  0.36916251851E+03 -0.34550231270E+03 -0.45054603737E+03  0.67723300639E+03  0.00000000000E+00 0.  1.
         13    1    5    5    0    0  0.52015561246E+02 -0.67864999782E+02 -0.47744009706E+02  0.97932462800E+02  0.00000000000E+00 0. -1.
        -13    1    5    5    0    0 -0.14897864312E+02 -0.16191438422E+03 -0.12360704922E+03  0.20424719532E+03  0.00000000000E+00 0.  1.
          3    1    6    6  503    0 -0.33961912998E+03  0.41402383223E+03 -0.11628363916E+04  0.12802130138E+04  0.00000000000E+00 0. -1.
         -3    1    6    6    0  503 -0.74553567938E+02  0.16833728610E+03 -0.42659616540E+03  0.46462884620E+03  0.00000000000E+00 0.  1.
<mgrwt>
<rscale>  0 0.16127446E+04</rscale>
<asrwt>0</asrwt>
<pdfrwt beam="1">  1        2 0.38031830E+00 0.16127446E+04</pdfrwt>
<pdfrwt beam="2">  1       -1 0.40466650E-01 0.16127446E+04</pdfrwt>
<totfact> 0.23549442E+01</totfact>
</mgrwt>
</event>
<event>
12    7  0.1857704E-007  0.1342902E+04  0.7818608E-02  0.8996219E-01
          2   -1    0    0  501    0  0.00000000000E+00  0.00000000000E+00  0.22482257246E+04  0.22482257246E+04  0.00000000000E+00 0. -1.
         -1   -1    0    0    0  501 -0.00000000000E+00 -0.00000000000E+00 -0.20053428718E+03  0.20053428718E+03  0.00000000000E+00 0.  1.
         24    2    1    2    0    0 -0.17076740978E+03 -0.32713388819E+02 -0.20584754320E+02  0.19293013435E+03  0.81034749214E+02 0.  0.
        254    2    1    2    0    0  0.17076740978E+03  0.32713388819E+02  0.20682761917E+04  0.22558298774E+04  0.88361210751E+03 0.  0.
         23    2    4    4    0    0 -0.19001594091E+03 -0.16254520347E+03  0.16193812864E+04  0.16411301202E+04  0.91571391852E+02 0.  0.
         23    2    4    4    0    0  0.36078335069E+03  0.19525859229E+03  0.44889490532E+03  0.61469975718E+03  0.89769769195E+02 0.  0.
          4    1    3    3  502    0 -0.89909431582E+02 -0.21799472798E+01  0.27471183228E+02  0.94037885799E+02  0.00000000000E+00 0. -1.
         -3    1    3    3    0  502 -0.80857978198E+02 -0.30533441539E+02 -0.48055937548E+02  0.98892248554E+02  0.00000000000E+00 0.  1.
         13    1    5    5    0    0 -0.50067203809E+02 -0.48772733733E+01  0.20271477182E+03  0.20886309249E+03  0.00000000000E+00 0.  1.
        -13    1    5    5    0    0 -0.13994873710E+03 -0.15766793009E+03  0.14166665146E+04  0.14322670277E+04  0.00000000000E+00 0. -1.
          3    1    6    6  503    0  0.19353204942E+03  0.15305764375E+03  0.28158452145E+03  0.37439436319E+03  0.00000000000E+00 0. -1.
         -3    1    6    6    0  503  0.16725130127E+03  0.42200948533E+02  0.16731038386E+03  0.24030539400E+03  0.00000000000E+00 0.  1.
<mgrwt>
<rscale>  0 0.13429018E+04</rscale>
<asrwt>0</asrwt>
<pdfrwt beam="1">  1        2 0.34588086E+00 0.13429018E+04</pdfrwt>
<pdfrwt beam="2">  1       -1 0.30851430E-01 0.13429018E+04</pdfrwt>
<totfact> 0.52555049E+01</totfact>
</mgrwt>
</event>
<event>
12    7  0.1857704E-007  0.2195597E+04  0.7818608E-02  0.8520263E-01
          2   -1    0    0  501    0  0.00000000000E+00  0.00000000000E+00  0.14109471648E+04  0.14109471648E+04  0.00000000000E+00 0. -1.
         -1   -1    0    0    0  501 -0.00000000000E+00 -0.00000000000E+00 -0.85415102490E+03  0.85415102490E+03  0.00000000000E+00 0.  1.
         24    2    1    2    0    0 -0.14373175212E+03  0.37326898956E+03 -0.61416664240E+03  0.73726096236E+03  0.79777859342E+02 0.  0.
        254    2    1    2    0    0  0.14373175212E+03 -0.37326898956E+03  0.11709627823E+04  0.15278372274E+04  0.89618312894E+03 0.  0.
         23    2    4    4    0    0 -0.28106092163E+03 -0.38760691512E+03  0.35344509760E+03  0.60192650400E+03  0.90320080214E+02 0.  0.
         23    2    4    4    0    0  0.42479267375E+03  0.14337925557E+02  0.81751768472E+03  0.92591072335E+03  0.91220123973E+02 0.  0.
          2    1    3    3  502    0  0.68647455622E+01  0.19016532212E+01 -0.10817826007E+02  0.12952466025E+02  0.00000000000E+00 0. -1.
         -1    1    3    3    0  502 -0.15059649768E+03  0.37136733634E+03 -0.60334881640E+03  0.72430849633E+03  0.00000000000E+00 0.  1.
         13    1    5    5    0    0 -0.43409878442E+02 -0.16593617751E+02  0.38278743639E+02  0.60208204682E+02  0.00000000000E+00 0.  1.
        -13    1    5    5    0    0 -0.23765104319E+03 -0.37101329736E+03  0.31516635396E+03  0.54171829932E+03  0.00000000000E+00 0. -1.
          1    1    6    6  503    0  0.36200572817E+03  0.35261406181E+02  0.73551923566E+03  0.82053644649E+03  0.00000000000E+00 0. -1.
         -1    1    6    6    0  503  0.62786945584E+02 -0.20923480624E+02  0.81998449053E+02  0.10537427686E+03  0.00000000000E+00 0.  1.
<mgrwt>
<rscale>  0 0.21955974E+04</rscale>
<asrwt>0</asrwt>
<pdfrwt beam="1">  1        2 0.21706879E+00 0.21955974E+04</pdfrwt>
<pdfrwt beam="2">  1       -1 0.13140785E+00 0.21955974E+04</pdfrwt>
<totfact> 0.73338683E+00</totfact>
</mgrwt>
</event>
<event>
12    7  0.1857704E-007  0.1876386E+04  0.7818608E-02  0.8666701E-01
         -1   -1    0    0    0  501 -0.00000000000E+00  0.00000000000E+00  0.43111917918E+03  0.43111917918E+03  0.00000000000E+00 0.  1.
          2   -1    0    0  501    0  0.00000000000E+00 -0.00000000000E+00 -0.20416765136E+04  0.20416765136E+04  0.00000000000E+00 0. -1.
         24    2    1    2    0    0  0.26035213639E+03 -0.62879549648E+03 -0.30346819031E+03  0.74950682230E+03  0.80625819803E+02 0.  0.
        254    2    1    2    0    0 -0.26035213639E+03  0.62879549648E+03 -0.13070891441E+04  0.17232888705E+04  0.89335070894E+03 0.  0.
         23    2    4    4    0    0  0.12296038459E+03 -0.16880356995E+03 -0.33486568102E+03  0.40546853939E+03  0.93036609474E+02 0.  0.
         23    2    4    4    0    0 -0.38331252098E+03  0.79759906643E+03 -0.97222346309E+03  0.13178203311E+04  0.91319238707E+02 0.  0.
          4    1    3    3  502    0  0.25312943674E+02 -0.88444834796E+02 -0.70360279652E+02  0.11581797301E+03  0.00000000000E+00 0. -1.
         -3    1    3    3    0  502  0.23503919271E+03 -0.54035066169E+03 -0.23310791066E+03  0.63368884929E+03  0.00000000000E+00 0.  1.
         13    1    5    5    0    0  0.10536996709E+03 -0.99833191864E+02 -0.15663714074E+03  0.21355254628E+03  0.00000000000E+00 0.  1.
        -13    1    5    5    0    0  0.17590417495E+02 -0.68970378086E+02 -0.17822854028E+03  0.19191599311E+03  0.00000000000E+00 0. -1.
          1    1    6    6  503    0 -0.24753329325E+03  0.59013019354E+03 -0.66299821717E+03  0.92146243145E+03  0.00000000000E+00 0. -1.
         -1    1    6    6    0  503 -0.13577922773E+03  0.20746887289E+03 -0.30922524593E+03  0.39635789965E+03  0.00000000000E+00 0.  1.
<mgrwt>
<rscale>  0 0.18763858E+04</rscale>
<asrwt>0</asrwt>
<pdfrwt beam="1">  1        2 0.31410408E+00 0.18763858E+04</pdfrwt>
<pdfrwt beam="2">  1       -1 0.66326027E-01 0.18763858E+04</pdfrwt>
<totfact> 0.15588448E+01</totfact>
</mgrwt>
</event>
<event>
12    7  0.1857704E-007  0.1751060E+04  0.7818608E-02  0.8732767E-01
         -1   -1    0    0    0  501 -0.00000000000E+00  0.00000000000E+00  0.47241004003E+03  0.47241004003E+03  0.00000000000E+00 0.  1.
          2   -1    0    0  501    0  0.00000000000E+00 -0.00000000000E+00 -0.16226433577E+04  0.16226433577E+04  0.00000000000E+00 0. -1.
         24    2    1    2    0    0 -0.22021907824E+03  0.86308461088E+02  0.28056598797E+03  0.37497430497E+03  0.77089966295E+02 0.  0.
        254    2    1    2    0    0  0.22021907824E+03 -0.86308461088E+02 -0.14307993057E+04  0.17200790928E+04  0.92495396614E+03 0.  0.
         23    2    4    4    0    0  0.40732143024E+03 -0.26552316212E+03 -0.35236270330E+03  0.60726154029E+03  0.90519646956E+02 0.  0.
         23    2    4    4    0    0 -0.18710235200E+03  0.17921470103E+03 -0.10784366024E+04  0.11128175525E+04  0.90621193075E+02 0.  0.
          2    1    3    3  502    0 -0.50217459329E+02  0.46628146722E+01  0.22208086633E+02  0.55106571060E+02  0.00000000000E+00 0. -1.
         -1    1    3    3    0  502 -0.17000161891E+03  0.81645646415E+02  0.25835790134E+03  0.31986773391E+03  0.00000000000E+00 0.  1.
         13    1    5    5    0    0  0.71768632430E+02 -0.98171118864E+01 -0.44767808229E+02  0.85154382977E+02  0.00000000000E+00 0.  1.
        -13    1    5    5    0    0  0.33555279781E+03 -0.25570605024E+03 -0.30759489507E+03  0.52210715732E+03  0.00000000000E+00 0. -1.
          2    1    6    6  503    0 -0.12956332098E+03  0.17331528707E+03 -0.83121302638E+03  0.85891788787E+03  0.00000000000E+00 0. -1.
         -2    1    6    6    0  503 -0.57539031022E+02  0.58994139636E+01 -0.24722357600E+03  0.25389966465E+03  0.00000000000E+00 0.  1.
<mgrwt>
<rscale>  0 0.17510603E+04</rscale>
<asrwt>0</asrwt>
<pdfrwt beam="1">  1        2 0.24963744E+00 0.17510603E+04</pdfrwt>
<pdfrwt beam="2">  1       -1 0.72678468E-01 0.17510603E+04</pdfrwt>
<totfact> 0.22325836E+01</totfact>
</mgrwt>
</event>
<event>
12    7  0.1857704E-007  0.1718907E+04  0.7818608E-02  0.8750654E-01
         -1   -1    0    0    0  501 -0.00000000000E+00  0.00000000000E+00  0.41370889961E+03  0.41370889961E+03  0.00000000000E+00 0.  1.
          2   -1    0    0  501    0  0.00000000000E+00 -0.00000000000E+00 -0.17854592549E+04  0.17854592549E+04  0.00000000000E+00 0. -1.
         24    2    1    2    0    0 -0.17221179750E+03 -0.16746292978E+03 -0.12280508630E+04  0.12537689469E+04  0.78274607058E+02 0.  0.
        254    2    1    2    0    0  0.17221179750E+03  0.16746292978E+03 -0.14369949236E+03  0.94539920765E+03  0.90301128547E+03 0.  0.
         23    2    4    4    0    0 -0.21057703984E+03  0.40732291588E+03 -0.12642034478E+03  0.48431125935E+03  0.91217568736E+02 0.  0.
         23    2    4    4    0    0  0.38278883734E+03 -0.23985998611E+03 -0.17279147578E+02  0.46108794831E+03  0.90793282834E+02 0.  0.
          2    1    3    3  502    0 -0.69444930210E+02 -0.96497773339E+02 -0.43539656206E+03  0.45133644307E+03  0.00000000000E+00 0. -1.
         -1    1    3    3    0  502 -0.10276686729E+03 -0.70965156438E+02 -0.79265430092E+03  0.80243250383E+03  0.00000000000E+00 0.  1.
         13    1    5    5    0    0 -0.17961124464E+03  0.25463224232E+03 -0.89360917345E+02  0.32416531520E+03  0.00000000000E+00 0.  1.
        -13    1    5    5    0    0 -0.30965795203E+02  0.15269067357E+03 -0.37059427433E+02  0.16014594415E+03  0.00000000000E+00 0. -1.
          1    1    6    6  503    0  0.13534360578E+03 -0.10622450831E+03  0.33589660365E+02  0.17529918161E+03  0.00000000000E+00 0. -1.
         -1    1    6    6    0  503  0.24744523156E+03 -0.13363547780E+03 -0.50868807944E+02  0.28578876669E+03  0.00000000000E+00 0.  1.
<mgrwt>
<rscale>  0 0.17189071E+04</rscale>
<asrwt>0</asrwt>
<pdfrwt beam="1">  1        2 0.27468604E+00 0.17189071E+04</pdfrwt>
<pdfrwt beam="2">  1       -1 0.63647523E-01 0.17189071E+04</pdfrwt>
<totfact> 0.23817706E+01</totfact>
</mgrwt>
</event>
<event>
12    7  0.1857704E-007  0.1925155E+04  0.7818608E-02  0.8642435E-01
          2   -1    0    0  501    0  0.00000000000E+00  0.00000000000E+00  0.24489039718E+04  0.24489039718E+04  0.00000000000E+00 0. -1.
         -1   -1    0    0    0  501 -0.00000000000E+00 -0.00000000000E+00 -0.37835524286E+03  0.37835524286E+03  0.00000000000E+00 0.  1.
         24    2    1    2    0    0 -0.65688021817E+03 -0.49385057589E+02  0.13444628027E+04  0.14992763077E+04  0.79490338501E+02 0.  0.
        254    2    1    2    0    0  0.65688021817E+03  0.49385057589E+02  0.72608592615E+03  0.13279829069E+04  0.89577191515E+03 0.  0.
         23    2    4    4    0    0  0.50821306036E+03 -0.70138685051E+02  0.90841983867E+03  0.10474411723E+04  0.93308393697E+02 0.  0.
         23    2    4    4    0    0  0.14866715781E+03  0.11952374264E+03 -0.18233391252E+03  0.28054173459E+03  0.95237389318E+02 0.  0.
          4    1    3    3  502    0 -0.63447597327E+03 -0.41074721703E+02  0.12575892491E+04  0.14091762178E+04  0.00000000000E+00 0. -1.
         -3    1    3    3    0  502 -0.22404244900E+02 -0.83103358859E+01  0.86873553674E+02  0.90100089901E+02  0.00000000000E+00 0.  1.
         13    1    5    5    0    0  0.13343088982E+03 -0.35258195311E+02  0.32560636450E+03  0.35364734878E+03  0.00000000000E+00 0. -1.
        -13    1    5    5    0    0  0.37478217054E+03 -0.34880489739E+02  0.58281347417E+03  0.69379382355E+03  0.00000000000E+00 0.  1.
          1    1    6    6  503    0  0.56402167462E+02  0.33334545149E+02 -0.90498823501E+01  0.66138466608E+02  0.00000000000E+00 0. -1.
         -1    1    6    6    0  503  0.92264990348E+02  0.86189197491E+02 -0.17328403017E+03  0.21440326798E+03  0.00000000000E+00 0.  1.
<mgrwt>
<rscale>  0 0.19251552E+04</rscale>
<asrwt>0</asrwt>
<pdfrwt beam="1">  1        2 0.37675445E+00 0.19251552E+04</pdfrwt>
<pdfrwt beam="2">  1       -1 0.58208500E-01 0.19251552E+04</pdfrwt>
<totfact> 0.11864249E+01</totfact>
</mgrwt>
</event>
<event>
12    7  0.1857704E-007  0.1067221E+04  0.7818608E-02  0.9237743E-01
          2   -1    0    0  501    0  0.00000000000E+00  0.00000000000E+00  0.10711015136E+04  0.10711015136E+04  0.00000000000E+00 0. -1.
         -1   -1    0    0    0  501 -0.00000000000E+00 -0.00000000000E+00 -0.26583841593E+03  0.26583841593E+03  0.00000000000E+00 0.  1.
         24    2    1    2    0    0 -0.44375688773E+02 -0.73221556170E+02 -0.30312299451E+02  0.12030961402E+03  0.78898477083E+02 0.  0.
        254    2    1    2    0    0  0.44375688773E+02  0.73221556170E+02  0.83557539712E+03  0.12166303155E+04  0.88015480586E+03 0.  0.
         23    2    4    4    0    0 -0.35038002873E+03 -0.15955703576E+03  0.51735467110E+03  0.65134197400E+03  0.91465289578E+02 0.  0.
         23    2    4    4    0    0  0.39475571751E+03  0.23277859193E+03  0.31822072603E+03  0.56528834150E+03  0.90931453276E+02 0.  0.
          4    1    3    3  502    0 -0.76043942475E+01  0.16323864846E+02  0.23175120873E+01  0.18156713294E+02  0.00000000000E+00 0. -1.
         -3    1    3    3    0  502 -0.36771294526E+02 -0.89545421016E+02 -0.32629811539E+02  0.10215290073E+03  0.00000000000E+00 0.  1.
         13    1    5    5    0    0 -0.42921899551E+01 -0.13366461713E+02  0.48724987744E+02  0.50707096386E+02  0.00000000000E+00 0. -1.
        -13    1    5    5    0    0 -0.34608783878E+03 -0.14619057405E+03  0.46862968335E+03  0.60063487762E+03  0.00000000000E+00 0.  1.
          4    1    6    6  503    0  0.21071138690E+03  0.74862082902E+02  0.13342141439E+03  0.26039372850E+03  0.00000000000E+00 0. -1.
         -4    1    6    6    0  503  0.18404433061E+03  0.15791650903E+03  0.18479931164E+03  0.30489461300E+03  0.00000000000E+00 0.  1.
<mgrwt>
<rscale>  0 0.10672206E+04</rscale>
<asrwt>0</asrwt>
<pdfrwt beam="1">  1        2 0.16478485E+00 0.10672206E+04</pdfrwt>
<pdfrwt beam="2">  1       -1 0.40898218E-01 0.10672206E+04</pdfrwt>
<totfact> 0.15045985E+02</totfact>
</mgrwt>
</event>
<event>
12    7  0.2928507E-007  0.2373903E+04  0.7818608E-02  0.8449339E-01
         -1   -1    0    0    0  501 -0.00000000000E+00  0.00000000000E+00  0.13108007562E+04  0.13108007562E+04  0.00000000000E+00 0.  1.
          2   -1    0    0  501    0  0.00000000000E+00 -0.00000000000E+00 -0.10748039607E+04  0.10748039607E+04  0.00000000000E+00 0. -1.
         24    2    1    2    0    0  0.56237149337E+03  0.80773698281E+01  0.95351593529E+03  0.11099353340E+04  0.80230083964E+02 0.  0.
        254    2    1    2    0    0 -0.56237149337E+03 -0.80773698281E+01 -0.71751913979E+03  0.12756693829E+04  0.89228454996E+03 0.  0.
         23    2    4    4    0    0 -0.11340563737E+03  0.15581429869E+03  0.16383360829E+03  0.26916619964E+03  0.92032915635E+02 0.  0.
         23    2    4    4    0    0 -0.44896585601E+03 -0.16389166852E+03 -0.88135274808E+03  0.10065031833E+04  0.88516509910E+02 0.  0.
          4    1    3    3  502    0 -0.43527735715E+00  0.11719433919E+01 -0.11506890799E+01  0.16991183155E+01  0.00000000000E+00 0. -1.
         -3    1    3    3    0  502  0.56280677073E+03  0.69054264362E+01  0.95466662437E+03  0.11082362157E+04  0.00000000000E+00 0.  1.
         13    1    5    5    0    0 -0.18538253521E+02  0.99066877266E+02  0.58828143793E+02  0.11669902963E+03  0.00000000000E+00 0. -1.
        -13    1    5    5    0    0 -0.94867383845E+02  0.56747421426E+02  0.10500546450E+03  0.15246717001E+03  0.00000000000E+00 0.  1.
          4    1    6    6  503    0 -0.18843436644E+03 -0.77278028368E+02 -0.28830175477E+03  0.35298343577E+03  0.00000000000E+00 0. -1.
         -4    1    6    6    0  503 -0.26053148957E+03 -0.86613640152E+02 -0.59305099331E+03  0.65351974751E+03  0.00000000000E+00 0.  1.
<mgrwt>
<rscale>  0 0.23739030E+04</rscale>
<asrwt>0</asrwt>
<pdfrwt beam="1">  1        2 0.16535445E+00 0.23739030E+04</pdfrwt>
<pdfrwt beam="2">  1       -1 0.20166166E+00 0.23739030E+04</pdfrwt>
<totfact> 0.34013206E+00</totfact>
</mgrwt>
</event>
<event>
12    7  0.1857704E-007  0.1865817E+04  0.7818608E-02  0.8672061E-01
          2   -1    0    0  501    0  0.00000000000E+00  0.00000000000E+00  0.18974168965E+04  0.18974168965E+04  0.00000000000E+00 0. -1.
         -1   -1    0    0    0  501 -0.00000000000E+00 -0.00000000000E+00 -0.45868593096E+03  0.45868593096E+03  0.00000000000E+00 0.  1.
         24    2    1    2    0    0 -0.46208525612E+03  0.53629403379E+03  0.44182970598E+03  0.83879139134E+03  0.84990790699E+02 0.  0.
        254    2    1    2    0    0  0.46208525612E+03 -0.53629403379E+03  0.99690125957E+03  0.15173114361E+04  0.89849195783E+03 0.  0.
         23    2    4    4    0    0  0.61365530035E+03 -0.95912713478E+02  0.36253070201E+03  0.72501324313E+03  0.91889153625E+02 0.  0.
         23    2    4    4    0    0 -0.15157004423E+03 -0.44038132031E+03  0.63437055756E+03  0.79229819301E+03  0.91658260711E+02 0.  0.
          2    1    3    3  502    0 -0.36274012333E+02  0.84223378197E+02  0.49445115786E+02  0.10418349620E+03  0.00000000000E+00 0. -1.
         -1    1    3    3    0  502 -0.42581124379E+03  0.45207065559E+03  0.39238459019E+03  0.73460789514E+03  0.00000000000E+00 0.  1.
         13    1    5    5    0    0  0.44726948313E+03 -0.53832195881E+02  0.21720761370E+03  0.50012702717E+03  0.00000000000E+00 0.  1.
        -13    1    5    5    0    0  0.16638581722E+03 -0.42080517597E+02  0.14532308831E+03  0.22488621596E+03  0.00000000000E+00 0. -1.
          4    1    6    6  503    0 -0.13847800544E+03 -0.31222966672E+03  0.41055756675E+03  0.53406089390E+03  0.00000000000E+00 0. -1.
         -4    1    6    6    0  503 -0.13092038788E+02 -0.12815165359E+03  0.22381299081E+03  0.25823729911E+03  0.00000000000E+00 0.  1.
<mgrwt>
<rscale>  0 0.18658172E+04</rscale>
<asrwt>0</asrwt>
<pdfrwt beam="1">  1        2 0.29191029E+00 0.18658172E+04</pdfrwt>
<pdfrwt beam="2">  1       -1 0.70567068E-01 0.18658172E+04</pdfrwt>
<totfact> 0.16533291E+01</totfact>
</mgrwt>
</event>
<event>
12    7  0.1857704E-007  0.1746848E+04  0.7818608E-02  0.8735087E-01
          2   -1    0    0  501    0  0.00000000000E+00  0.00000000000E+00  0.30125197245E+04  0.30125197245E+04  0.00000000000E+00 0. -1.
         -1   -1    0    0    0  501 -0.00000000000E+00 -0.00000000000E+00 -0.25323289347E+03  0.25323289347E+03  0.00000000000E+00 0.  1.
         24    2    1    2    0    0 -0.30841489385E+03 -0.12861710558E+03  0.27224147025E+01  0.34361027400E+03  0.79990638607E+02 0.  0.
        254    2    1    2    0    0  0.30841489385E+03  0.12861710558E+03  0.27565644163E+04  0.29221423440E+04  0.91027819398E+03 0.  0.
         23    2    4    4    0    0  0.13748208389E+03 -0.60082394954E+02  0.26051654534E+04  0.26110586333E+04  0.90713448819E+02 0.  0.
         23    2    4    4    0    0  0.17093280996E+03  0.18869950053E+03  0.15139896297E+03  0.31108371062E+03  0.95004747289E+02 0.  0.
          2    1    3    3  502    0 -0.22652023322E+02 -0.25197100030E+02  0.19774808751E+02  0.39230741411E+02  0.00000000000E+00 0. -1.
         -1    1    3    3    0  502 -0.28576287053E+03 -0.10342000555E+03 -0.17052394048E+02  0.30437953259E+03  0.00000000000E+00 0.  1.
         13    1    5    5    0    0  0.13515434216E+03 -0.21713010904E+02  0.20296779946E+04  0.20342887977E+04  0.00000000000E+00 0.  1.
        -13    1    5    5    0    0  0.23277417314E+01 -0.38369384050E+02  0.57548745880E+03  0.57676983559E+03  0.00000000000E+00 0. -1.
          1    1    6    6  503    0  0.48548088201E+02  0.10844659098E+03  0.10208154715E+03  0.15664680728E+03  0.00000000000E+00 0. -1.
         -1    1    6    6    0  503  0.12238472176E+03  0.80252909554E+02  0.49317415813E+02  0.15443690334E+03  0.00000000000E+00 0.  1.
<mgrwt>
<rscale>  0 0.17468475E+04</rscale>
<asrwt>0</asrwt>
<pdfrwt beam="1">  1        2 0.46346455E+00 0.17468475E+04</pdfrwt>
<pdfrwt beam="2">  1       -1 0.38958909E-01 0.17468475E+04</pdfrwt>
<totfact> 0.11850291E+01</totfact>
</mgrwt>
</event>
<event>
12    7  0.1857704E-007  0.3597954E+04  0.7818608E-02  0.8090961E-01
         -1   -1    0    0    0  501 -0.00000000000E+00  0.00000000000E+00  0.28989647733E+04  0.28989647733E+04  0.00000000000E+00 0.  1.
          2   -1    0    0  501    0  0.00000000000E+00 -0.00000000000E+00 -0.11163700468E+04  0.11163700468E+04  0.00000000000E+00 0. -1.
         24    2    1    2    0    0  0.94886467234E+03 -0.13858023494E+04  0.10349458194E+04  0.19742366556E+04  0.75532808391E+02 0.  0.
        254    2    1    2    0    0 -0.94886467234E+03  0.13858023494E+04  0.74764890707E+03  0.20410981645E+04  0.88674151289E+03 0.  0.
         23    2    4    4    0    0 -0.68836775171E+02  0.26858538132E+03 -0.17742570390E+03  0.34213503476E+03  0.93273216591E+02 0.  0.
         23    2    4    4    0    0 -0.88002789717E+03  0.11172169681E+04  0.92507461098E+03  0.16989631297E+04  0.89943463427E+02 0.  0.
          2    1    3    3  502    0 -0.31817884417E+00 -0.37606244890E+00  0.31909359095E+01  0.32287354678E+01  0.00000000000E+00 0. -1.
         -1    1    3    3    0  502  0.94918285119E+03 -0.13854262870E+04  0.10317548835E+04  0.19710079201E+04  0.00000000000E+00 0.  1.
         13    1    5    5    0    0 -0.44212181956E+02  0.13582537999E+03 -0.14443822209E+03  0.20313948628E+03  0.00000000000E+00 0.  1.
        -13    1    5    5    0    0 -0.24624593215E+02  0.13276000132E+03 -0.32987481810E+02  0.13899554849E+03  0.00000000000E+00 0. -1.
          1    1    6    6  503    0 -0.19872782535E+03  0.26131197482E+03  0.25922897633E+03  0.41830175582E+03  0.00000000000E+00 0. -1.
         -1    1    6    6    0  503 -0.68130007182E+03  0.85590499327E+03  0.66584563465E+03  0.12806613739E+04  0.00000000000E+00 0.  1.
<mgrwt>
<rscale>  0 0.35979536E+04</rscale>
<asrwt>0</asrwt>
<pdfrwt beam="1">  1        2 0.17174924E+00 0.35979536E+04</pdfrwt>
<pdfrwt beam="2">  1       -1 0.44599458E+00 0.35979536E+04</pdfrwt>
<totfact> 0.68124296E-02</totfact>
</mgrwt>
</event>
<event>
12    7  0.1857704E-007  0.1770196E+04  0.7818608E-02  0.8722311E-01
         -1   -1    0    0    0  501 -0.00000000000E+00  0.00000000000E+00  0.49346814269E+03  0.49346814269E+03  0.00000000000E+00 0.  1.
          2   -1    0    0  501    0  0.00000000000E+00 -0.00000000000E+00 -0.15875357979E+04  0.15875357979E+04  0.00000000000E+00 0. -1.
         24    2    1    2    0    0  0.25825240080E+02 -0.64850889121E+03 -0.48603071332E+03  0.81501974636E+03  0.82465796937E+02 0.  0.
        254    2    1    2    0    0 -0.25825240080E+02  0.64850889121E+03 -0.60803694189E+03  0.12659841942E+04  0.90098631085E+03 0.  0.
         23    2    4    4    0    0 -0.37157516920E+03  0.17034509056E+03 -0.51396321106E+03  0.66162783206E+03  0.80670004255E+02 0.  0.
         23    2    4    4    0    0  0.34574992912E+03  0.47816380065E+03 -0.94073730838E+02  0.60435636218E+03  0.90626221017E+02 0.  0.
          4    1    3    3  502    0  0.12095316537E+02 -0.14872313019E+03 -0.71064167586E+02  0.16527244794E+03  0.00000000000E+00 0. -1.
         -3    1    3    3    0  502  0.13729923543E+02 -0.49978576103E+03 -0.41496654574E+03  0.64974729842E+03  0.00000000000E+00 0.  1.
         13    1    5    5    0    0 -0.34251276327E+03  0.12881190444E+03 -0.45352573699E+03  0.58274616587E+03  0.00000000000E+00 0.  1.
        -13    1    5    5    0    0 -0.29062405930E+02  0.41533186127E+02 -0.60437474068E+02  0.78881666184E+02  0.00000000000E+00 0. -1.
          2    1    6    6  503    0  0.18002632391E+03  0.17918699045E+03 -0.21574987852E+02  0.25491750616E+03  0.00000000000E+00 0. -1.
         -2    1    6    6    0  503  0.16572360521E+03  0.29897681020E+03 -0.72498742986E+02  0.34943885602E+03  0.00000000000E+00 0.  1.
<mgrwt>
<rscale>  0 0.17701959E+04</rscale>
<asrwt>0</asrwt>
<pdfrwt beam="1">  1        2 0.24423627E+00 0.17701959E+04</pdfrwt>
<pdfrwt beam="2">  1       -1 0.75918177E-01 0.17701959E+04</pdfrwt>
<totfact> 0.21293461E+01</totfact>
</mgrwt>
</event>
<event>
12    7  0.1857704E-007  0.1779309E+04  0.7818608E-02  0.8717381E-01
          2   -1    0    0  501    0  0.00000000000E+00  0.00000000000E+00  0.17746484640E+04  0.17746484640E+04  0.00000000000E+00 0. -1.
         -1   -1    0    0    0  501 -0.00000000000E+00 -0.00000000000E+00 -0.44599555340E+03  0.44599555340E+03  0.00000000000E+00 0.  1.
         24    2    1    2    0    0 -0.14919904796E+03  0.11854799035E+03  0.12816373070E+04  0.12982391467E+04  0.80726162832E+02 0.  0.
        254    2    1    2    0    0  0.14919904796E+03 -0.11854799035E+03  0.47015603576E+02  0.92240487069E+03  0.90128036512E+03 0.  0.
         23    2    4    4    0    0  0.31907274944E+03 -0.90926839993E+02 -0.34336683916E+03  0.48621291950E+03  0.91799276627E+02 0.  0.
         23    2    4    4    0    0 -0.16987370148E+03 -0.27621150353E+02  0.39038244274E+03  0.43619195118E+03  0.90801785656E+02 0.  0.
          2    1    3    3  502    0 -0.13574846832E+03  0.69418848016E+02  0.84548697378E+03  0.85912446475E+03  0.00000000000E+00 0. -1.
         -1    1    3    3    0  502 -0.13450579648E+02  0.49129142331E+02  0.43615033320E+03  0.43911468191E+03  0.00000000000E+00 0.  1.
         13    1    5    5    0    0  0.20119632146E+03 -0.94652164936E+02 -0.25818381378E+03  0.34073138070E+03  0.00000000000E+00 0. -1.
        -13    1    5    5    0    0  0.11787642798E+03  0.37253249427E+01 -0.85183025383E+02  0.14548153880E+03  0.00000000000E+00 0.  1.
          4    1    6    6  503    0 -0.10290814157E+03 -0.56861286811E+02  0.28146440083E+03  0.30503360548E+03  0.00000000000E+00 0. -1.
         -4    1    6    6    0  503 -0.66965559907E+02  0.29240136458E+02  0.10891804191E+03  0.13115834570E+03  0.00000000000E+00 0.  1.
<mgrwt>
<rscale>  0 0.17793092E+04</rscale>
<asrwt>0</asrwt>
<pdfrwt beam="1">  1        2 0.27302284E+00 0.17793092E+04</pdfrwt>
<pdfrwt beam="2">  1       -1 0.68614701E-01 0.17793092E+04</pdfrwt>
<totfact> 0.20635809E+01</totfact>
</mgrwt>
</event>
<event>
12    7  0.1857704E-007  0.2875014E+04  0.7818608E-02  0.8280351E-01
          2   -1    0    0  501    0  0.00000000000E+00  0.00000000000E+00  0.21999562137E+04  0.21999562137E+04  0.00000000000E+00 0. -1.
         -1   -1    0    0    0  501 -0.00000000000E+00 -0.00000000000E+00 -0.93930318036E+03  0.93930318036E+03  0.00000000000E+00 0.  1.
         24    2    1    2    0    0  0.68855509685E+02 -0.85600020497E+03 -0.49030625148E+03  0.99156508563E+03  0.72963461244E+02 0.  0.
        254    2    1    2    0    0 -0.68855509685E+02  0.85600020497E+03  0.17509592848E+04  0.21476943084E+04  0.89958601215E+03 0.  0.
         23    2    4    4    0    0 -0.31503311791E+03  0.89905076549E+03  0.11836776279E+04  0.15219887964E+04  0.88425251151E+02 0.  0.
         23    2    4    4    0    0  0.24617760823E+03 -0.43050560514E+02  0.56728165689E+03  0.62570551209E+03  0.85100787669E+02 0.  0.
          2    1    3    3  502    0  0.19741488980E+02 -0.56967804413E+03 -0.29844314053E+03  0.64342140817E+03  0.00000000000E+00 0. -1.
         -1    1    3    3    0  502  0.49114020704E+02 -0.28632216084E+03 -0.19186311095E+03  0.34814367746E+03  0.00000000000E+00 0.  1.
         13    1    5    5    0    0  0.30904915332E+01  0.77556962934E+01  0.22562462611E+02  0.24057570159E+02  0.00000000000E+00 0.  1.
        -13    1    5    5    0    0 -0.31812360944E+03  0.89129506919E+03  0.11611151653E+04  0.14979312262E+04  0.00000000000E+00 0. -1.
          2    1    6    6  503    0  0.40356864327E+02 -0.29972493774E+02  0.18057491734E+03  0.18744153130E+03  0.00000000000E+00 0. -1.
         -2    1    6    6    0  503  0.20582074390E+03 -0.13078066740E+02  0.38670673954E+03  0.43826398079E+03  0.00000000000E+00 0.  1.
<mgrwt>
<rscale>  0 0.28750136E+04</rscale>
<asrwt>0</asrwt>
<pdfrwt beam="1">  1        2 0.33845480E+00 0.28750136E+04</pdfrwt>
<pdfrwt beam="2">  1       -1 0.14450818E+00 0.28750136E+04</pdfrwt>
<totfact> 0.19579418E+00</totfact>
</mgrwt>
</event>
<event>
12    7  0.1857704E-007  0.3340152E+04  0.7818608E-02  0.8152753E-01
          2   -1    0    0  501    0  0.00000000000E+00  0.00000000000E+00  0.34093132323E+04  0.34093132323E+04  0.00000000000E+00 0. -1.
         -1   -1    0    0    0  501 -0.00000000000E+00 -0.00000000000E+00 -0.81809865540E+03  0.81809865540E+03  0.00000000000E+00 0.  1.
         24    2    1    2    0    0 -0.46662235328E+03 -0.69217736839E+03 -0.44485331977E+03  0.94899197415E+03  0.76454960648E+02 0.  0.
        254    2    1    2    0    0  0.46662235328E+03  0.69217736839E+03  0.30360678967E+04  0.32784199136E+04  0.91295286101E+03 0.  0.
         23    2    4    4    0    0  0.66388476464E+03  0.62783459987E+03  0.28185549114E+04  0.29643775979E+04  0.91452112906E+02 0.  0.
         23    2    4    4    0    0 -0.19726241136E+03  0.64342768520E+02  0.21751298535E+03  0.31404231570E+03  0.90874784498E+02 0.  0.
          2    1    3    3  502    0 -0.24434423098E+03 -0.30912888622E+03 -0.23646682642E+03  0.45954470022E+03  0.00000000000E+00 0. -1.
         -1    1    3    3    0  502 -0.22227812231E+03 -0.38304848217E+03 -0.20838649335E+03  0.48944727393E+03  0.00000000000E+00 0.  1.
         13    1    5    5    0    0  0.29030195026E+03  0.27795603574E+03  0.10950894179E+04  0.11665143005E+04  0.00000000000E+00 0.  1.
        -13    1    5    5    0    0  0.37358281438E+03  0.34987856413E+03  0.17234654935E+04  0.17978632974E+04  0.00000000000E+00 0. -1.
          3    1    6    6  503    0 -0.35981762083E+02  0.46960086430E+02  0.30772170259E+02  0.66684806235E+02  0.00000000000E+00 0. -1.
         -3    1    6    6    0  503 -0.16128064928E+03  0.17382682090E+02  0.18674081509E+03  0.24735750947E+03  0.00000000000E+00 0.  1.
<mgrwt>
<rscale>  0 0.33401524E+04</rscale>
<asrwt>0</asrwt>
<pdfrwt beam="1">  1        2 0.52450972E+00 0.33401524E+04</pdfrwt>
<pdfrwt beam="2">  1       -1 0.12586133E+00 0.33401524E+04</pdfrwt>
<totfact> 0.48788175E-01</totfact>
</mgrwt>
</event>
<event>
12    7  0.1857704E-007  0.2358181E+04  0.7818608E-02  0.8455328E-01
         -1   -1    0    0    0  501 -0.00000000000E+00  0.00000000000E+00  0.15069067119E+04  0.15069067119E+04  0.00000000000E+00 0.  1.
          2   -1    0    0  501    0  0.00000000000E+00 -0.00000000000E+00 -0.92258786278E+03  0.92258786278E+03  0.00000000000E+00 0. -1.
         24    2    1    2    0    0  0.25496376352E+03  0.66106705828E+03  0.98521951955E+03  0.12161571307E+04  0.79777744553E+02 0.  0.
        254    2    1    2    0    0 -0.25496376352E+03 -0.66106705828E+03 -0.40090067046E+03  0.12133374440E+04  0.89969451990E+03 0.  0.
         23    2    4    4    0    0 -0.90548156285E+02 -0.53454137502E+03  0.18953158088E+03  0.58135876154E+03  0.90124021488E+02 0.  0.
         23    2    4    4    0    0 -0.16441560723E+03 -0.12652568326E+03 -0.59043225134E+03  0.63197868244E+03  0.88008926859E+02 0.  0.
          4    1    3    3  502    0  0.37053667277E+02  0.14714329754E+03  0.16676690071E+03  0.22546690099E+03  0.00000000000E+00 0. -1.
         -3    1    3    3    0  502  0.21791009624E+03  0.51392376074E+03  0.81845261884E+03  0.99069022968E+03  0.00000000000E+00 0.  1.
         13    1    5    5    0    0 -0.98187319874E+02 -0.45813512220E+03  0.13642535083E+03  0.48799632819E+03  0.00000000000E+00 0. -1.
        -13    1    5    5    0    0  0.76391635885E+01 -0.76406252822E+02  0.53106230052E+02  0.93362433350E+02  0.00000000000E+00 0.  1.
          2    1    6    6  503    0 -0.11273950859E+03 -0.44570449016E+02 -0.40507940592E+03  0.42283099085E+03  0.00000000000E+00 0. -1.
         -2    1    6    6    0  503 -0.51676098642E+02 -0.81955234246E+02 -0.18535284542E+03  0.20914769159E+03  0.00000000000E+00 0.  1.
<mgrwt>
<rscale>  0 0.23581805E+04</rscale>
<asrwt>0</asrwt>
<pdfrwt beam="1">  1        2 0.14193659E+00 0.23581805E+04</pdfrwt>
<pdfrwt beam="2">  1       -1 0.23183180E+00 0.23581805E+04</pdfrwt>
<totfact> 0.26740730E+00</totfact>
</mgrwt>
</event>
<event>
12    7  0.1857704E-007  0.2308755E+04  0.7818608E-02  0.8474477E-01
         -1   -1    0    0    0  501 -0.00000000000E+00  0.00000000000E+00  0.80803127328E+03  0.80803127328E+03  0.00000000000E+00 0.  1.
          2   -1    0    0  501    0  0.00000000000E+00 -0.00000000000E+00 -0.16491781768E+04  0.16491781768E+04  0.00000000000E+00 0. -1.
         24    2    1    2    0    0  0.39362247961E+03  0.12097141681E+03 -0.13009106821E+04  0.13668577076E+04  0.79741142026E+02 0.  0.
        254    2    1    2    0    0 -0.39362247961E+03 -0.12097141681E+03  0.45976377857E+03  0.10903517426E+04  0.89883894567E+03 0.  0.
         23    2    4    4    0    0 -0.33957904546E+03  0.12645890625E+03 -0.16593470951E+03  0.40911850067E+03  0.92400414973E+02 0.  0.
         23    2    4    4    0    0 -0.54043434157E+02 -0.24743032306E+03  0.62569848808E+03  0.68123324188E+03  0.91856814183E+02 0.  0.
          2    1    3    3  502    0  0.37947693593E+03  0.12165340881E+03 -0.12858498661E+04  0.13461843020E+04  0.00000000000E+00 0. -1.
         -1    1    3    3    0  502  0.14145543683E+02 -0.68199199759E+00 -0.15060816060E+02  0.20673405611E+02  0.00000000000E+00 0.  1.
         13    1    5    5    0    0 -0.10392829222E+03  0.60667637770E+02 -0.14079522026E+02  0.12116057584E+03  0.00000000000E+00 0. -1.
        -13    1    5    5    0    0 -0.23565075323E+03  0.65791268482E+02 -0.15185518748E+03  0.28795792483E+03  0.00000000000E+00 0.  1.
          3    1    6    6  503    0 -0.54686657973E+00 -0.16106471009E+03  0.30628603655E+03  0.34605386298E+03  0.00000000000E+00 0. -1.
         -3    1    6    6    0  503 -0.53496567578E+02 -0.86365612973E+02  0.31941245153E+03  0.33517937890E+03  0.00000000000E+00 0.  1.
<mgrwt>
<rscale>  0 0.23087551E+04</rscale>
<asrwt>0</asrwt>
<pdfrwt beam="1">  1        2 0.25371972E+00 0.23087551E+04</pdfrwt>
<pdfrwt beam="2">  1       -1 0.12431250E+00 0.23087551E+04</pdfrwt>
<totfact> 0.61274452E+00</totfact>
</mgrwt>
</event>
<event>
12    7  0.1857704E-007  0.1718620E+04  0.7818608E-02  0.8750815E-01
         -1   -1    0    0    0  501 -0.00000000000E+00  0.00000000000E+00  0.88815110001E+03  0.88815110001E+03  0.00000000000E+00 0.  1.
          2   -1    0    0  501    0  0.00000000000E+00 -0.00000000000E+00 -0.83140583039E+03  0.83140583039E+03  0.00000000000E+00 0. -1.
         24    2    1    2    0    0 -0.41399570240E+02  0.46415011755E+02  0.63625408376E+03  0.64436314425E+03  0.80723756342E+02 0.  0.
        254    2    1    2    0    0  0.41399570240E+02 -0.46415011755E+02 -0.57950881413E+03  0.10751937862E+04  0.90351698069E+03 0.  0.
         23    2    4    4    0    0 -0.21282589292E+03  0.32502824736E+03 -0.99716085050E+02  0.41132349166E+03  0.91134487958E+02 0.  0.
         23    2    4    4    0    0  0.25422546316E+03 -0.37144325911E+03 -0.47979272908E+03  0.66387029449E+03  0.89005753575E+02 0.  0.
          4    1    3    3  502    0 -0.39570797569E+00 -0.98077287636E+01  0.91789603659E+01  0.13438803581E+02  0.00000000000E+00 0. -1.
         -3    1    3    3    0  502 -0.41003862264E+02  0.56222740518E+02  0.62707512339E+03  0.63092434067E+03  0.00000000000E+00 0.  1.
         13    1    5    5    0    0 -0.55801164655E+02  0.39229749142E+02 -0.42160335241E+02  0.80188758951E+02  0.00000000000E+00 0.  1.
        -13    1    5    5    0    0 -0.15702472826E+03  0.28579849822E+03 -0.57555749810E+02  0.33113473271E+03  0.00000000000E+00 0. -1.
          1    1    6    6  503    0  0.21289893996E+03 -0.34926764096E+03 -0.45087750408E+03  0.60877283723E+03  0.00000000000E+00 0. -1.
         -1    1    6    6    0  503  0.41326523201E+02 -0.22175618151E+02 -0.28915225002E+02  0.55097457266E+02  0.00000000000E+00 0.  1.
<mgrwt>
<rscale>  0 0.17186204E+04</rscale>
<asrwt>0</asrwt>
<pdfrwt beam="1">  1        2 0.12790859E+00 0.17186204E+04</pdfrwt>
<pdfrwt beam="2">  1       -1 0.13663863E+00 0.17186204E+04</pdfrwt>
<totfact> 0.15843896E+01</totfact>
</mgrwt>
</event>
<event>
12    7  0.1857704E-007  0.1157982E+04  0.7818608E-02  0.9150451E-01
         -1   -1    0    0    0  501 -0.00000000000E+00  0.00000000000E+00  0.30009432876E+03  0.30009432876E+03  0.00000000000E+00 0.  1.
          2   -1    0    0  501    0  0.00000000000E+00 -0.00000000000E+00 -0.11170846319E+04  0.11170846319E+04  0.00000000000E+00 0. -1.
         24    2    1    2    0    0  0.13466810944E+03 -0.14435790949E+03 -0.59915633494E+02  0.22116674460E+03  0.79687765971E+02 0.  0.
        254    2    1    2    0    0 -0.13466810944E+03  0.14435790949E+03 -0.75707466965E+03  0.11960122161E+04  0.90460403481E+03 0.  0.
         23    2    4    4    0    0 -0.64429222151E+02  0.32016830694E+03 -0.88658630841E+03  0.94904695505E+03  0.89420194564E+02 0.  0.
         23    2    4    4    0    0 -0.70238887291E+02 -0.17581039745E+03  0.12951163876E+03  0.24696526101E+03  0.91519279016E+02 0.  0.
          4    1    3    3  502    0  0.42827580576E+02 -0.73840327751E+02 -0.61761494684E+02  0.10536165283E+03  0.00000000000E+00 0. -1.
         -3    1    3    3    0  502  0.91840528865E+02 -0.70517581743E+02  0.18458611908E+01  0.11580509177E+03  0.00000000000E+00 0.  1.
         13    1    5    5    0    0 -0.63048149139E+02  0.15978302929E+03 -0.54999099875E+03  0.57619075336E+03  0.00000000000E+00 0.  1.
        -13    1    5    5    0    0 -0.13810730121E+01  0.16038527765E+03 -0.33659530967E+03  0.37285620169E+03  0.00000000000E+00 0. -1.
          4    1    6    6  503    0 -0.80087195510E+02 -0.14777411063E+03  0.73271323963E+02  0.18335712032E+03  0.00000000000E+00 0. -1.
         -4    1    6    6    0  503  0.98483082193E+01 -0.28036286821E+02  0.56240314797E+02  0.63608140689E+02  0.00000000000E+00 0.  1.
<mgrwt>
<rscale>  0 0.11579823E+04</rscale>
<asrwt>0</asrwt>
<pdfrwt beam="1">  1        2 0.17185917E+00 0.11579823E+04</pdfrwt>
<pdfrwt beam="2">  1       -1 0.46168359E-01 0.11579823E+04</pdfrwt>
<totfact> 0.11191513E+02</totfact>
</mgrwt>
</event>
<event>
12    7  0.1857704E-007  0.1311481E+04  0.7818608E-02  0.9020510E-01
          2   -1    0    0  501    0  0.00000000000E+00  0.00000000000E+00  0.21620430984E+04  0.21620430984E+04  0.00000000000E+00 0. -1.
         -1   -1    0    0    0  501 -0.00000000000E+00 -0.00000000000E+00 -0.19888379066E+03  0.19888379066E+03  0.00000000000E+00 0.  1.
         24    2    1    2    0    0 -0.10267324646E+03  0.13820201626E+03  0.10642308107E+04  0.10812816129E+04  0.83313355620E+02 0.  0.
        254    2    1    2    0    0  0.10267324646E+03 -0.13820201626E+03  0.89892849707E+03  0.12796452761E+04  0.89430307897E+03 0.  0.
         23    2    4    4    0    0  0.10440427631E+03 -0.15929801164E+03  0.10657740976E+04  0.10860208987E+04  0.85386508434E+02 0.  0.
         23    2    4    4    0    0 -0.17310298562E+01  0.21095995379E+02 -0.16684560056E+03  0.19362437743E+03  0.95942209804E+02 0.  0.
          2    1    3    3  502    0 -0.75750892802E+02  0.66754514242E+02  0.79658677645E+03  0.80296005838E+03  0.00000000000E+00 0. -1.
         -1    1    3    3    0  502 -0.26922353655E+02  0.71447502019E+02  0.26764403425E+03  0.27832155457E+03  0.00000000000E+00 0.  1.
         13    1    5    5    0    0  0.43155104163E+02 -0.66105654082E+02  0.67641679338E+03  0.68100807549E+03  0.00000000000E+00 0. -1.
        -13    1    5    5    0    0  0.61249172150E+02 -0.93192357559E+02  0.38935730426E+03  0.40501282322E+03  0.00000000000E+00 0.  1.
          3    1    6    6  503    0 -0.48859167572E+01 -0.19477311089E+02 -0.14696793911E+03  0.14833345191E+03  0.00000000000E+00 0. -1.
         -3    1    6    6    0  503  0.31548869010E+01  0.40573306469E+02 -0.19877661449E+02  0.45290925513E+02  0.00000000000E+00 0.  1.
<mgrwt>
<rscale>  0 0.13114806E+04</rscale>
<asrwt>0</asrwt>
<pdfrwt beam="1">  1        2 0.33262200E+00 0.13114806E+04</pdfrwt>
<pdfrwt beam="2">  1       -1 0.30597508E-01 0.13114806E+04</pdfrwt>
<totfact> 0.59741731E+01</totfact>
</mgrwt>
</event>
<event>
12    7  0.1857704E-007  0.1480901E+04  0.7818608E-02  0.8897254E-01
         -1   -1    0    0    0  501 -0.00000000000E+00  0.00000000000E+00  0.43275417092E+03  0.43275417092E+03  0.00000000000E+00 0.  1.
          2   -1    0    0  501    0  0.00000000000E+00 -0.00000000000E+00 -0.12669239778E+04  0.12669239778E+04  0.00000000000E+00 0. -1.
         24    2    1    2    0    0 -0.13357170612E+03  0.11611502543E+03 -0.73503205823E+03  0.76032587478E+03  0.80617674496E+02 0.  0.
        254    2    1    2    0    0  0.13357170612E+03 -0.11611502543E+03 -0.99137748700E+02  0.93935227399E+03  0.91718607797E+03 0.  0.
         23    2    4    4    0    0  0.42871024690E+03 -0.20411495103E+03 -0.29222354204E+03  0.56497491721E+03  0.91360109018E+02 0.  0.
         23    2    4    4    0    0 -0.29513854078E+03  0.87999925605E+02  0.19308579334E+03  0.37437735678E+03  0.89585358832E+02 0.  0.
          4    1    3    3  502    0  0.46632340463E+01  0.20942179667E+02 -0.15578428482E+03  0.15725477429E+03  0.00000000000E+00 0. -1.
         -3    1    3    3    0  502 -0.13823494016E+03  0.95172845759E+02 -0.57924777341E+03  0.60307110049E+03  0.00000000000E+00 0.  1.
         13    1    5    5    0    0  0.36350899007E+03 -0.19024577906E+03 -0.21583757583E+03  0.46359260289E+03  0.00000000000E+00 0. -1.
        -13    1    5    5    0    0  0.65201256827E+02 -0.13869171971E+02 -0.76385966203E+02  0.10138231431E+03  0.00000000000E+00 0.  1.
          2    1    6    6  503    0 -0.61139914429E+02  0.12617034605E+02  0.10738548160E+01  0.62437423576E+02  0.00000000000E+00 0.  1.
         -2    1    6    6    0  503 -0.23399862635E+03  0.75382891001E+02  0.19201193852E+03  0.31193993320E+03  0.00000000000E+00 0. -1.
<mgrwt>
<rscale>  0 0.14809006E+04</rscale>
<asrwt>0</asrwt>
<pdfrwt beam="1">  1        2 0.19491138E+00 0.14809006E+04</pdfrwt>
<pdfrwt beam="2">  1       -1 0.66577565E-01 0.14809006E+04</pdfrwt>
<totfact> 0.43588053E+01</totfact>
</mgrwt>
</event>
<event>
12    7  0.1857704E-007  0.1507998E+04  0.7818608E-02  0.8879152E-01
          2   -1    0    0  501    0  0.00000000000E+00  0.00000000000E+00  0.70312996121E+03  0.70312996121E+03  0.00000000000E+00 0. -1.
         -1   -1    0    0    0  501 -0.00000000000E+00 -0.00000000000E+00 -0.80854800415E+03  0.80854800415E+03  0.00000000000E+00 0.  1.
         24    2    1    2    0    0  0.11318382808E+03  0.45165955714E+03  0.10039144113E+03  0.48302750667E+03  0.80188504484E+02 0.  0.
        254    2    1    2    0    0 -0.11318382808E+03 -0.45165955714E+03 -0.20580948407E+03  0.10286504587E+04  0.89384410718E+03 0.  0.
         23    2    4    4    0    0  0.30923041806E+03 -0.49997167054E+02  0.12850141248E+03  0.35091674529E+03  0.92232212104E+02 0.  0.
         23    2    4    4    0    0 -0.42241424614E+03 -0.40166239009E+03 -0.33431089655E+03  0.67773371340E+03  0.88276496103E+02 0.  0.
          4    1    3    3  502    0  0.10573933475E+03  0.42512693653E+03  0.72902841519E+02  0.44410420329E+03  0.00000000000E+00 0. -1.
         -3    1    3    3    0  502  0.74444933273E+01  0.26532620616E+02  0.27488599616E+02  0.38923303386E+02  0.00000000000E+00 0.  1.
         13    1    5    5    0    0 -0.50110701529E+01  0.24216025766E+01 -0.29268621789E+01  0.62882036648E+01  0.00000000000E+00 0.  1.
        -13    1    5    5    0    0  0.31424148822E+03 -0.52418769630E+02  0.13142827466E+03  0.34462854163E+03  0.00000000000E+00 0. -1.
          2    1    6    6  503    0 -0.37874817988E+03 -0.32069054344E+03 -0.29770038554E+03  0.57872111415E+03  0.00000000000E+00 0. -1.
         -2    1    6    6    0  503 -0.43666066261E+02 -0.80971846648E+02 -0.36610511012E+02  0.99012599243E+02  0.00000000000E+00 0.  1.
<mgrwt>
<rscale>  0 0.15079978E+04</rscale>
<asrwt>0</asrwt>
<pdfrwt beam="1">  1        2 0.10817384E+00 0.15079978E+04</pdfrwt>
<pdfrwt beam="2">  1       -1 0.12439200E+00 0.15079978E+04</pdfrwt>
<totfact> 0.25459810E+01</totfact>
</mgrwt>
</event>
<event>
12    7  0.1857704E-007  0.2121616E+04  0.7818608E-02  0.8551781E-01
          2   -1    0    0  501    0  0.00000000000E+00  0.00000000000E+00  0.90870175940E+03  0.90870175940E+03  0.00000000000E+00 0. -1.
         -1   -1    0    0    0  501 -0.00000000000E+00 -0.00000000000E+00 -0.12383750856E+04  0.12383750856E+04  0.00000000000E+00 0.  1.
         24    2    1    2    0    0 -0.12490212239E+03  0.19061398757E+03  0.71409371728E+03  0.75380268198E+03  0.79714577491E+02 0.  0.
        254    2    1    2    0    0  0.12490212239E+03 -0.19061398757E+03 -0.10437670435E+04  0.13932741630E+04  0.89433160507E+03 0.  0.
         23    2    4    4    0    0  0.31483064325E+02 -0.53472924432E+03 -0.72535954196E+03  0.90692107126E+03  0.97122686926E+02 0.  0.
         23    2    4    4    0    0  0.93419058066E+02  0.34411525676E+03 -0.31840750155E+03  0.48635309177E+03  0.89518503619E+02 0.  0.
          2    1    3    3  502    0 -0.59935864825E+02  0.11797113267E+03  0.52058364923E+03  0.53713762844E+03  0.00000000000E+00 0. -1.
         -1    1    3    3    0  502 -0.64966257567E+02  0.72642854901E+02  0.19351006805E+03  0.21666505355E+03  0.00000000000E+00 0.  1.
         13    1    5    5    0    0  0.58149246276E+02 -0.35725892259E+03 -0.52813643584E+03  0.64026819964E+03  0.00000000000E+00 0. -1.
        -13    1    5    5    0    0 -0.26666181951E+02 -0.17747032173E+03 -0.19722310612E+03  0.26665287162E+03  0.00000000000E+00 0.  1.
          1    1    6    6  503    0  0.64498624805E+02  0.15505470035E+03 -0.20104189566E+03  0.26195395877E+03  0.00000000000E+00 0.  1.
         -1    1    6    6    0  503  0.28920433261E+02  0.18906055640E+03 -0.11736560589E+03  0.22439913301E+03  0.00000000000E+00 0. -1.
<mgrwt>
<rscale>  0 0.21216160E+04</rscale>
<asrwt>0</asrwt>
<pdfrwt beam="1">  1        2 0.13980027E+00 0.21216160E+04</pdfrwt>
<pdfrwt beam="2">  1       -1 0.19051924E+00 0.21216160E+04</pdfrwt>
<totfact> 0.53190093E+00</totfact>
</mgrwt>
</event>
<event>
12    7  0.1857704E-007  0.1686063E+04  0.7818608E-02  0.8769354E-01
          2   -1    0    0  501    0  0.00000000000E+00  0.00000000000E+00  0.10385815911E+04  0.10385815911E+04  0.00000000000E+00 0. -1.
         -1   -1    0    0    0  501 -0.00000000000E+00 -0.00000000000E+00 -0.68430037867E+03  0.68430037867E+03  0.00000000000E+00 0.  1.
         24    2    1    2    0    0 -0.39269170155E+03  0.14797752075E+03 -0.27472542370E+03  0.50803045190E+03  0.80726467308E+02 0.  0.
        254    2    1    2    0    0  0.39269170155E+03 -0.14797752075E+03  0.62900663615E+03  0.12148515179E+04  0.95084738160E+03 0.  0.
         23    2    4    4    0    0  0.76650902300E+02 -0.57652240386E+02  0.81524926925E+03  0.82591644515E+03  0.91145278048E+02 0.  0.
         23    2    4    4    0    0  0.31604079925E+03 -0.90325280362E+02 -0.18624263311E+03  0.38893507274E+03  0.92432296065E+02 0.  0.
          2    1    3    3  502    0 -0.99247729835E+02  0.47421252307E+02 -0.11497311208E+03  0.15911537810E+03  0.00000000000E+00 0. -1.
         -1    1    3    3    0  502 -0.29344397171E+03  0.10055626844E+03 -0.15975231162E+03  0.34891507380E+03  0.00000000000E+00 0.  1.
         13    1    5    5    0    0  0.68708203858E+02 -0.40590798042E+01  0.29838275118E+03  0.30621815689E+03  0.00000000000E+00 0. -1.
        -13    1    5    5    0    0  0.79426984413E+01 -0.53593160582E+02  0.51686651807E+03  0.51969828826E+03  0.00000000000E+00 0.  1.
          2    1    6    6  503    0  0.13186381131E+01 -0.77588381677E+01 -0.24194826139E+02  0.25442641138E+02  0.00000000000E+00 0. -1.
         -2    1    6    6    0  503  0.31472216113E+03 -0.82566442194E+02 -0.16204780697E+03  0.36349243160E+03  0.00000000000E+00 0.  1.
<mgrwt>
<rscale>  0 0.16860626E+04</rscale>
<asrwt>0</asrwt>
<pdfrwt beam="1">  1        2 0.15978178E+00 0.16860626E+04</pdfrwt>
<pdfrwt beam="2">  1       -1 0.10527698E+00 0.16860626E+04</pdfrwt>
<totfact> 0.21888214E+01</totfact>
</mgrwt>
</event>
<event>
12    7  0.1857704E-007  0.1757484E+04  0.7818608E-02  0.8729241E-01
         -1   -1    0    0    0  501 -0.00000000000E+00  0.00000000000E+00  0.28030922269E+03  0.28030922269E+03  0.00000000000E+00 0.  1.
          2   -1    0    0  501    0  0.00000000000E+00 -0.00000000000E+00 -0.27547709249E+04  0.27547709249E+04  0.00000000000E+00 0. -1.
         24    2    1    2    0    0  0.21845120025E+03 -0.12027873856E+03  0.10912278872E+03  0.28394981476E+03  0.80819629053E+02 0.  0.
        254    2    1    2    0    0 -0.21845120025E+03  0.12027873856E+03 -0.25835844910E+04  0.27511303329E+04  0.91193277417E+03 0.  0.
         23    2    4    4    0    0 -0.67351225403E+01  0.32238672762E+03 -0.23268225625E+04  0.23508667338E+04  0.92155296606E+02 0.  0.
         23    2    4    4    0    0 -0.21171607771E+03 -0.20210798906E+03 -0.25676192845E+03  0.40026359905E+03  0.92805840432E+02 0.  0.
          4    1    3    3  502    0  0.90366885044E+02 -0.92586255996E+01  0.22448563245E+02  0.93572613795E+02  0.00000000000E+00 0. -1.
         -3    1    3    3    0  502  0.12808431521E+03 -0.11102011296E+03  0.86674225478E+02  0.19037720096E+03  0.00000000000E+00 0.  1.
         13    1    5    5    0    0  0.23435660208E+02  0.26125587273E+02 -0.17018524995E+03  0.17376649787E+03  0.00000000000E+00 0. -1.
        -13    1    5    5    0    0 -0.30170782749E+02  0.29626114035E+03 -0.21566373126E+04  0.21771002360E+04  0.00000000000E+00 0.  1.
          3    1    6    6  503    0 -0.74998287135E+02 -0.81946590296E+02 -0.15810434651E+03  0.19322777005E+03  0.00000000000E+00 0. -1.
         -3    1    6    6    0  503 -0.13671779058E+03 -0.12016139877E+03 -0.98657581938E+02  0.20703582900E+03  0.00000000000E+00 0.  1.
<mgrwt>
<rscale>  0 0.17574842E+04</rscale>
<asrwt>0</asrwt>
<pdfrwt beam="1">  1        2 0.42381091E+00 0.17574842E+04</pdfrwt>
<pdfrwt beam="2">  1       -1 0.43124496E-01 0.17574842E+04</pdfrwt>
<totfact> 0.14117434E+01</totfact>
</mgrwt>
</event>
<event>
12    7  0.1857704E-007  0.1776720E+04  0.7818608E-02  0.8718779E-01
         -1   -1    0    0    0  501 -0.00000000000E+00  0.00000000000E+00  0.42395101399E+03  0.42395101399E+03  0.00000000000E+00 0.  1.
          2   -1    0    0  501    0  0.00000000000E+00 -0.00000000000E+00 -0.18614960598E+04  0.18614960598E+04  0.00000000000E+00 0. -1.
         24    2    1    2    0    0 -0.11232097398E+03  0.37361191408E+03  0.14174292761E+03  0.42260293362E+03  0.79374545237E+02 0.  0.
        254    2    1    2    0    0  0.11232097398E+03 -0.37361191408E+03 -0.15792879735E+04  0.18628441402E+04  0.90765407730E+03 0.  0.
         23    2    4    4    0    0  0.35580377335E+03  0.15410532350E+03 -0.66122025215E+03  0.77193881792E+03  0.91282752460E+02 0.  0.
         23    2    4    4    0    0 -0.24348279936E+03 -0.52771723758E+03 -0.91806772132E+03  0.10909053223E+04  0.97245693254E+02 0.  0.
          4    1    3    3  502    0 -0.71313499906E+02  0.20663968504E+03  0.11980022837E+03  0.24927428552E+03  0.00000000000E+00 0. -1.
         -3    1    3    3    0  502 -0.41007474079E+02  0.16697222904E+03  0.21942699239E+02  0.17332864810E+03  0.00000000000E+00 0.  1.
         13    1    5    5    0    0  0.54556766982E+01  0.19905960969E+02 -0.18422440290E+02  0.27665827234E+02  0.00000000000E+00 0. -1.
        -13    1    5    5    0    0  0.35034809665E+03  0.13419936253E+03 -0.64279781186E+03  0.74427299068E+03  0.00000000000E+00 0.  1.
          2    1    6    6  503    0 -0.43581110253E+02 -0.31412201649E+02 -0.71607092999E+02  0.89518798870E+02  0.00000000000E+00 0. -1.
         -2    1    6    6    0  503 -0.19990168911E+03 -0.49630503593E+03 -0.84646062832E+03  0.10013865234E+04  0.00000000000E+00 0.  1.
<mgrwt>
<rscale>  0 0.17767196E+04</rscale>
<asrwt>0</asrwt>
<pdfrwt beam="1">  1        2 0.28638402E+00 0.17767196E+04</pdfrwt>
<pdfrwt beam="2">  1       -1 0.65223231E-01 0.17767196E+04</pdfrwt>
<totfact> 0.20476473E+01</totfact>
</mgrwt>
</event>
<event>
12    7  0.1857704E-007  0.1908260E+04  0.7818608E-02  0.8650756E-01
         -1   -1    0    0    0  501 -0.00000000000E+00  0.00000000000E+00  0.29873510563E+03  0.29873510563E+03  0.00000000000E+00 0.  1.
          2   -1    0    0  501    0  0.00000000000E+00 -0.00000000000E+00 -0.30473946325E+04  0.30473946325E+04  0.00000000000E+00 0. -1.
         24    2    1    2    0    0 -0.65698135588E+02  0.29038972819E+03 -0.22591074340E+04  0.22800367666E+04  0.79742205118E+02 0.  0.
        254    2    1    2    0    0  0.65698135588E+02 -0.29038972819E+03 -0.48955209285E+03  0.10660929715E+04  0.89902754858E+03 0.  0.
         23    2    4    4    0    0  0.25498834989E+03 -0.49962726720E+03 -0.51644547267E+03  0.76789568943E+03  0.91112012858E+02 0.  0.
         23    2    4    4    0    0 -0.18929021431E+03  0.20923753901E+03  0.26893379820E+02  0.29819728212E+03  0.92667320146E+02 0.  0.
          2    1    3    3  502    0 -0.60587583233E+02  0.28477174401E+03 -0.22467251368E+04  0.22655109008E+04  0.00000000000E+00 0. -1.
         -1    1    3    3    0  502 -0.51105523552E+01  0.56179841845E+01 -0.12382297226E+02  0.14525865767E+02  0.00000000000E+00 0.  1.
         13    1    5    5    0    0  0.91336677741E+02 -0.20758557256E+03 -0.26755966972E+03  0.35074539982E+03  0.00000000000E+00 0.  1.
        -13    1    5    5    0    0  0.16365167215E+03 -0.29204169464E+03 -0.24888580295E+03  0.41715028961E+03  0.00000000000E+00 0. -1.
          1    1    6    6  503    0 -0.76497419236E+02  0.35504915096E+02 -0.18041511331E+02  0.86243552089E+02  0.00000000000E+00 0. -1.
         -1    1    6    6    0  503 -0.11279279507E+03  0.17373262391E+03  0.44934891151E+02  0.21195373003E+03  0.00000000000E+00 0.  1.
<mgrwt>
<rscale>  0 0.19082597E+04</rscale>
<asrwt>0</asrwt>
<pdfrwt beam="1">  1        2 0.46882992E+00 0.19082597E+04</pdfrwt>
<pdfrwt beam="2">  1       -1 0.45959249E-01 0.19082597E+04</pdfrwt>
<totfact> 0.81794796E+00</totfact>
</mgrwt>
</event>
<event>
12    7  0.1857704E-007  0.1792936E+04  0.7818608E-02  0.8710065E-01
          2   -1    0    0  501    0  0.00000000000E+00  0.00000000000E+00  0.24091322864E+04  0.24091322864E+04  0.00000000000E+00 0. -1.
         -1   -1    0    0    0  501 -0.00000000000E+00 -0.00000000000E+00 -0.33358679973E+03  0.33358679973E+03  0.00000000000E+00 0.  1.
         24    2    1    2    0    0 -0.16323241047E+03 -0.64169171619E+03  0.79212348713E+03  0.10358008428E+04  0.83729854649E+02 0.  0.
        254    2    1    2    0    0  0.16323241047E+03  0.64169171619E+03  0.12834219995E+04  0.17069182433E+04  0.90993669128E+03 0.  0.
         23    2    4    4    0    0 -0.22596189742E+03  0.63905493659E+03  0.57551876892E+03  0.89387915686E+03  0.91367951918E+02 0.  0.
         23    2    4    4    0    0  0.38919430788E+03  0.26367796086E+01  0.70790323059E+03  0.81303908647E+03  0.91795481129E+02 0.  0.
          2    1    3    3  502    0 -0.24187748783E+01 -0.59744569108E+01  0.28699646026E+02  0.29414525142E+02  0.00000000000E+00 0. -1.
         -1    1    3    3    0  502 -0.16081363559E+03 -0.63571725928E+03  0.76342384110E+03  0.10063863176E+04  0.00000000000E+00 0.  1.
         13    1    5    5    0    0 -0.21684348436E+03  0.58853643720E+03  0.55839804617E+03  0.83976461738E+03  0.00000000000E+00 0.  1.
        -13    1    5    5    0    0 -0.91184130528E+01  0.50518499382E+02  0.17120722743E+02  0.54114539485E+02  0.00000000000E+00 0. -1.
          1    1    6    6  503    0  0.98617743092E+02 -0.24303187861E+02  0.12412015955E+03  0.16038054183E+03  0.00000000000E+00 0. -1.
         -1    1    6    6    0  503  0.29057656479E+03  0.26939967470E+02  0.58378307105E+03  0.65265854464E+03  0.00000000000E+00 0.  1.
<mgrwt>
<rscale>  0 0.17929358E+04</rscale>
<asrwt>0</asrwt>
<pdfrwt beam="1">  1        2 0.37063573E+00 0.17929358E+04</pdfrwt>
<pdfrwt beam="2">  1       -1 0.51321048E-01 0.17929358E+04</pdfrwt>
<totfact> 0.16146628E+01</totfact>
</mgrwt>
</event>
<event>
12    7  0.1857704E-007  0.2704120E+04  0.7818608E-02  0.8333670E-01
          2   -1    0    0  501    0  0.00000000000E+00  0.00000000000E+00  0.31986021039E+04  0.31986021039E+04  0.00000000000E+00 0. -1.
         -1   -1    0    0    0  501 -0.00000000000E+00 -0.00000000000E+00 -0.57152025045E+03  0.57152025045E+03  0.00000000000E+00 0.  1.
         24    2    1    2    0    0 -0.22127781483E+03 -0.10444395551E+04  0.41842773546E+03  0.11493393051E+04  0.77982131455E+02 0.  0.
        254    2    1    2    0    0  0.22127781483E+03  0.10444395551E+04  0.22086541180E+04  0.26207830492E+04  0.92224341822E+03 0.  0.
         23    2    4    4    0    0  0.42228937681E+03  0.44111613384E+03  0.16775003615E+04  0.17874414096E+04  0.89596699083E+02 0.  0.
         23    2    4    4    0    0 -0.20101156199E+03  0.60332342130E+03  0.53115375651E+03  0.83334163967E+03  0.89045924161E+02 0.  0.
          4    1    3    3  502    0 -0.28543524313E+02 -0.27134738696E+03  0.86731081144E+02  0.28629777789E+03  0.00000000000E+00 0. -1.
         -1    1    3    3    0  502 -0.19273429051E+03 -0.77309216818E+03  0.33169665431E+03  0.86304152723E+03  0.00000000000E+00 0.  1.
         13    1    5    5    0    0  0.17009573928E+03  0.12421183996E+03  0.63583988786E+03  0.66981602302E+03  0.00000000000E+00 0.  1.
        -13    1    5    5    0    0  0.25219363753E+03  0.31690429388E+03  0.10416604736E+04  0.11176253865E+04  0.00000000000E+00 0. -1.
          3    1    6    6  503    0 -0.20290025759E+03  0.52713159847E+03  0.48302477237E+03  0.74320196942E+03  0.00000000000E+00 0. -1.
         -3    1    6    6    0  503  0.18886956019E+01  0.76191822835E+02  0.48128984147E+02  0.90139670251E+02  0.00000000000E+00 0.  1.
<mgrwt>
<rscale>  0 0.27041197E+04</rscale>
<asrwt>0</asrwt>
<pdfrwt beam="1">  1        2 0.49209262E+00 0.27041197E+04</pdfrwt>
<pdfrwt beam="2">  1       -1 0.87926194E-01 0.27041197E+04</pdfrwt>
<totfact> 0.16470290E+00</totfact>
</mgrwt>
</event>
<event>
12    7  0.1857704E-007  0.1284562E+04  0.7818608E-02  0.9041898E-01
         -1   -1    0    0    0  501 -0.00000000000E+00  0.00000000000E+00  0.16541761092E+04  0.16541761092E+04  0.00000000000E+00 0.  1.
          2   -1    0    0  501    0  0.00000000000E+00 -0.00000000000E+00 -0.24938401365E+03  0.24938401365E+03  0.00000000000E+00 0. -1.
         24    2    1    2    0    0  0.12682092050E+03  0.62811878615E+02  0.77200270658E+03  0.78881647439E+03  0.78831296638E+02 0.  0.
        254    2    1    2    0    0 -0.12682092050E+03 -0.62811878615E+02  0.63278938894E+03  0.11147436484E+04  0.90675361206E+03 0.  0.
         23    2    4    4    0    0 -0.15373302243E+03 -0.89674196016E+02  0.85173702692E+03  0.87503741834E+03  0.92516035689E+02 0.  0.
         23    2    4    4    0    0  0.26912101929E+02  0.26862317401E+02 -0.21894763798E+03  0.23970623009E+03  0.89861912067E+02 0.  0.
          4    1    3    3  502    0 -0.49148732199E+01  0.23045219006E+02  0.14392064693E+03  0.14583686335E+03  0.00000000000E+00 0. -1.
         -3    1    3    3    0  502  0.13173579372E+03  0.39766659609E+02  0.62808205964E+03  0.64297961104E+03  0.00000000000E+00 0.  1.
         13    1    5    5    0    0 -0.29284332485E+02 -0.64297734772E+02  0.37938545363E+03  0.38590814095E+03  0.00000000000E+00 0. -1.
        -13    1    5    5    0    0 -0.12444868994E+03 -0.25376461244E+02  0.47235157329E+03  0.48912927739E+03  0.00000000000E+00 0.  1.
          1    1    6    6  503    0 -0.21833956254E+02  0.32370779204E+02 -0.15057718742E+03  0.15555731536E+03  0.00000000000E+00 0. -1.
         -1    1    6    6    0  503  0.48746058182E+02 -0.55084618031E+01 -0.68370450560E+02  0.84148914726E+02  0.00000000000E+00 0.  1.
<mgrwt>
<rscale>  0 0.12845623E+04</rscale>
<asrwt>0</asrwt>
<pdfrwt beam="1">  1        2 0.38366772E-01 0.12845623E+04</pdfrwt>
<pdfrwt beam="2">  1       -1 0.25448863E+00 0.12845623E+04</pdfrwt>
<totfact> 0.99121834E+00</totfact>
</mgrwt>
</event>
<event>
12    7  0.1857704E-007  0.1502397E+04  0.7818608E-02  0.8882861E-01
         -1   -1    0    0    0  501 -0.00000000000E+00  0.00000000000E+00  0.29233970722E+03  0.29233970722E+03  0.00000000000E+00 0.  1.
          2   -1    0    0  501    0  0.00000000000E+00 -0.00000000000E+00 -0.19302847282E+04  0.19302847282E+04  0.00000000000E+00 0. -1.
         24    2    1    2    0    0 -0.20681349964E+03 -0.37138856530E+03 -0.19431549713E+03  0.47375214671E+03  0.77338826056E+02 0.  0.
        254    2    1    2    0    0  0.20681349964E+03  0.37138856530E+03 -0.14436295238E+04  0.17488722887E+04  0.89094713088E+03 0.  0.
         23    2    4    4    0    0  0.10893269766E+03 -0.18705679703E+03 -0.98980791717E+03  0.10172359555E+04  0.90513525780E+02 0.  0.
         23    2    4    4    0    0  0.97880801984E+02  0.55844536233E+03 -0.45382160665E+03  0.73163633318E+03  0.88858310047E+02 0.  0.
          4    1    3    3  502    0 -0.89951160560E+02 -0.15241971728E+03 -0.12293455030E+03  0.21548987252E+03  0.00000000000E+00 0. -1.
         -3    1    3    3    0  502 -0.11686233908E+03 -0.21896884801E+03 -0.71380946836E+02  0.25826227418E+03  0.00000000000E+00 0.  1.
         13    1    5    5    0    0  0.16176465886E+02 -0.49962911197E+02 -0.43798571867E+03  0.44112295372E+03  0.00000000000E+00 0. -1.
        -13    1    5    5    0    0  0.92756231770E+02 -0.13709388583E+03 -0.55182219850E+03  0.57611300179E+03  0.00000000000E+00 0.  1.
          3    1    6    6  503    0  0.79220178595E+02  0.24742343751E+03 -0.17254244460E+03  0.31187351493E+03  0.00000000000E+00 0. -1.
         -3    1    6    6    0  503  0.18660623389E+02  0.31102192482E+03 -0.28127916205E+03  0.41976281825E+03  0.00000000000E+00 0.  1.
<mgrwt>
<rscale>  0 0.15023966E+04</rscale>
<asrwt>0</asrwt>
<pdfrwt beam="1">  1        2 0.29696687E+00 0.15023966E+04</pdfrwt>
<pdfrwt beam="2">  1       -1 0.44975341E-01 0.15023966E+04</pdfrwt>
<totfact> 0.39416769E+01</totfact>
</mgrwt>
</event>
<event>
12    7  0.1857704E-007  0.2299944E+04  0.7818608E-02  0.8477943E-01
          2   -1    0    0  501    0  0.00000000000E+00  0.00000000000E+00  0.14970378730E+04  0.14970378730E+04  0.00000000000E+00 0. -1.
         -1   -1    0    0    0  501 -0.00000000000E+00 -0.00000000000E+00 -0.88336825907E+03  0.88336825907E+03  0.00000000000E+00 0.  1.
         24    2    1    2    0    0  0.68758263896E+03 -0.49474918502E+03  0.74535038333E+03  0.11312608869E+04  0.81592639414E+02 0.  0.
        254    2    1    2    0    0 -0.68758263896E+03  0.49474918502E+03 -0.13168076945E+03  0.12491452451E+04  0.90855785558E+03 0.  0.
         23    2    4    4    0    0 -0.23565181573E+03  0.22097045202E+03  0.38079288939E+03  0.50752727679E+03  0.90669692575E+02 0.  0.
         23    2    4    4    0    0 -0.45193082323E+03  0.27377873300E+03 -0.51247365884E+03  0.74161796834E+03  0.90397435457E+02 0.  0.
          2    1    3    3  502    0  0.50072062438E+03 -0.39512181436E+03  0.58701436625E+03  0.86684961674E+03  0.00000000000E+00 0. -1.
         -1    1    3    3    0  502  0.18686201458E+03 -0.99627370659E+02  0.15833601708E+03  0.26441127015E+03  0.00000000000E+00 0.  1.
         13    1    5    5    0    0 -0.22554403714E+03  0.16810769056E+03  0.32852997884E+03  0.43250694250E+03  0.00000000000E+00 0. -1.
        -13    1    5    5    0    0 -0.10107778590E+02  0.52862761469E+02  0.52262910557E+02  0.75020334297E+02  0.00000000000E+00 0.  1.
          4    1    6    6  503    0 -0.16458551540E+03  0.10982393920E+03 -0.25293205798E+03  0.32112974863E+03  0.00000000000E+00 0. -1.
         -4    1    6    6    0  503 -0.28734530783E+03  0.16395479379E+03 -0.25954160086E+03  0.42048821972E+03  0.00000000000E+00 0.  1.
<mgrwt>
<rscale>  0 0.22999441E+04</rscale>
<asrwt>0</asrwt>
<pdfrwt beam="1">  1        2 0.23031352E+00 0.22999441E+04</pdfrwt>
<pdfrwt beam="2">  1       -1 0.13590281E+00 0.22999441E+04</pdfrwt>
<totfact> 0.59595350E+00</totfact>
</mgrwt>
</event>
<event>
12    7  0.1857704E-007  0.1427417E+04  0.7818608E-02  0.8934208E-01
          2   -1    0    0  501    0  0.00000000000E+00  0.00000000000E+00  0.15765617453E+04  0.15765617453E+04  0.00000000000E+00 0. -1.
         -1   -1    0    0    0  501 -0.00000000000E+00 -0.00000000000E+00 -0.32309535391E+03  0.32309535391E+03  0.00000000000E+00 0.  1.
         24    2    1    2    0    0  0.15818105731E+03 -0.36750472994E+03  0.31209399692E+03  0.51370696113E+03  0.80070004210E+02 0.  0.
        254    2    1    2    0    0 -0.15818105731E+03  0.36750472994E+03  0.94137239442E+03  0.13859501380E+04  0.93519774739E+03 0.  0.
         23    2    4    4    0    0  0.24239578022E+03  0.41821807558E+03  0.18817513826E+03  0.52658472195E+03  0.90661533894E+02 0.  0.
         23    2    4    4    0    0 -0.40057683753E+03 -0.50713345639E+02  0.75319725617E+03  0.85936541609E+03  0.90383435848E+02 0.  0.
          2    1    3    3  502    0  0.12162543140E+03 -0.33390466238E+03  0.29274688898E+03  0.46041916785E+03  0.00000000000E+00 0. -1.
         -1    1    3    3    0  502  0.36555625914E+02 -0.33600067560E+02  0.19347107946E+02  0.53287793273E+02  0.00000000000E+00 0.  1.
         13    1    5    5    0    0  0.90737883481E+01  0.24648170229E+02  0.35685493266E+02  0.44309371021E+02  0.00000000000E+00 0.  1.
        -13    1    5    5    0    0  0.23332199187E+03  0.39356990535E+03  0.15248964499E+03  0.48227535093E+03  0.00000000000E+00 0. -1.
          3    1    6    6  503    0 -0.37396349275E+03 -0.63346320276E+02  0.65552362459E+03  0.75734580780E+03  0.00000000000E+00 0. -1.
         -3    1    6    6    0  503 -0.26613344780E+02  0.12632974637E+02  0.97673631579E+02  0.10201960828E+03  0.00000000000E+00 0.  1.
<mgrwt>
<rscale>  0 0.14274169E+04</rscale>
<asrwt>0</asrwt>
<pdfrwt beam="1">  1        2 0.24254796E+00 0.14274169E+04</pdfrwt>
<pdfrwt beam="2">  1       -1 0.49706978E-01 0.14274169E+04</pdfrwt>
<totfact> 0.51633294E+01</totfact>
</mgrwt>
</event>
<event>
12    7  0.1857704E-007  0.1867983E+04  0.7818608E-02  0.8670959E-01
          2   -1    0    0  501    0  0.00000000000E+00  0.00000000000E+00  0.26247781887E+04  0.26247781887E+04  0.00000000000E+00 0. -1.
         -1   -1    0    0    0  501 -0.00000000000E+00 -0.00000000000E+00 -0.33234813800E+03  0.33234813800E+03  0.00000000000E+00 0.  1.
         24    2    1    2    0    0 -0.60947409584E+03 -0.24041721669E+03  0.13311236667E+04  0.14858058199E+04  0.80433866088E+02 0.  0.
        254    2    1    2    0    0  0.60947409584E+03  0.24041721669E+03  0.96130638399E+03  0.14713205068E+04  0.90078574490E+03 0.  0.
         23    2    4    4    0    0  0.32280080539E+03  0.52740600129E+03  0.30864640879E+03  0.69753762101E+03  0.94544576347E+02 0.  0.
         23    2    4    4    0    0  0.28667329045E+03 -0.28698878460E+03  0.65265997520E+03  0.77378288578E+03  0.90723608546E+02 0.  0.
          4    1    3    3  502    0 -0.57170023723E+03 -0.24404636491E+03  0.12395545615E+04  0.13866850041E+04  0.00000000000E+00 0. -1.
         -3    1    3    3    0  502 -0.37773858607E+02  0.36291482168E+01  0.91569105148E+02  0.99120815818E+02  0.00000000000E+00 0.  1.
         13    1    5    5    0    0  0.24338874814E+03  0.41014075984E+03  0.28001639574E+03  0.55304855798E+03  0.00000000000E+00 0.  1.
        -13    1    5    5    0    0  0.79412057255E+02  0.11726524145E+03  0.28630013051E+02  0.14448906304E+03  0.00000000000E+00 0. -1.
          1    1    6    6  503    0  0.13568695051E+03 -0.11510744867E+03  0.36651701588E+03  0.40742532593E+03  0.00000000000E+00 0. -1.
         -1    1    6    6    0  503  0.15098633994E+03 -0.17188133593E+03  0.28614295932E+03  0.36635755985E+03  0.00000000000E+00 0.  1.
<mgrwt>
<rscale>  0 0.18679830E+04</rscale>
<asrwt>0</asrwt>
<pdfrwt beam="1">  1        2 0.40381202E+00 0.18679830E+04</pdfrwt>
<pdfrwt beam="2">  1       -1 0.51130484E-01 0.18679830E+04</pdfrwt>
<totfact> 0.12115154E+01</totfact>
</mgrwt>
</event>
<event>
12    7  0.1857704E-007  0.1022506E+04  0.7818608E-02  0.9284200E-01
          2   -1    0    0  501    0  0.00000000000E+00  0.00000000000E+00  0.28799581421E+04  0.28799581421E+04  0.00000000000E+00 0. -1.
         -3   -1    0    0    0  501 -0.00000000000E+00 -0.00000000000E+00 -0.90758073387E+02  0.90758073387E+02  0.00000000000E+00 0.  1.
         24    2    1    2    0    0  0.35099071272E+02 -0.73965799666E+02  0.29291616012E+03  0.31460238554E+03  0.80448118689E+02 0.  0.
        254    2    1    2    0    0 -0.35099071272E+02  0.73965799666E+02  0.24962839086E+04  0.26561138300E+04  0.90377233917E+03 0.  0.
         23    2    4    4    0    0  0.28970342516E+03  0.24727918500E+03  0.19565933869E+04  0.19955568679E+04  0.94416424846E+02 0.  0.
         23    2    4    4    0    0 -0.32480249643E+03 -0.17331338533E+03  0.53969052169E+03  0.66055696210E+03  0.97649627496E+02 0.  0.
          4    1    3    3  502    0  0.34420481937E+02 -0.59879635648E+02  0.29244683068E+03  0.30049207830E+03  0.00000000000E+00 0. -1.
         -1    1    3    3    0  502  0.67858933445E+00 -0.14086164018E+02  0.46932943537E+00  0.14110307238E+02  0.00000000000E+00 0.  1.
         13    1    5    5    0    0  0.26265513182E+03  0.20116204570E+03  0.17982747718E+04  0.18284545501E+04  0.00000000000E+00 0. -1.
        -13    1    5    5    0    0  0.27048293344E+02  0.46117139300E+02  0.15831861515E+03  0.16710231780E+03  0.00000000000E+00 0.  1.
          1    1    6    6  503    0 -0.18573266020E+03 -0.14216402408E+03  0.38279772870E+03  0.44859929994E+03  0.00000000000E+00 0. -1.
         -1    1    6    6    0  503 -0.13906983623E+03 -0.31149361255E+02  0.15689279299E+03  0.21195766216E+03  0.00000000000E+00 0.  1.
<mgrwt>
<rscale>  0 0.10225057E+04</rscale>
<asrwt>0</asrwt>
<pdfrwt beam="1">  1        2 0.44307041E+00 0.10225057E+04</pdfrwt>
<pdfrwt beam="2">  1       -3 0.13962783E-01 0.10225057E+04</pdfrwt>
<totfact> 0.59698952E+01</totfact>
</mgrwt>
</event>
<event>
12    7  0.1857704E-007  0.1567121E+04  0.7818608E-02  0.8841005E-01
         -1   -1    0    0    0  501 -0.00000000000E+00  0.00000000000E+00  0.72414143515E+03  0.72414143515E+03  0.00000000000E+00 0.  1.
          2   -1    0    0  501    0  0.00000000000E+00 -0.00000000000E+00 -0.84785521299E+03  0.84785521299E+03  0.00000000000E+00 0. -1.
         24    2    1    2    0    0 -0.29682597775E+03 -0.40915607914E+03 -0.16910254600E+03  0.53899518674E+03  0.80036129958E+02 0.  0.
        254    2    1    2    0    0  0.29682597775E+03  0.40915607914E+03  0.45388768163E+02  0.10330014614E+04  0.89973191609E+03 0.  0.
         23    2    4    4    0    0  0.56472290679E+02 -0.22189736481E+03  0.21832711972E+03  0.32955092496E+03  0.92247063963E+02 0.  0.
         23    2    4    4    0    0  0.24035368707E+03  0.63105344396E+03 -0.17293835156E+03  0.70345053645E+03  0.94533802271E+02 0.  0.
          4    1    3    3  502    0 -0.16058525900E+03 -0.27179799266E+03 -0.13110568178E+03  0.34183398605E+03  0.00000000000E+00 0. -1.
         -3    1    3    3    0  502 -0.13624071875E+03 -0.13735808648E+03 -0.37996864215E+02  0.19716120069E+03  0.00000000000E+00 0.  1.
         13    1    5    5    0    0  0.58800217137E+02 -0.12700127049E+03  0.78258150045E+02  0.16034689361E+03  0.00000000000E+00 0. -1.
        -13    1    5    5    0    0 -0.23279264584E+01 -0.94896094328E+02  0.14006896967E+03  0.16920403135E+03  0.00000000000E+00 0.  1.
          1    1    6    6  503    0  0.14500432026E+03  0.48655117239E+03 -0.11193728273E+03  0.51989253843E+03  0.00000000000E+00 0. -1.
         -1    1    6    6    0  503  0.95349366813E+02  0.14450227157E+03 -0.61001068822E+02  0.18355799802E+03  0.00000000000E+00 0.  1.
<mgrwt>
<rscale>  0 0.15671210E+04</rscale>
<asrwt>0</asrwt>
<pdfrwt beam="1">  1        2 0.13043926E+00 0.15671210E+04</pdfrwt>
<pdfrwt beam="2">  1       -1 0.11140637E+00 0.15671210E+04</pdfrwt>
<totfact> 0.25887753E+01</totfact>
</mgrwt>
</event>
<event>
12    7  0.1857704E-007  0.2141224E+04  0.7818608E-02  0.8543298E-01
          2   -1    0    0  501    0  0.00000000000E+00  0.00000000000E+00  0.10952559876E+04  0.10952559876E+04  0.00000000000E+00 0. -1.
         -1   -1    0    0    0  501 -0.00000000000E+00 -0.00000000000E+00 -0.10465226063E+04  0.10465226063E+04  0.00000000000E+00 0.  1.
         24    2    1    2    0    0 -0.73384971110E+03 -0.47500946275E+03  0.39326963297E+02  0.87890812100E+03  0.82240421451E+02 0.  0.
        254    2    1    2    0    0  0.73384971110E+03  0.47500946275E+03  0.94064179553E+01  0.12628704729E+04  0.91136379256E+03 0.  0.
         23    2    4    4    0    0  0.16594767706E+03  0.30711254139E+03  0.40758209453E+03  0.54396845889E+03  0.89004358801E+02 0.  0.
         23    2    4    4    0    0  0.56790203405E+03  0.16789692136E+03 -0.39817567658E+03  0.71890201399E+03  0.87029534199E+02 0.  0.
          2    1    3    3  502    0 -0.22064695495E+03 -0.12937322011E+03  0.47299628277E+02  0.26011490469E+03  0.00000000000E+00 0. -1.
         -1    1    3    3    0  502 -0.51320275616E+03 -0.34563624264E+03 -0.79726649800E+01  0.61879321630E+03  0.00000000000E+00 0.  1.
         13    1    5    5    0    0  0.33192861009E+02  0.61426649050E+02  0.14366044356E+03  0.15972890245E+03  0.00000000000E+00 0. -1.
        -13    1    5    5    0    0  0.13275481605E+03  0.24568589234E+03  0.26392165098E+03  0.38423955644E+03  0.00000000000E+00 0.  1.
          3    1    6    6  503    0  0.10186235113E+02  0.12198479772E+02 -0.26304812854E+02  0.30732807777E+02  0.00000000000E+00 0. -1.
         -3    1    6    6    0  503  0.55771579893E+03  0.15569844159E+03 -0.37187086372E+03  0.68816920621E+03  0.00000000000E+00 0.  1.
<mgrwt>
<rscale>  0 0.21412241E+04</rscale>
<asrwt>0</asrwt>
<pdfrwt beam="1">  1        2 0.16850092E+00 0.21412241E+04</pdfrwt>
<pdfrwt beam="2">  1       -1 0.16100348E+00 0.21412241E+04</pdfrwt>
<totfact> 0.65971050E+00</totfact>
</mgrwt>
</event>
<event>
12    7  0.1857704E-007  0.2493411E+04  0.7818608E-02  0.8405337E-01
         -1   -1    0    0    0  501 -0.00000000000E+00  0.00000000000E+00  0.73837094340E+03  0.73837094340E+03  0.00000000000E+00 0.  1.
          2   -1    0    0  501    0  0.00000000000E+00 -0.00000000000E+00 -0.21050053083E+04  0.21050053083E+04  0.00000000000E+00 0. -1.
         24    2    1    2    0    0  0.16491932124E+02  0.90251311981E+03 -0.12681565441E+04  0.15587469801E+04  0.81665245673E+02 0.  0.
        254    2    1    2    0    0 -0.16491932124E+02 -0.90251311981E+03 -0.98477820854E+02  0.12846292717E+04  0.90872029203E+03 0.  0.
         23    2    4    4    0    0  0.30231586779E+03 -0.38605954068E+03  0.27119354516E+03  0.56774823769E+03  0.91407163793E+02 0.  0.
         23    2    4    4    0    0 -0.31880779991E+03 -0.51645357912E+03 -0.36967136602E+03  0.71688103397E+03  0.94333373387E+02 0.  0.
          2    1    3    3  502    0  0.25918126287E+02  0.83884543222E+03 -0.12059711102E+04  0.14692514173E+04  0.00000000000E+00 0. -1.
         -1    1    3    3    0  502 -0.94261941639E+01  0.63667687592E+02 -0.62185433836E+02  0.89495562801E+02  0.00000000000E+00 0.  1.
         13    1    5    5    0    0  0.15125202959E+03 -0.25687421313E+03  0.18691236520E+03  0.35184907289E+03  0.00000000000E+00 0.  1.
        -13    1    5    5    0    0  0.15106383820E+03 -0.12918532755E+03  0.84281179961E+02  0.21589916480E+03  0.00000000000E+00 0. -1.
          2    1    6    6  503    0 -0.26280754386E+03 -0.42683192975E+03 -0.26035489982E+03  0.56483446710E+03  0.00000000000E+00 0. -1.
         -2    1    6    6    0  503 -0.56000256056E+02 -0.89621649369E+02 -0.10931646619E+03  0.15204656686E+03  0.00000000000E+00 0.  1.
<mgrwt>
<rscale>  0 0.24934111E+04</rscale>
<asrwt>0</asrwt>
<pdfrwt beam="1">  1        2 0.32384697E+00 0.24934111E+04</pdfrwt>
<pdfrwt beam="2">  1       -1 0.11359553E+00 0.24934111E+04</pdfrwt>
<totfact> 0.41897294E+00</totfact>
</mgrwt>
</event>
<event>
12    7  0.1857704E-007  0.2588565E+04  0.7818608E-02  0.8372096E-01
          2   -1    0    0  501    0  0.00000000000E+00  0.00000000000E+00  0.18463511237E+04  0.18463511237E+04  0.00000000000E+00 0. -1.
         -1   -1    0    0    0  501 -0.00000000000E+00 -0.00000000000E+00 -0.90728513418E+03  0.90728513418E+03  0.00000000000E+00 0.  1.
         24    2    1    2    0    0  0.65522020412E+03  0.14749377085E+03 -0.56111318201E+03  0.87792599084E+03  0.69556552821E+02 0.  0.
        254    2    1    2    0    0 -0.65522020412E+03 -0.14749377085E+03  0.15001791715E+04  0.18757102670E+04  0.90370544473E+03 0.  0.
         23    2    4    4    0    0 -0.51352050778E+03  0.61530950776E+02  0.22312126807E+03  0.57076622762E+03  0.92204210914E+02 0.  0.
         23    2    4    4    0    0 -0.14169969634E+03 -0.20902472162E+03  0.12770579034E+04  0.13049440394E+04  0.90729923623E+02 0.  0.
          4    1    3    3  502    0  0.18451400061E+03  0.71824823485E+02 -0.17953609664E+03  0.26727781742E+03  0.00000000000E+00 0. -1.
         -3    1    3    3    0  502  0.47070620351E+03  0.75668947361E+02 -0.38157708537E+03  0.61064817342E+03  0.00000000000E+00 0.  1.
         13    1    5    5    0    0 -0.36514607262E+02  0.15236922159E+02  0.43913279546E+02  0.59108852644E+02  0.00000000000E+00 0. -1.
        -13    1    5    5    0    0 -0.47700590052E+03  0.46294028617E+02  0.17920798852E+03  0.51165737498E+03  0.00000000000E+00 0.  1.
          1    1    6    6  503    0 -0.85491900023E+02 -0.51880067652E+02  0.41492943633E+03  0.42681007898E+03  0.00000000000E+00 0. -1.
         -1    1    6    6    0  503 -0.56207796315E+02 -0.15714465397E+03  0.86212846710E+03  0.87813396041E+03  0.00000000000E+00 0.  1.
<mgrwt>
<rscale>  0 0.25885648E+04</rscale>
<asrwt>0</asrwt>
<pdfrwt beam="1">  1        2 0.28405402E+00 0.25885648E+04</pdfrwt>
<pdfrwt beam="2">  1       -1 0.13958233E+00 0.25885648E+04</pdfrwt>
<totfact> 0.34619427E+00</totfact>
</mgrwt>
</event>
<event>
12    7  0.1857704E-007  0.1666731E+04  0.7818608E-02  0.8780570E-01
         -1   -1    0    0    0  501 -0.00000000000E+00  0.00000000000E+00  0.82431070169E+03  0.82431070169E+03  0.00000000000E+00 0.  1.
          2   -1    0    0  501    0  0.00000000000E+00 -0.00000000000E+00 -0.84251995875E+03  0.84251995875E+03  0.00000000000E+00 0. -1.
         24    2    1    2    0    0 -0.48599142718E+03 -0.22791659820E+03 -0.24135231962E+03  0.59421262205E+03  0.81878293728E+02 0.  0.
        254    2    1    2    0    0  0.48599142718E+03  0.22791659820E+03  0.22314306256E+03  0.10726180384E+04  0.90143385054E+03 0.  0.
         23    2    4    4    0    0 -0.19480913950E+03 -0.13656423492E+03 -0.25787112556E+02  0.25624440164E+03  0.91628746077E+02 0.  0.
         23    2    4    4    0    0  0.68080056668E+03  0.36448083312E+03  0.24893017511E+03  0.81637363676E+03  0.90354819465E+02 0.  0.
          4    1    3    3  502    0 -0.32117197100E+03 -0.18805075885E+03 -0.14696739747E+03  0.40014239813E+03  0.00000000000E+00 0. -1.
         -3    1    3    3    0  502 -0.16481945618E+03 -0.39865839352E+02 -0.94384922145E+02  0.19407022392E+03  0.00000000000E+00 0.  1.
         13    1    5    5    0    0 -0.68205225842E+02 -0.45253195963E+02 -0.53390123269E+02  0.97725686694E+02  0.00000000000E+00 0. -1.
        -13    1    5    5    0    0 -0.12660391366E+03 -0.91311038960E+02  0.27603010713E+02  0.15851871495E+03  0.00000000000E+00 0.  1.
          1    1    6    6  503    0  0.18016432033E+03  0.82072191685E+02  0.10379778658E+03  0.22353748560E+03  0.00000000000E+00 0. -1.
         -1    1    6    6    0  503  0.50063624635E+03  0.28240864144E+03  0.14513238853E+03  0.59283615116E+03  0.00000000000E+00 0.  1.
<mgrwt>
<rscale>  0 0.16667312E+04</rscale>
<asrwt>0</asrwt>
<pdfrwt beam="1">  1        2 0.12961845E+00 0.16667312E+04</pdfrwt>
<pdfrwt beam="2">  1       -1 0.12681703E+00 0.16667312E+04</pdfrwt>
<totfact> 0.18887270E+01</totfact>
</mgrwt>
</event>
<event>
12    7  0.1857704E-007  0.1457432E+04  0.7818608E-02  0.8913264E-01
         -1   -1    0    0    0  501 -0.00000000000E+00  0.00000000000E+00  0.43110921454E+03  0.43110921454E+03  0.00000000000E+00 0.  1.
          2   -1    0    0  501    0  0.00000000000E+00 -0.00000000000E+00 -0.12317695982E+04  0.12317695982E+04  0.00000000000E+00 0. -1.
         24    2    1    2    0    0  0.16039613397E+03 -0.50393728025E+02  0.22105877456E+03  0.28910287204E+03  0.80293469212E+02 0.  0.
        254    2    1    2    0    0 -0.16039613397E+03  0.50393728025E+02 -0.10217191582E+04  0.13737759407E+04  0.90281994294E+03 0.  0.
         23    2    4    4    0    0 -0.28046761248E+03  0.25521326915E+03 -0.10481751927E+04  0.11189070881E+04  0.97395805219E+02 0.  0.
         23    2    4    4    0    0  0.12007147851E+03 -0.20481954113E+03  0.26456034490E+02  0.25486885257E+03  0.88825704996E+02 0.  0.
          4    1    3    3  502    0  0.10498046688E+02 -0.22741292776E+02  0.70658345807E+02  0.74966507278E+02  0.00000000000E+00 0. -1.
         -3    1    3    3    0  502  0.14989808729E+03 -0.27652435249E+02  0.15040042875E+03  0.21413636477E+03  0.00000000000E+00 0.  1.
         13    1    5    5    0    0 -0.88505501709E+02  0.38367619298E+02 -0.18827735595E+03  0.21155061051E+03  0.00000000000E+00 0. -1.
        -13    1    5    5    0    0 -0.19196211078E+03  0.21684564985E+03 -0.85989783676E+03  0.90735647763E+03  0.00000000000E+00 0.  1.
          3    1    6    6  503    0  0.68828066320E+02 -0.37831310381E+02  0.26930649308E+01  0.78586025203E+02  0.00000000000E+00 0. -1.
         -3    1    6    6    0  503  0.51243412190E+02 -0.16698823075E+03  0.23762969560E+02  0.17628282736E+03  0.00000000000E+00 0.  1.
<mgrwt>
<rscale>  0 0.14574323E+04</rscale>
<asrwt>0</asrwt>
<pdfrwt beam="1">  1        2 0.18950301E+00 0.14574323E+04</pdfrwt>
<pdfrwt beam="2">  1       -1 0.66324495E-01 0.14574323E+04</pdfrwt>
<totfact> 0.46162491E+01</totfact>
</mgrwt>
</event>
<event>
12    7  0.1857704E-007  0.3075803E+04  0.7818608E-02  0.8222410E-01
         -1   -1    0    0    0  501 -0.00000000000E+00  0.00000000000E+00  0.90827185149E+03  0.90827185149E+03  0.00000000000E+00 0.  1.
          2   -1    0    0  501    0  0.00000000000E+00 -0.00000000000E+00 -0.26040014264E+04  0.26040014264E+04  0.00000000000E+00 0. -1.
         24    2    1    2    0    0 -0.95855710855E+03 -0.10241223804E+04 -0.69397418563E+03  0.15670693908E+04  0.80298970422E+02 0.  0.
        254    2    1    2    0    0  0.95855710855E+03  0.10241223804E+04 -0.10017553893E+04  0.19452038871E+04  0.90146875820E+03 0.  0.
         23    2    4    4    0    0  0.25233676088E+03  0.88325310600E+03 -0.70390131075E+03  0.11607265982E+04  0.89438751585E+02 0.  0.
         23    2    4    4    0    0  0.70622034767E+03  0.14086927444E+03 -0.29785407850E+03  0.78447728893E+03  0.89979068758E+02 0.  0.
          4    1    3    3  502    0 -0.37309727214E+03 -0.42697672602E+03 -0.24230841213E+03  0.61662311474E+03  0.00000000000E+00 0. -1.
         -3    1    3    3    0  502 -0.58545983642E+03 -0.59714565442E+03 -0.45166577350E+03  0.95044627602E+03  0.00000000000E+00 0.  1.
         13    1    5    5    0    0  0.11499285312E+03  0.49303662780E+03 -0.43354435563E+03  0.66653520606E+03  0.00000000000E+00 0. -1.
        -13    1    5    5    0    0  0.13734390776E+03  0.39021647819E+03 -0.27035695513E+03  0.49419139212E+03  0.00000000000E+00 0.  1.
          2    1    6    6  503    0  0.31001975229E+03  0.80949874285E+02 -0.88673764467E+02  0.33245776492E+03  0.00000000000E+00 0. -1.
         -2    1    6    6    0  503  0.39620059539E+03  0.59919400158E+02 -0.20918031404E+03  0.45201952400E+03  0.00000000000E+00 0.  1.
<mgrwt>
<rscale>  0 0.30758031E+04</rscale>
<asrwt>0</asrwt>
<pdfrwt beam="1">  1        2 0.40061560E+00 0.30758031E+04</pdfrwt>
<pdfrwt beam="2">  1       -1 0.13973413E+00 0.30758031E+04</pdfrwt>
<totfact> 0.12322873E+00</totfact>
</mgrwt>
</event>
<event>
12    7  0.1857704E-007  0.1987258E+04  0.7818608E-02  0.8612601E-01
          2   -1    0    0  501    0  0.00000000000E+00  0.00000000000E+00  0.69037380942E+03  0.69037380942E+03  0.00000000000E+00 0. -1.
         -1   -1    0    0    0  501 -0.00000000000E+00 -0.00000000000E+00 -0.14300933802E+04  0.14300933802E+04  0.00000000000E+00 0.  1.
         24    2    1    2    0    0 -0.20278004469E+03 -0.57455107901E+03 -0.82797553707E+03  0.10312510203E+04  0.81893150059E+02 0.  0.
        254    2    1    2    0    0  0.20278004469E+03  0.57455107901E+03  0.88255966333E+02  0.10892161692E+04  0.89853995951E+03 0.  0.
         23    2    4    4    0    0  0.10945447986E+03  0.14234963314E+03  0.46064211274E+03  0.50390012220E+03  0.97367735426E+02 0.  0.
         23    2    4    4    0    0  0.93325564834E+02  0.43220144586E+03 -0.37238614641E+03  0.58531604705E+03  0.91737026549E+02 0.  0.
          2    1    3    3  502    0 -0.78689434033E+01 -0.17812743943E+02 -0.58745407818E+02  0.61888908996E+02  0.00000000000E+00 0. -1.
         -1    1    3    3    0  502 -0.19491110129E+03 -0.55673833506E+03 -0.76923012926E+03  0.96936211133E+03  0.00000000000E+00 0.  1.
         13    1    5    5    0    0  0.10307594329E+03  0.13441017012E+03  0.46336865191E+03  0.49335712368E+03  0.00000000000E+00 0.  1.
        -13    1    5    5    0    0  0.63785365687E+01  0.79394630251E+01 -0.27265391660E+01  0.10542998516E+02  0.00000000000E+00 0. -1.
          1    1    6    6  503    0 -0.13371915233E+02  0.12871730981E+03 -0.94853890685E+02  0.16045003752E+03  0.00000000000E+00 0. -1.
         -1    1    6    6    0  503  0.10669748007E+03  0.30348413606E+03 -0.27753225572E+03  0.42486600953E+03  0.00000000000E+00 0.  1.
<mgrwt>
<rscale>  0 0.19872584E+04</rscale>
<asrwt>0</asrwt>
<pdfrwt beam="1">  1        2 0.10621136E+00 0.19872584E+04</pdfrwt>
<pdfrwt beam="2">  1       -1 0.22001436E+00 0.19872584E+04</pdfrwt>
<totfact> 0.48703976E+00</totfact>
</mgrwt>
</event>
<event>
12    7  0.1857704E-007  0.2919004E+04  0.7818608E-02  0.8267245E-01
          2   -1    0    0  501    0  0.00000000000E+00  0.00000000000E+00  0.13622750083E+04  0.13622750083E+04  0.00000000000E+00 0. -1.
         -1   -1    0    0    0  501 -0.00000000000E+00 -0.00000000000E+00 -0.15636686730E+04  0.15636686730E+04  0.00000000000E+00 0.  1.
         24    2    1    2    0    0  0.10403263730E+04  0.40157102577E+03  0.61092164612E+03  0.12740649522E+04  0.80485984006E+02 0.  0.
        254    2    1    2    0    0 -0.10403263730E+04 -0.40157102577E+03 -0.81231531081E+03  0.16518787292E+04  0.90846514555E+03 0.  0.
         23    2    4    4    0    0  0.13614760751E+01 -0.28012047307E+03  0.39743271940E+02  0.29757592174E+03  0.92209373082E+02 0.  0.
         23    2    4    4    0    0 -0.10416878491E+04 -0.12145055269E+03 -0.85205858275E+03  0.13543028074E+04  0.90931040717E+02 0.  0.
          2    1    3    3  502    0  0.82300185439E+03  0.28333967540E+03  0.46496487295E+03  0.98681596920E+03  0.00000000000E+00 0. -1.
         -1    1    3    3    0  502  0.21732451859E+03  0.11823135037E+03  0.14595677318E+03  0.28724898298E+03  0.00000000000E+00 0.  1.
         13    1    5    5    0    0 -0.60922610712E+01 -0.65649616726E+02  0.49975584647E+02  0.82731776737E+02  0.00000000000E+00 0. -1.
        -13    1    5    5    0    0  0.74537371462E+01 -0.21447085635E+03 -0.10232312706E+02  0.21484414501E+03  0.00000000000E+00 0.  1.
          1    1    6    6  503    0 -0.84033723061E+03 -0.12358255715E+03 -0.72019368359E+03  0.11136059678E+04  0.00000000000E+00 0. -1.
         -1    1    6    6    0  503 -0.20135061845E+03  0.21320044548E+01 -0.13186489916E+03  0.24069683966E+03  0.00000000000E+00 0.  1.
<mgrwt>
<rscale>  0 0.29190045E+04</rscale>
<asrwt>0</asrwt>
<pdfrwt beam="1">  1        2 0.20958077E+00 0.29190045E+04</pdfrwt>
<pdfrwt beam="2">  1       -1 0.24056441E+00 0.29190045E+04</pdfrwt>
<totfact> 0.12001251E+00</totfact>
</mgrwt>
</event>
<event>
12    7  0.1857704E-007  0.1030066E+04  0.7818608E-02  0.9276170E-01
          2   -1    0    0  501    0  0.00000000000E+00  0.00000000000E+00  0.45991828074E+03  0.45991828074E+03  0.00000000000E+00 0. -1.
         -1   -1    0    0    0  501 -0.00000000000E+00 -0.00000000000E+00 -0.57675276013E+03  0.57675276013E+03  0.00000000000E+00 0.  1.
         24    2    1    2    0    0 -0.25333820204E+02 -0.76457304823E+01  0.60812647797E+02  0.11284567283E+03  0.91300099148E+02 0.  0.
        254    2    1    2    0    0  0.25333820204E+02  0.76457304823E+01 -0.17764712719E+03  0.92382536804E+03  0.90619785323E+03 0.  0.
         23    2    4    4    0    0 -0.29564024789E+03  0.32472044546E+02 -0.41003775626E+03  0.51584937915E+03  0.97529639362E+02 0.  0.
         23    2    4    4    0    0  0.32097406810E+03 -0.24826314064E+02  0.23239062907E+03  0.40797598889E+03  0.93799279157E+02 0.  0.
          2    1    3    3  502    0  0.21657627826E+02  0.27595357634E+02  0.31737450388E+02  0.47305627182E+02  0.00000000000E+00 0. -1.
         -1    1    3    3    0  502 -0.46991448030E+02 -0.35241088116E+02  0.29075197409E+02  0.65540045651E+02  0.00000000000E+00 0.  1.
         13    1    5    5    0    0 -0.79903378071E+02 -0.19649708868E+02 -0.61836940620E+02  0.10292943268E+03  0.00000000000E+00 0.  1.
        -13    1    5    5    0    0 -0.21573686982E+03  0.52121753414E+02 -0.34820081564E+03  0.41291994647E+03  0.00000000000E+00 0. -1.
          1    1    6    6  503    0  0.24252422478E+03 -0.57544543256E+02  0.18707943268E+03  0.31165379542E+03  0.00000000000E+00 0. -1.
         -1    1    6    6    0  503  0.78449843313E+02  0.32718229192E+02  0.45311196394E+02  0.96322193476E+02  0.00000000000E+00 0.  1.
<mgrwt>
<rscale>  0 0.10300663E+04</rscale>
<asrwt>0</asrwt>
<pdfrwt beam="1">  1        2 0.70756659E-01 0.10300663E+04</pdfrwt>
<pdfrwt beam="2">  1       -1 0.88731194E-01 0.10300663E+04</pdfrwt>
<totfact> 0.96463484E+01</totfact>
</mgrwt>
</event>
<event>
12    7  0.1857704E-007  0.1623722E+04  0.7818608E-02  0.8806106E-01
         -1   -1    0    0    0  501 -0.00000000000E+00  0.00000000000E+00  0.60192837688E+03  0.60192837688E+03  0.00000000000E+00 0.  1.
          2   -1    0    0  501    0  0.00000000000E+00 -0.00000000000E+00 -0.10950109779E+04  0.10950109779E+04  0.00000000000E+00 0. -1.
         24    2    1    2    0    0  0.30187494539E+02 -0.24209159679E+03 -0.68833478039E+03  0.73252253803E+03  0.57139065167E+02 0.  0.
        254    2    1    2    0    0 -0.30187494539E+02  0.24209159679E+03  0.19525217940E+03  0.96441681672E+03  0.91239068208E+03 0.  0.
         23    2    4    4    0    0  0.29024190689E+03  0.40641582361E+02  0.41559719138E+03  0.51663195069E+03  0.91079329458E+02 0.  0.
         23    2    4    4    0    0 -0.32042940143E+03  0.20145001443E+03 -0.22034501199E+03  0.44778486603E+03  0.93285863448E+02 0.  0.
          2    1    3    3  502    0  0.39632837826E+02 -0.16271256185E+03 -0.40855154042E+03  0.44154331701E+03  0.00000000000E+00 0. -1.
         -1    1    3    3    0  502 -0.94453432870E+01 -0.79379034939E+02 -0.27978323997E+03  0.29097922102E+03  0.00000000000E+00 0.  1.
         13    1    5    5    0    0  0.24959315524E+03  0.13099082540E+02  0.38422721137E+03  0.45836544270E+03  0.00000000000E+00 0. -1.
        -13    1    5    5    0    0  0.40648751651E+02  0.27542499821E+02  0.31369980018E+02  0.58266507991E+02  0.00000000000E+00 0.  1.
          1    1    6    6  503    0 -0.28463571018E+03  0.14615895581E+03 -0.15703746785E+03  0.35642768436E+03  0.00000000000E+00 0. -1.
         -1    1    6    6    0  503 -0.35793691254E+02  0.55291058623E+02 -0.63307544133E+02  0.91357181663E+02  0.00000000000E+00 0.  1.
<mgrwt>
<rscale>  0 0.16237219E+04</rscale>
<asrwt>0</asrwt>
<pdfrwt beam="1">  1        2 0.16846323E+00 0.16237219E+04</pdfrwt>
<pdfrwt beam="2">  1       -1 0.92604367E-01 0.16237219E+04</pdfrwt>
<totfact> 0.27165319E+01</totfact>
</mgrwt>
</event>
<event>
12    7  0.1857704E-007  0.1749809E+04  0.7818608E-02  0.8733455E-01
          2   -1    0    0  501    0  0.00000000000E+00  0.00000000000E+00  0.20662765010E+04  0.20662765010E+04  0.00000000000E+00 0. -1.
         -1   -1    0    0    0  501 -0.00000000000E+00 -0.00000000000E+00 -0.37045297287E+03  0.37045297287E+03  0.00000000000E+00 0.  1.
         24    2    1    2    0    0  0.48765570737E+03  0.32863476260E+02  0.46926116817E+02  0.49737436691E+03  0.79316476294E+02 0.  0.
        254    2    1    2    0    0 -0.48765570737E+03 -0.32863476260E+02  0.16488974114E+04  0.19393551070E+04  0.89629652508E+03 0.  0.
         23    2    4    4    0    0  0.15926966350E+03 -0.86700527075E+02  0.98797940769E+03  0.10084947860E+04  0.89858868770E+02 0.  0.
         23    2    4    4    0    0 -0.64692537087E+03  0.53837050815E+02  0.66091800368E+03  0.93086032100E+03  0.90980580932E+02 0.  0.
          2    1    3    3  502    0  0.25366160160E+03  0.41408431845E+02  0.55997492116E+02  0.26304863709E+03  0.00000000000E+00 0. -1.
         -1    1    3    3    0  502  0.23399410578E+03 -0.85449555847E+01 -0.90713752988E+01  0.23432572982E+03  0.00000000000E+00 0.  1.
         13    1    5    5    0    0  0.17071118287E+03 -0.85285455825E+02  0.92801666913E+03  0.94743382625E+03  0.00000000000E+00 0.  1.
        -13    1    5    5    0    0 -0.11441519378E+02 -0.14150712504E+01  0.59962738558E+02  0.61060959767E+02  0.00000000000E+00 0. -1.
          1    1    6    6  503    0 -0.17493676957E+03 -0.16455365041E+02  0.21586959930E+03  0.27834032458E+03  0.00000000000E+00 0. -1.
         -1    1    6    6    0  503 -0.47198860130E+03  0.70292415857E+02  0.44504840438E+03  0.65251999641E+03  0.00000000000E+00 0.  1.
<mgrwt>
<rscale>  0 0.17498094E+04</rscale>
<asrwt>0</asrwt>
<pdfrwt beam="1">  1        2 0.31788868E+00 0.17498094E+04</pdfrwt>
<pdfrwt beam="2">  1       -1 0.56992766E-01 0.17498094E+04</pdfrwt>
<totfact> 0.20649602E+01</totfact>
</mgrwt>
</event>
<event>
12    7  0.1857704E-007  0.1163501E+04  0.7818608E-02  0.9145418E-01
         -1   -1    0    0    0  501 -0.00000000000E+00  0.00000000000E+00  0.59270064805E+03  0.59270064805E+03  0.00000000000E+00 0.  1.
          2   -1    0    0  501    0  0.00000000000E+00 -0.00000000000E+00 -0.57100237316E+03  0.57100237316E+03  0.00000000000E+00 0. -1.
         24    2    1    2    0    0 -0.34721531351E+02  0.10712767237E+01 -0.20770165391E+03  0.22572769484E+03  0.81279042871E+02 0.  0.
        254    2    1    2    0    0  0.34721531351E+02 -0.10712767237E+01  0.22939992881E+03  0.93797532637E+03  0.90882707550E+03 0.  0.
         23    2    4    4    0    0  0.11786284810E+03 -0.22253314384E+03  0.49969655358E+03  0.56692696252E+03  0.91087233495E+02 0.  0.
         23    2    4    4    0    0 -0.83141316752E+02  0.22146186712E+03 -0.27029662477E+03  0.37104836384E+03  0.93052596996E+02 0.  0.
          4    1    3    3  502    0 -0.43258261202E+02  0.29607897702E+02 -0.88490685056E+02  0.10285186488E+03  0.00000000000E+00 0. -1.
         -3    1    3    3    0  502  0.85367298509E+01 -0.28536620979E+02 -0.11921096885E+03  0.12287582996E+03  0.00000000000E+00 0.  1.
         13    1    5    5    0    0 -0.15401989754E+02 -0.26298960416E+02  0.52072559183E+02  0.60335793914E+02  0.00000000000E+00 0. -1.
        -13    1    5    5    0    0  0.13326483786E+03 -0.19623418343E+03  0.44762399440E+03  0.50659116861E+03  0.00000000000E+00 0.  1.
          3    1    6    6  503    0 -0.10278082597E+02 -0.17906791225E+01 -0.42912856970E+02  0.44162866833E+02  0.00000000000E+00 0. -1.
         -3    1    6    6    0  503 -0.72863234155E+02  0.22325254624E+03 -0.22738376780E+03  0.32688549701E+03  0.00000000000E+00 0.  1.
<mgrwt>
<rscale>  0 0.11635007E+04</rscale>
<asrwt>0</asrwt>
<pdfrwt beam="1">  1        2 0.87846519E-01 0.11635007E+04</pdfrwt>
<pdfrwt beam="2">  1       -1 0.91184715E-01 0.11635007E+04</pdfrwt>
<totfact> 0.69881198E+01</totfact>
</mgrwt>
</event>
<event>
12    7  0.1857704E-007  0.1255202E+04  0.7818608E-02  0.9065865E-01
          2   -1    0    0  501    0  0.00000000000E+00  0.00000000000E+00  0.41763607747E+03  0.41763607747E+03  0.00000000000E+00 0. -1.
         -1   -1    0    0    0  501 -0.00000000000E+00 -0.00000000000E+00 -0.94312445753E+03  0.94312445753E+03  0.00000000000E+00 0.  1.
         24    2    1    2    0    0 -0.20613461979E+02 -0.22508942742E+03  0.81646015752E+02  0.25282157882E+03  0.78501679471E+02 0.  0.
        254    2    1    2    0    0  0.20613461979E+02  0.22508942742E+03 -0.60713439581E+03  0.11079389562E+04  0.89879162818E+03 0.  0.
         23    2    4    4    0    0 -0.35129495487E+03 -0.11023560038E+03 -0.10651056498E+03  0.39389042299E+03  0.90802709025E+02 0.  0.
         23    2    4    4    0    0  0.37190841685E+03  0.33532502780E+03 -0.50062383083E+03  0.71404853319E+03  0.92099636042E+02 0.  0.
          4    1    3    3  502    0  0.11173347400E+02 -0.10164424962E+03  0.71846875987E+02  0.12497348023E+03  0.00000000000E+00 0. -1.
         -3    1    3    3    0  502 -0.31786809378E+02 -0.12344517780E+03  0.97991397644E+01  0.12784809859E+03  0.00000000000E+00 0.  1.
         13    1    5    5    0    0 -0.22368631567E+03 -0.10196125461E+03 -0.10137476128E+03  0.26591071337E+03  0.00000000000E+00 0.  1.
        -13    1    5    5    0    0 -0.12760863919E+03 -0.82743457718E+01 -0.51358036943E+01  0.12797970962E+03  0.00000000000E+00 0. -1.
          1    1    6    6  503    0  0.26450611841E+03  0.23966362151E+03 -0.41199111925E+03  0.54510441246E+03  0.00000000000E+00 0. -1.
         -1    1    6    6    0  503  0.10740229844E+03  0.95661406291E+02 -0.88632711584E+02  0.16894412072E+03  0.00000000000E+00 0.  1.
<mgrwt>
<rscale>  0 0.12552017E+04</rscale>
<asrwt>0</asrwt>
<pdfrwt beam="1">  1        2 0.64251705E-01 0.12552017E+04</pdfrwt>
<pdfrwt beam="2">  1       -1 0.14509607E+00 0.12552017E+04</pdfrwt>
<totfact> 0.32497571E+01</totfact>
</mgrwt>
</event>
<event>
12    7  0.1857704E-007  0.2471975E+04  0.7818608E-02  0.8413038E-01
          2   -1    0    0  501    0  0.00000000000E+00  0.00000000000E+00  0.22556525441E+04  0.22556525441E+04  0.00000000000E+00 0. -1.
         -1   -1    0    0    0  501 -0.00000000000E+00 -0.00000000000E+00 -0.67726077034E+03  0.67726077034E+03  0.00000000000E+00 0.  1.
         24    2    1    2    0    0 -0.80868451972E+03  0.38586858198E+03  0.13728790910E+04  0.16413537768E+04  0.79874947018E+02 0.  0.
        254    2    1    2    0    0  0.80868451972E+03 -0.38586858198E+03  0.20551268275E+03  0.12915595376E+04  0.90720745227E+03 0.  0.
         23    2    4    4    0    0  0.39986128446E+02 -0.84145718141E+01  0.39712246477E+03  0.40925268884E+03  0.90065619472E+02 0.  0.
         23    2    4    4    0    0  0.76869839127E+03 -0.37745401016E+03 -0.19160978202E+03  0.88230684878E+03  0.91555012490E+02 0.  0.
          4    1    3    3  502    0 -0.76730555292E+03  0.38239048326E+03  0.12943405444E+04  0.15525133617E+04  0.00000000000E+00 0. -1.
         -3    1    3    3    0  502 -0.41378966796E+02  0.34780987167E+01  0.78538546579E+02  0.88840415141E+02  0.00000000000E+00 0.  1.
         13    1    5    5    0    0  0.77326307189E+01  0.87113157121E+01  0.12676157711E+01  0.11716972690E+02  0.00000000000E+00 0.  1.
        -13    1    5    5    0    0  0.32253497727E+02 -0.17125887526E+02  0.39585484900E+03  0.39753571615E+03  0.00000000000E+00 0. -1.
          1    1    6    6  503    0  0.54432595058E+03 -0.25259936251E+03 -0.92968167207E+02  0.60723986903E+03  0.00000000000E+00 0. -1.
         -1    1    6    6    0  503  0.22437244069E+03 -0.12485464765E+03 -0.98641614808E+02  0.27506697976E+03  0.00000000000E+00 0.  1.
<mgrwt>
<rscale>  0 0.24719749E+04</rscale>
<asrwt>0</asrwt>
<pdfrwt beam="1">  1        2 0.34702346E+00 0.24719749E+04</pdfrwt>
<pdfrwt beam="2">  1       -1 0.10419397E+00 0.24719749E+04</pdfrwt>
<totfact> 0.42335881E+00</totfact>
</mgrwt>
</event>
<event>
12    7  0.1857704E-007  0.1483510E+04  0.7818608E-02  0.8895493E-01
          2   -1    0    0  501    0  0.00000000000E+00  0.00000000000E+00  0.19593048989E+04  0.19593048989E+04  0.00000000000E+00 0. -1.
         -1   -1    0    0    0  501 -0.00000000000E+00 -0.00000000000E+00 -0.28081423452E+03  0.28081423452E+03  0.00000000000E+00 0.  1.
         24    2    1    2    0    0 -0.11202208887E+03  0.35842499095E+03  0.12410466748E+03  0.40366631243E+03  0.80790474490E+02 0.  0.
        254    2    1    2    0    0  0.11202208887E+03 -0.35842499095E+03  0.15543859969E+04  0.18364528210E+04  0.90300925456E+03 0.  0.
         23    2    4    4    0    0  0.49222076540E+03 -0.10673207505E+03  0.77070749909E+03  0.92528997639E+03  0.92187165734E+02 0.  0.
         23    2    4    4    0    0 -0.38019867652E+03 -0.25169291590E+03  0.78367849779E+03  0.91116284458E+03  0.90362513760E+02 0.  0.
          2    1    3    3  502    0 -0.83726752149E+02  0.29053061990E+03  0.64892297234E+02  0.30923974577E+03  0.00000000000E+00 0. -1.
         -1    1    3    3    0  502 -0.28295336724E+02  0.67894371047E+02  0.59212370248E+02  0.94426566657E+02  0.00000000000E+00 0.  1.
         13    1    5    5    0    0  0.14712344991E+03 -0.26366519109E+02  0.30935565384E+03  0.34357156955E+03  0.00000000000E+00 0.  1.
        -13    1    5    5    0    0  0.34509731549E+03 -0.80365555941E+02  0.46135184525E+03  0.58171840683E+03  0.00000000000E+00 0. -1.
          3    1    6    6  503    0 -0.15603840869E+03 -0.11003779309E+03  0.41716832949E+03  0.45878722304E+03  0.00000000000E+00 0. -1.
         -3    1    6    6    0  503 -0.22416026784E+03 -0.14165512281E+03  0.36651016830E+03  0.45237562154E+03  0.00000000000E+00 0.  1.
<mgrwt>
<rscale>  0 0.14835103E+04</rscale>
<asrwt>0</asrwt>
<pdfrwt beam="1">  1        2 0.30143151E+00 0.14835103E+04</pdfrwt>
<pdfrwt beam="2">  1       -1 0.43202191E-01 0.14835103E+04</pdfrwt>
<totfact> 0.40997674E+01</totfact>
</mgrwt>
</event>
<event>
12    7  0.1857704E-007  0.1611211E+04  0.7818608E-02  0.8813690E-01
         -1   -1    0    0    0  501 -0.00000000000E+00  0.00000000000E+00  0.32088660662E+03  0.32088660662E+03  0.00000000000E+00 0.  1.
          2   -1    0    0  501    0  0.00000000000E+00 -0.00000000000E+00 -0.20225227687E+04  0.20225227687E+04  0.00000000000E+00 0. -1.
         24    2    1    2    0    0 -0.25551096761E+03 -0.44984949738E+03 -0.85835463511E+03  0.10055139045E+04  0.81456170490E+02 0.  0.
        254    2    1    2    0    0  0.25551096761E+03  0.44984949738E+03 -0.84328152696E+03  0.13378954708E+04  0.90066094187E+03 0.  0.
         23    2    4    4    0    0  0.29723923131E+03 -0.19594723398E+03 -0.42742270369E+03  0.56353459869E+03  0.90192001635E+02 0.  0.
         23    2    4    4    0    0 -0.41728263700E+02  0.64579673136E+03 -0.41585882327E+03  0.77436087211E+03  0.88890568332E+02 0.  0.
          2    1    3    3  502    0 -0.39901323790E+02 -0.95119572527E+02 -0.11804593652E+03  0.15676317120E+03  0.00000000000E+00 0. -1.
         -1    1    3    3    0  502 -0.21560964382E+03 -0.35472992485E+03 -0.74030869860E+03  0.84875073332E+03  0.00000000000E+00 0.  1.
         13    1    5    5    0    0  0.11697235936E+03 -0.89046152030E+02 -0.24480368888E+03  0.28555314065E+03  0.00000000000E+00 0. -1.
        -13    1    5    5    0    0  0.18026687195E+03 -0.10690108195E+03 -0.18261901480E+03  0.27798145804E+03  0.00000000000E+00 0.  1.
          3    1    6    6  503    0  0.11679685315E+02  0.44899809045E+03 -0.27820666095E+03  0.52833194724E+03  0.00000000000E+00 0. -1.
         -3    1    6    6    0  503 -0.53407949015E+02  0.19679864091E+03 -0.13765216233E+03  0.24602892487E+03  0.00000000000E+00 0.  1.
<mgrwt>
<rscale>  0 0.16112113E+04</rscale>
<asrwt>0</asrwt>
<pdfrwt beam="1">  1        2 0.31115734E+00 0.16112113E+04</pdfrwt>
<pdfrwt beam="2">  1       -1 0.49367171E-01 0.16112113E+04</pdfrwt>
<totfact> 0.29138658E+01</totfact>
</mgrwt>
</event>
<event>
12    7  0.1857704E-007  0.2374114E+04  0.7818608E-02  0.8449259E-01
          2   -1    0    0  501    0  0.00000000000E+00  0.00000000000E+00  0.21364742919E+04  0.21364742919E+04  0.00000000000E+00 0. -1.
         -1   -1    0    0    0  501 -0.00000000000E+00 -0.00000000000E+00 -0.65954630664E+03  0.65954630664E+03  0.00000000000E+00 0.  1.
         24    2    1    2    0    0 -0.54778265641E+03 -0.51915739766E+03  0.14299051085E+04  0.16188173653E+04  0.79691911074E+02 0.  0.
        254    2    1    2    0    0  0.54778265641E+03  0.51915739766E+03  0.47022876755E+02  0.11772032332E+04  0.90222284342E+03 0.  0.
         23    2    4    4    0    0  0.24015717203E+03  0.52208568420E+03  0.39377026402E+03  0.70335851198E+03  0.97001271265E+02 0.  0.
         23    2    4    4    0    0  0.30762548438E+03 -0.29282865350E+01 -0.34674738726E+03  0.47384472126E+03  0.98249965853E+02 0.  0.
          2    1    3    3  502    0 -0.39781064179E+03 -0.36005034790E+03  0.94042691056E+03  0.10827244958E+04  0.00000000000E+00 0. -1.
         -1    1    3    3    0  502 -0.14997201462E+03 -0.15910704977E+03  0.48947819798E+03  0.53609286952E+03  0.00000000000E+00 0.  1.
         13    1    5    5    0    0  0.19298248337E+03  0.48708746722E+03  0.35861634150E+03  0.63490323672E+03  0.00000000000E+00 0. -1.
        -13    1    5    5    0    0  0.47174688665E+02  0.34998216980E+02  0.35153922519E+02  0.68455275260E+02  0.00000000000E+00 0.  1.
          3    1    6    6  503    0  0.25713688124E+03  0.17461048958E+02 -0.23172135523E+03  0.34658195336E+03  0.00000000000E+00 0. -1.
         -3    1    6    6    0  503  0.50488603142E+02 -0.20389335493E+02 -0.11502603203E+03  0.12726276790E+03  0.00000000000E+00 0.  1.
<mgrwt>
<rscale>  0 0.23741135E+04</rscale>
<asrwt>0</asrwt>
<pdfrwt beam="1">  1        2 0.32868835E+00 0.23741135E+04</pdfrwt>
<pdfrwt beam="2">  1       -1 0.10146866E+00 0.23741135E+04</pdfrwt>
<totfact> 0.52974090E+00</totfact>
</mgrwt>
</event>
<event>
12    7  0.1857704E-007  0.1818253E+04  0.7818608E-02  0.8696653E-01
          2   -1    0    0  501    0  0.00000000000E+00  0.00000000000E+00  0.10894476576E+04  0.10894476576E+04  0.00000000000E+00 0. -1.
         -1   -1    0    0    0  501 -0.00000000000E+00 -0.00000000000E+00 -0.75865127345E+03  0.75865127345E+03  0.00000000000E+00 0.  1.
         24    2    1    2    0    0  0.20444806260E+03  0.61166157918E+03  0.36107538078E+03  0.74369371892E+03  0.82316579258E+02 0.  0.
        254    2    1    2    0    0 -0.20444806260E+03 -0.61166157918E+03 -0.30278996679E+02  0.11044052121E+04  0.89602743100E+03 0.  0.
         23    2    4    4    0    0  0.11862720763E+03 -0.72251742686E+03  0.58625513087E+02  0.74010295152E+03  0.90617777284E+02 0.  0.
         23    2    4    4    0    0 -0.32307527023E+03  0.11085584769E+03 -0.88904509767E+02  0.36430226056E+03  0.90252290765E+02 0.  0.
          4    1    3    3  502    0  0.19808264513E+03  0.56434118830E+03  0.35511933451E+03  0.69557706464E+03  0.00000000000E+00 0. -1.
         -3    1    3    3    0  502  0.63654174733E+01  0.47320390878E+02  0.59560462724E+01  0.48116654285E+02  0.00000000000E+00 0.  1.
         13    1    5    5    0    0  0.49322788888E+02 -0.25845148785E+03  0.64290314360E+02  0.27085633386E+03  0.00000000000E+00 0.  1.
        -13    1    5    5    0    0  0.69304418747E+02 -0.46406593902E+03 -0.56648012730E+01  0.46924661766E+03  0.00000000000E+00 0. -1.
          2    1    6    6  503    0 -0.22679563728E+02  0.29404939819E+02  0.86504509148E+01  0.38129298416E+02  0.00000000000E+00 0. -1.
         -2    1    6    6    0  503 -0.30039570651E+03  0.81450907868E+02 -0.97554960681E+02  0.32617296214E+03  0.00000000000E+00 0.  1.
<mgrwt>
<rscale>  0 0.18182528E+04</rscale>
<asrwt>0</asrwt>
<pdfrwt beam="1">  1        2 0.16760733E+00 0.18182528E+04</pdfrwt>
<pdfrwt beam="2">  1       -1 0.11671558E+00 0.18182528E+04</pdfrwt>
<totfact> 0.15752612E+01</totfact>
</mgrwt>
</event>
<event>
12    7  0.1857704E-007  0.1101233E+04  0.7818608E-02  0.9203991E-01
         -1   -1    0    0    0  501 -0.00000000000E+00  0.00000000000E+00  0.97285039481E+03  0.97285039481E+03  0.00000000000E+00 0.  1.
          2   -1    0    0  501    0  0.00000000000E+00 -0.00000000000E+00 -0.31163925384E+03  0.31163925384E+03  0.00000000000E+00 0. -1.
         24    2    1    2    0    0  0.12847150007E+03 -0.11683207216E+03  0.91619047396E+02  0.21220977888E+03  0.80525033318E+02 0.  0.
        254    2    1    2    0    0 -0.12847150007E+03  0.11683207216E+03  0.56959209357E+03  0.10722798698E+04  0.89173668011E+03 0.  0.
         23    2    4    4    0    0  0.15872232959E+03 -0.17033053332E+03 -0.11089499333E+03  0.27440214538E+03  0.93774033458E+02 0.  0.
         23    2    4    4    0    0 -0.28719382966E+03  0.28716260548E+03  0.68048708690E+03  0.79787772439E+03  0.92755214763E+02 0.  0.
          4    1    3    3  502    0  0.13448315481E+03 -0.95803180416E+02  0.94342432054E+02  0.19016956326E+03  0.00000000000E+00 0. -1.
         -1    1    3    3    0  502 -0.60116547359E+01 -0.21028891740E+02 -0.27233846579E+01  0.22040215618E+02  0.00000000000E+00 0.  1.
         13    1    5    5    0    0  0.60134598534E+02 -0.24074831073E+02  0.23130827051E+01  0.64816030298E+02  0.00000000000E+00 0. -1.
        -13    1    5    5    0    0  0.98587731054E+02 -0.14625570225E+03 -0.11320807604E+03  0.20958611508E+03  0.00000000000E+00 0.  1.
          3    1    6    6  503    0 -0.14164707526E+03  0.13320508760E+03  0.23835362901E+03  0.30760354640E+03  0.00000000000E+00 0. -1.
         -3    1    6    6    0  503 -0.14554675440E+03  0.15395751788E+03  0.44213345788E+03  0.49027417799E+03  0.00000000000E+00 0.  1.
<mgrwt>
<rscale>  0 0.11012327E+04</rscale>
<asrwt>0</asrwt>
<pdfrwt beam="1">  1        2 0.47944501E-01 0.11012327E+04</pdfrwt>
<pdfrwt beam="2">  1       -1 0.14966929E+00 0.11012327E+04</pdfrwt>
<totfact> 0.42016629E+01</totfact>
</mgrwt>
</event>
<event>
12    7  0.1857704E-007  0.1398695E+04  0.7818608E-02  0.8954764E-01
          2   -1    0    0  501    0  0.00000000000E+00  0.00000000000E+00  0.36310160958E+03  0.36310160958E+03  0.00000000000E+00 0. -1.
         -1   -1    0    0    0  501 -0.00000000000E+00 -0.00000000000E+00 -0.13469691795E+04  0.13469691795E+04  0.00000000000E+00 0.  1.
         24    2    1    2    0    0  0.30197050344E+03 -0.62652640384E+02  0.23459985108E+02  0.31915930187E+03  0.78744846007E+02 0.  0.
        254    2    1    2    0    0 -0.30197050344E+03  0.62652640384E+02 -0.10073275550E+04  0.13909114872E+04  0.90819294418E+03 0.  0.
         23    2    4    4    0    0  0.31227429970E+03  0.55509574889E+02 -0.43410840760E+03  0.54573381926E+03  0.93694934656E+02 0.  0.
         23    2    4    4    0    0 -0.61424480314E+03  0.71430654947E+01 -0.57321914745E+03  0.84517766797E+03  0.91637316974E+02 0.  0.
          4    1    3    3  502    0  0.17657138553E+03 -0.33524073122E+02  0.52400292572E+02  0.18720872930E+03  0.00000000000E+00 0. -1.
         -3    1    3    3    0  502  0.12539911791E+03 -0.29128567262E+02 -0.28940307464E+02  0.13195057257E+03  0.00000000000E+00 0.  1.
         13    1    5    5    0    0  0.86978291412E+02 -0.22394312190E+02 -0.90254398547E+02  0.12732864899E+03  0.00000000000E+00 0. -1.
        -13    1    5    5    0    0  0.22529600829E+03  0.77903887080E+02 -0.34385400905E+03  0.41840517028E+03  0.00000000000E+00 0.  1.
          1    1    6    6  503    0 -0.20250417594E+02 -0.98269679643E+01 -0.44097606358E+02  0.49510075728E+02  0.00000000000E+00 0. -1.
         -1    1    6    6    0  503 -0.59399438555E+03  0.16970033459E+02 -0.52912154109E+03  0.79566759224E+03  0.00000000000E+00 0.  1.
<mgrwt>
<rscale>  0 0.13986946E+04</rscale>
<asrwt>0</asrwt>
<pdfrwt beam="1">  1        2 0.55861786E-01 0.13986946E+04</pdfrwt>
<pdfrwt beam="2">  1       -1 0.20722603E+00 0.13986946E+04</pdfrwt>
<totfact> 0.13265720E+01</totfact>
</mgrwt>
</event>
<event>
12    7  0.1857704E-007  0.1699576E+04  0.7818608E-02  0.8761606E-01
         -1   -1    0    0    0  501 -0.00000000000E+00  0.00000000000E+00  0.31662321654E+03  0.31662321654E+03  0.00000000000E+00 0.  1.
          2   -1    0    0  501    0  0.00000000000E+00 -0.00000000000E+00 -0.22807535294E+04  0.22807535294E+04  0.00000000000E+00 0. -1.
         24    2    1    2    0    0 -0.39846615743E+03 -0.31115315956E+03 -0.99636392418E+03  0.11201621464E+04  0.80191006933E+02 0.  0.
        254    2    1    2    0    0  0.39846615743E+03  0.31115315956E+03 -0.96776638871E+03  0.14772145995E+04  0.99498724747E+03 0.  0.
         23    2    4    4    0    0 -0.72337738517E+02  0.30457630654E+03  0.72131799787E+02  0.33200502506E+03  0.83814468919E+02 0.  0.
         23    2    4    4    0    0  0.47080389595E+03  0.65768530182E+01 -0.10398981885E+04  0.11452095745E+04  0.91745101200E+02 0.  0.
          2    1    3    3  502    0 -0.37933825225E+03 -0.29544206903E+03 -0.97638384342E+03  0.10883514761E+04  0.00000000000E+00 0. -1.
         -1    1    3    3    0  502 -0.19127905184E+02 -0.15711090534E+02 -0.19980080761E+02  0.31810670376E+02  0.00000000000E+00 0.  1.
         13    1    5    5    0    0 -0.61842496221E+02  0.27078817397E+03  0.33748641209E+02  0.27980296690E+03  0.00000000000E+00 0.  1.
        -13    1    5    5    0    0 -0.10495242297E+02  0.33788132575E+02  0.38383158577E+02  0.52202058160E+02  0.00000000000E+00 0. -1.
          3    1    6    6  503    0  0.26718732643E+03  0.34524573916E+02 -0.50866664696E+03  0.57560643789E+03  0.00000000000E+00 0. -1.
         -3    1    6    6    0  503  0.20361656952E+03 -0.27947720898E+02 -0.53123154154E+03  0.56960313659E+03  0.00000000000E+00 0.  1.
<mgrwt>
<rscale>  0 0.16995759E+04</rscale>
<asrwt>0</asrwt>
<pdfrwt beam="1">  1        2 0.35088514E+00 0.16995759E+04</pdfrwt>
<pdfrwt beam="2">  1       -1 0.48711267E-01 0.16995759E+04</pdfrwt>
<totfact> 0.21267610E+01</totfact>
</mgrwt>
</event>
<event>
12    7  0.1857704E-007  0.1667771E+04  0.7818608E-02  0.8779962E-01
          2   -1    0    0  501    0  0.00000000000E+00  0.00000000000E+00  0.23375777122E+04  0.23375777122E+04  0.00000000000E+00 0. -1.
         -1   -1    0    0    0  501 -0.00000000000E+00 -0.00000000000E+00 -0.29747236721E+03  0.29747236721E+03  0.00000000000E+00 0.  1.
         24    2    1    2    0    0  0.36540608088E+03  0.29112383574E+03  0.12756149619E+04  0.13611240964E+04  0.84797305424E+02 0.  0.
        254    2    1    2    0    0 -0.36540608088E+03 -0.29112383574E+03  0.76449038311E+03  0.12739259831E+04  0.90563081483E+03 0.  0.
         23    2    4    4    0    0 -0.41540589715E+02 -0.21989598508E+02 -0.19605135741E+03  0.22114640842E+03  0.90886941737E+02 0.  0.
         23    2    4    4    0    0 -0.32386549116E+03 -0.26913423723E+03  0.96054174052E+03  0.10527795746E+04  0.91554920603E+02 0.  0.
          2    1    3    3  502    0  0.35130487077E+03  0.28956480495E+03  0.11857115162E+04  0.12701081403E+04  0.00000000000E+00 0. -1.
         -1    1    3    3    0  502  0.14101210110E+02  0.15590307891E+01  0.89903445732E+02  0.91015956063E+02  0.00000000000E+00 0.  1.
         13    1    5    5    0    0  0.17457286884E+02  0.10462574894E+02 -0.11007622041E+03  0.11194193422E+03  0.00000000000E+00 0.  1.
        -13    1    5    5    0    0 -0.58997876599E+02 -0.32452173402E+02 -0.85975137002E+02  0.10920447419E+03  0.00000000000E+00 0. -1.
          2    1    6    6  503    0 -0.12068984505E+03 -0.51271046747E+02  0.34081614900E+03  0.36517174911E+03  0.00000000000E+00 0. -1.
         -2    1    6    6    0  503 -0.20317564611E+03 -0.21786319048E+03  0.61972559152E+03  0.68760782553E+03  0.00000000000E+00 0.  1.
<mgrwt>
<rscale>  0 0.16677707E+04</rscale>
<asrwt>0</asrwt>
<pdfrwt beam="1">  1        2 0.35962733E+00 0.16677707E+04</pdfrwt>
<pdfrwt beam="2">  1       -1 0.45764981E-01 0.16677707E+04</pdfrwt>
<totfact> 0.22271975E+01</totfact>
</mgrwt>
</event>
<event>
12    7  0.1857704E-007  0.1221006E+04  0.7818608E-02  0.9094666E-01
         -1   -1    0    0    0  501 -0.00000000000E+00  0.00000000000E+00  0.32127788329E+03  0.32127788329E+03  0.00000000000E+00 0.  1.
          2   -1    0    0  501    0  0.00000000000E+00 -0.00000000000E+00 -0.11600989255E+04  0.11600989255E+04  0.00000000000E+00 0. -1.
         24    2    1    2    0    0  0.62585856711E+02 -0.10174257561E+03  0.10092682332E+03  0.17584687912E+03  0.80419898515E+02 0.  0.
        254    2    1    2    0    0 -0.62585856711E+02  0.10174257561E+03 -0.93974786554E+03  0.13055299297E+04  0.89833947111E+03 0.  0.
         23    2    4    4    0    0 -0.31535922876E+03  0.38006707542E+03 -0.40073525767E+03  0.64218246447E+03  0.88922134205E+02 0.  0.
         23    2    4    4    0    0  0.25277337205E+03 -0.27832449981E+03 -0.53901260787E+03  0.66334746521E+03  0.90201792389E+02 0.  0.
          4    1    3    3  502    0  0.26310550486E+02 -0.59826451394E+02  0.56277298040E+01  0.65598176012E+02  0.00000000000E+00 0. -1.
         -3    1    3    3    0  502  0.36275306225E+02 -0.41916124214E+02  0.95299093517E+02  0.11024870310E+03  0.00000000000E+00 0.  1.
         13    1    5    5    0    0 -0.28010941951E+03  0.36575775744E+03 -0.34898765849E+03  0.57795537008E+03  0.00000000000E+00 0. -1.
        -13    1    5    5    0    0 -0.35249809254E+02  0.14309317981E+02 -0.51747599173E+02  0.64227094389E+02  0.00000000000E+00 0.  1.
          2    1    6    6  503    0  0.47414132917E+02 -0.10126894877E+03 -0.20109752174E+03  0.23009500915E+03  0.00000000000E+00 0. -1.
         -2    1    6    6    0  503  0.20535923913E+03 -0.17705555104E+03 -0.33791508613E+03  0.43325245606E+03  0.00000000000E+00 0.  1.
<mgrwt>
<rscale>  0 0.12210064E+04</rscale>
<asrwt>0</asrwt>
<pdfrwt beam="1">  1        2 0.17847675E+00 0.12210064E+04</pdfrwt>
<pdfrwt beam="2">  1       -1 0.49427368E-01 0.12210064E+04</pdfrwt>
<totfact> 0.92246704E+01</totfact>
</mgrwt>
</event>
<event>
12    7  0.1857704E-007  0.1285081E+04  0.7818608E-02  0.9041480E-01
          2   -1    0    0  501    0  0.00000000000E+00  0.00000000000E+00  0.82043671206E+03  0.82043671206E+03  0.00000000000E+00 0. -1.
         -1   -1    0    0    0  501 -0.00000000000E+00 -0.00000000000E+00 -0.50321778855E+03  0.50321778855E+03  0.00000000000E+00 0.  1.
         24    2    1    2    0    0  0.23224550604E+03 -0.31037897794E+02 -0.14480053670E+03  0.28559824578E+03  0.75484014127E+02 0.  0.
        254    2    1    2    0    0 -0.23224550604E+03  0.31037897794E+02  0.46201946021E+03  0.10380562548E+04  0.89955404530E+03 0.  0.
         23    2    4    4    0    0 -0.26860504893E+03  0.64097735465E+02  0.71130755560E+03  0.76799656591E+03  0.87195725798E+02 0.  0.
         23    2    4    4    0    0  0.36359542888E+02 -0.33059837671E+02 -0.24928809539E+03  0.27005968893E+03  0.91502523759E+02 0.  0.
          2    1    3    3  502    0  0.95385688541E+02 -0.17366939774E+01 -0.18716715961E+02  0.97220168385E+02  0.00000000000E+00 0. -1.
         -1    1    3    3    0  502  0.13685981750E+03 -0.29301203817E+02 -0.12608382074E+03  0.18837807739E+03  0.00000000000E+00 0.  1.
         13    1    5    5    0    0 -0.39409208717E+02  0.34936146539E+02  0.80388730246E+02  0.96103943817E+02  0.00000000000E+00 0. -1.
        -13    1    5    5    0    0 -0.22919584021E+03  0.29161588925E+02  0.63091882535E+03  0.67189262209E+03  0.00000000000E+00 0.  1.
          2    1    6    6  503    0  0.16875696195E+02 -0.38809839922E+02 -0.35300686166E+02  0.55110173658E+02  0.00000000000E+00 0. -1.
         -2    1    6    6    0  503  0.19483846693E+02  0.57500022515E+01 -0.21398740922E+03  0.21494951527E+03  0.00000000000E+00 0.  1.
<mgrwt>
<rscale>  0 0.12850811E+04</rscale>
<asrwt>0</asrwt>
<pdfrwt beam="1">  1        2 0.12622103E+00 0.12850811E+04</pdfrwt>
<pdfrwt beam="2">  1       -1 0.77418122E-01 0.12850811E+04</pdfrwt>
<totfact> 0.62405695E+01</totfact>
</mgrwt>
</event>
<event>
12    7  0.1857704E-007  0.3411468E+04  0.7818608E-02  0.8135097E-01
          2   -1    0    0  501    0  0.00000000000E+00  0.00000000000E+00  0.22448876072E+04  0.22448876072E+04  0.00000000000E+00 0. -1.
         -1   -1    0    0    0  501 -0.00000000000E+00 -0.00000000000E+00 -0.12960688775E+04  0.12960688775E+04  0.00000000000E+00 0.  1.
         24    2    1    2    0    0 -0.10778944697E+04  0.92902793318E+03  0.11680630136E+04  0.18427329023E+04  0.79648961193E+02 0.  0.
        254    2    1    2    0    0  0.10778944697E+04 -0.92902793318E+03 -0.21924428396E+03  0.16982235823E+04  0.90052534176E+03 0.  0.
         23    2    4    4    0    0  0.12185572584E+03  0.16716800881E+03 -0.18242590919E+02  0.22678719109E+03  0.91135486125E+02 0.  0.
         23    2    4    4    0    0  0.95603874385E+03 -0.10961959420E+04 -0.20100169304E+03  0.14714363913E+04  0.95224733801E+02 0.  0.
          2    1    3    3  502    0 -0.91871726150E+03  0.79283633887E+03  0.95828879116E+03  0.15462691467E+04  0.00000000000E+00 0. -1.
         -1    1    3    3    0  502 -0.15917720819E+03  0.13619159430E+03  0.20977422249E+03  0.29646375560E+03  0.00000000000E+00 0.  1.
         13    1    5    5    0    0  0.60389254613E+02  0.39920742772E+02  0.28708884745E+02  0.77876362521E+02  0.00000000000E+00 0. -1.
        -13    1    5    5    0    0  0.61466471226E+02  0.12724726603E+03 -0.46951475664E+02  0.14891082857E+03  0.00000000000E+00 0.  1.
          4    1    6    6  503    0  0.87969641715E+03 -0.98131879354E+03 -0.16020426919E+03  0.13275984968E+04  0.00000000000E+00 0.  1.
         -4    1    6    6    0  503  0.76342326701E+02 -0.11487714845E+03 -0.40797423847E+02  0.14383789443E+03  0.00000000000E+00 0. -1.
<mgrwt>
<rscale>  0 0.34114683E+04</rscale>
<asrwt>0</asrwt>
<pdfrwt beam="1">  1        2 0.34536732E+00 0.34114683E+04</pdfrwt>
<pdfrwt beam="2">  1       -1 0.19939521E+00 0.34114683E+04</pdfrwt>
<totfact> 0.69655624E-01</totfact>
</mgrwt>
</event>
<event>
12    7  0.1857704E-007  0.1618211E+04  0.7818608E-02  0.8809438E-01
         -1   -1    0    0    0  501 -0.00000000000E+00  0.00000000000E+00  0.55876832947E+03  0.55876832947E+03  0.00000000000E+00 0.  1.
          2   -1    0    0  501    0  0.00000000000E+00 -0.00000000000E+00 -0.11715974151E+04  0.11715974151E+04  0.00000000000E+00 0. -1.
         24    2    1    2    0    0  0.38653404617E+03  0.19401741182E+03  0.42711355806E+02  0.44137308055E+03  0.77036428956E+02 0.  0.
        254    2    1    2    0    0 -0.38653404617E+03 -0.19401741182E+03 -0.65554044138E+03  0.12889926640E+04  0.10221142268E+04 0.  0.
         23    2    4    4    0    0  0.16179431340E+03 -0.35434912231E+03 -0.58191711112E+03  0.70608658346E+03  0.90498833138E+02 0.  0.
         23    2    4    4    0    0 -0.54832835957E+03  0.16033171049E+03 -0.73623330263E+02  0.58290608051E+03  0.89380404086E+02 0.  0.
          2    1    3    3  502    0  0.41956018138E+02  0.35869717602E+02  0.28135903092E+02  0.61956219556E+02  0.00000000000E+00 0. -1.
         -1    1    3    3    0  502  0.34457802803E+03  0.15814769422E+03  0.14575452713E+02  0.37941686100E+03  0.00000000000E+00 0.  1.
         13    1    5    5    0    0  0.15080038775E+03 -0.34323633190E+03 -0.51283050392E+03  0.63525354169E+03  0.00000000000E+00 0. -1.
        -13    1    5    5    0    0  0.10993925657E+02 -0.11112790411E+02 -0.69086607202E+02  0.70833041773E+02  0.00000000000E+00 0.  1.
          3    1    6    6  503    0 -0.50118531997E+03  0.16181076601E+03 -0.87190513500E+02  0.53382734530E+03  0.00000000000E+00 0. -1.
         -3    1    6    6    0  503 -0.47143039603E+02 -0.14790555216E+01  0.13567183237E+02  0.49078735204E+02  0.00000000000E+00 0.  1.
<mgrwt>
<rscale>  0 0.16182108E+04</rscale>
<asrwt>0</asrwt>
<pdfrwt beam="1">  1        2 0.18024575E+00 0.16182108E+04</pdfrwt>
<pdfrwt beam="2">  1       -1 0.85964359E-01 0.16182108E+04</pdfrwt>
<totfact> 0.28742669E+01</totfact>
</mgrwt>
</event>
<event>
12    7  0.1857704E-007  0.1525806E+04  0.7818608E-02  0.8867471E-01
          2   -1    0    0  501    0  0.00000000000E+00  0.00000000000E+00  0.27040926296E+04  0.27040926296E+04  0.00000000000E+00 0. -1.
         -1   -1    0    0    0  501 -0.00000000000E+00 -0.00000000000E+00 -0.21523712977E+03  0.21523712977E+03  0.00000000000E+00 0.  1.
         24    2    1    2    0    0  0.90498103254E+02  0.17613454165E+02 -0.11493919791E+03  0.16748973404E+03  0.79634485824E+02 0.  0.
        254    2    1    2    0    0 -0.90498103254E+02 -0.17613454165E+02  0.26037946978E+04  0.27518400254E+04  0.88565035797E+03 0.  0.
         23    2    4    4    0    0 -0.21254781731E+03  0.16075916492E+03  0.22246414471E+03  0.35885684958E+03  0.90927768378E+02 0.  0.
         23    2    4    4    0    0  0.12204971405E+03 -0.17837261909E+03  0.23813305531E+04  0.23929831758E+04  0.94447618714E+02 0.  0.
          4    1    3    3  502    0  0.25741169616E+01  0.30202583223E+01  0.11856782499E+02  0.12503252764E+02  0.00000000000E+00 0. -1.
         -3    1    3    3    0  502  0.87923986292E+02  0.14593195843E+02 -0.12679598041E+03  0.15498648128E+03  0.00000000000E+00 0.  1.
         13    1    5    5    0    0 -0.10622846142E+03  0.13545915532E+03  0.13036569424E+03  0.21593722007E+03  0.00000000000E+00 0.  1.
        -13    1    5    5    0    0 -0.10631935589E+03  0.25300009605E+02  0.92098450472E+02  0.14291962952E+03  0.00000000000E+00 0. -1.
          4    1    6    6  503    0  0.48283458574E+02 -0.14831587167E+03  0.16261035512E+04  0.16335671549E+04  0.00000000000E+00 0. -1.
         -4    1    6    6    0  503  0.73766255480E+02 -0.30056747418E+02  0.75522700185E+03  0.75941602092E+03  0.00000000000E+00 0.  1.
<mgrwt>
<rscale>  0 0.15258062E+04</rscale>
<asrwt>0</asrwt>
<pdfrwt beam="1">  1        2 0.41601423E+00 0.15258062E+04</pdfrwt>
<pdfrwt beam="2">  1       -1 0.33113406E-01 0.15258062E+04</pdfrwt>
<totfact> 0.24948308E+01</totfact>
</mgrwt>
</event>
<event>
12    7  0.1857704E-007  0.3736207E+04  0.7818608E-02  0.8059985E-01
          2   -1    0    0  501    0  0.00000000000E+00  0.00000000000E+00  0.30499961184E+04  0.30499961184E+04  0.00000000000E+00 0. -1.
         -1   -1    0    0    0  501 -0.00000000000E+00 -0.00000000000E+00 -0.11442019157E+04  0.11442019157E+04  0.00000000000E+00 0.  1.
         24    2    1    2    0    0  0.22409904307E+03 -0.86540451686E+03  0.25565083249E+04  0.27094887836E+04  0.80307500036E+02 0.  0.
        254    2    1    2    0    0 -0.22409904307E+03  0.86540451686E+03 -0.65071412220E+03  0.14847092504E+04  0.99085182072E+03 0.  0.
         23    2    4    4    0    0 -0.33303012628E+03  0.64724814470E+03  0.51802007901E+02  0.73543565805E+03  0.91339658873E+02 0.  0.
         23    2    4    4    0    0  0.10893108320E+03  0.21815637215E+03 -0.70251613010E+03  0.74927359239E+03  0.91781368517E+02 0.  0.
          4    1    3    3  502    0  0.19539317955E+03 -0.64758753217E+03  0.19933773403E+04  0.21050181299E+04  0.00000000000E+00 0. -1.
         -3    1    3    3    0  502  0.28705863523E+02 -0.21781698469E+03  0.56313098458E+03  0.60447065373E+03  0.00000000000E+00 0.  1.
         13    1    5    5    0    0 -0.32699971885E+01  0.12076621812E+02 -0.11469969946E+02  0.16973446514E+02  0.00000000000E+00 0.  1.
        -13    1    5    5    0    0 -0.32976012909E+03  0.63517152289E+03  0.63271977847E+02  0.71846221154E+03  0.00000000000E+00 0. -1.
          3    1    6    6  503    0  0.11191018366E+03  0.12833825215E+03 -0.47914686720E+03  0.50850399853E+03  0.00000000000E+00 0. -1.
         -3    1    6    6    0  503 -0.29791004616E+01  0.89818120003E+02 -0.22336926290E+03  0.24076959386E+03  0.00000000000E+00 0.  1.
<mgrwt>
<rscale>  0 0.37362074E+04</rscale>
<asrwt>0</asrwt>
<pdfrwt beam="1">  1        2 0.46923017E+00 0.37362074E+04</pdfrwt>
<pdfrwt beam="2">  1       -1 0.17603106E+00 0.37362074E+04</pdfrwt>
<totfact> 0.32922844E-01</totfact>
</mgrwt>
</event>
<event>
12    7  0.1857704E-007  0.1955787E+04  0.7818608E-02  0.8627575E-01
         -1   -1    0    0    0  501 -0.00000000000E+00  0.00000000000E+00  0.98570016223E+03  0.98570016223E+03  0.00000000000E+00 0.  1.
          2   -1    0    0  501    0  0.00000000000E+00 -0.00000000000E+00 -0.97014825984E+03  0.97014825984E+03  0.00000000000E+00 0. -1.
         24    2    1    2    0    0 -0.49602840633E+03  0.20768069988E+02  0.59730406130E+03  0.78070309202E+03  0.79054940546E+02 0.  0.
        254    2    1    2    0    0  0.49602840633E+03 -0.20768069988E+02 -0.58175215890E+03  0.11751453301E+04  0.89221941233E+03 0.  0.
         23    2    4    4    0    0  0.27464017812E+03 -0.44487038212E+03 -0.35427642530E+03  0.63705815607E+03  0.83632675202E+02 0.  0.
         23    2    4    4    0    0  0.22138822822E+03  0.42410231213E+03 -0.22747573359E+03  0.53808717398E+03  0.94430284765E+02 0.  0.
          2    1    3    3  502    0 -0.29664141942E+03  0.39721461161E+02  0.39982726808E+03  0.49943545178E+03  0.00000000000E+00 0. -1.
         -3    1    3    3    0  502 -0.19938698691E+03 -0.18953391173E+02  0.19747679321E+03  0.28126764024E+03  0.00000000000E+00 0.  1.
         13    1    5    5    0    0  0.22094949401E+03 -0.28372564705E+03 -0.24054146966E+03  0.43264202330E+03  0.00000000000E+00 0. -1.
        -13    1    5    5    0    0  0.53690684108E+02 -0.16114473507E+03 -0.11373495565E+03  0.20441613277E+03  0.00000000000E+00 0.  1.
          1    1    6    6  503    0  0.21702394051E+03  0.38788347897E+03 -0.23191751731E+03  0.50133693146E+03  0.00000000000E+00 0. -1.
         -1    1    6    6    0  503  0.43642877097E+01  0.36218833160E+02  0.44417837154E+01  0.36750242520E+02  0.00000000000E+00 0.  1.
<mgrwt>
<rscale>  0 0.19557866E+04</rscale>
<asrwt>0</asrwt>
<pdfrwt beam="1">  1        2 0.14925358E+00 0.19557866E+04</pdfrwt>
<pdfrwt beam="2">  1       -1 0.15164618E+00 0.19557866E+04</pdfrwt>
<totfact> 0.94898020E+00</totfact>
</mgrwt>
</event>
<event>
12    7  0.1857704E-007  0.2198590E+04  0.7818608E-02  0.8519015E-01
          2   -1    0    0  501    0  0.00000000000E+00  0.00000000000E+00  0.96659827427E+03  0.96659827427E+03  0.00000000000E+00 0. -1.
         -1   -1    0    0    0  501 -0.00000000000E+00 -0.00000000000E+00 -0.12502082515E+04  0.12502082515E+04  0.00000000000E+00 0.  1.
         24    2    1    2    0    0  0.45218162057E+03 -0.11404040732E+03  0.67185198262E+03  0.82170399904E+03  0.79617479309E+02 0.  0.
        254    2    1    2    0    0 -0.45218162057E+03  0.11404040732E+03 -0.95546195981E+03  0.13951025267E+04  0.90328847599E+03 0.  0.
         23    2    4    4    0    0 -0.38601291693E+03  0.45228897078E+03 -0.81287226164E+03  0.10111999734E+04  0.90514017065E+02 0.  0.
         23    2    4    4    0    0 -0.66168703633E+02 -0.33824856346E+03 -0.14258969817E+03  0.38390255331E+03  0.90878822567E+02 0.  0.
          2    1    3    3  502    0  0.26094420933E+03 -0.10601721399E+03  0.39595038308E+03  0.48590969933E+03  0.00000000000E+00 0. -1.
         -1    1    3    3    0  502  0.19123741124E+03 -0.80231933258E+01  0.27590159954E+03  0.33579429971E+03  0.00000000000E+00 0.  1.
         13    1    5    5    0    0 -0.31408737708E+03  0.31392588712E+03 -0.63151543880E+03  0.77201819440E+03  0.00000000000E+00 0.  1.
        -13    1    5    5    0    0 -0.71925539858E+02  0.13836308366E+03 -0.18135682285E+03  0.23918177898E+03  0.00000000000E+00 0. -1.
          1    1    6    6  503    0 -0.31554259693E+02 -0.30594560327E+03 -0.13524426796E+03  0.33599017170E+03  0.00000000000E+00 0.  1.
         -1    1    6    6    0  503 -0.34614443940E+02 -0.32302960191E+02 -0.73454302077E+01  0.47912381607E+02  0.00000000000E+00 0. -1.
<mgrwt>
<rscale>  0 0.21985897E+04</rscale>
<asrwt>0</asrwt>
<pdfrwt beam="1">  1        2 0.14870743E+00 0.21985897E+04</pdfrwt>
<pdfrwt beam="2">  1       -1 0.19233973E+00 0.21985897E+04</pdfrwt>
<totfact> 0.46968865E+00</totfact>
</mgrwt>
</event>
<event>
12    7  0.1857704E-007  0.1316108E+04  0.7818608E-02  0.9016888E-01
          2   -1    0    0  501    0  0.00000000000E+00  0.00000000000E+00  0.15597288198E+04  0.15597288198E+04  0.00000000000E+00 0. -1.
         -1   -1    0    0    0  501 -0.00000000000E+00 -0.00000000000E+00 -0.27763467183E+03  0.27763467183E+03  0.00000000000E+00 0.  1.
         24    2    1    2    0    0  0.56989440676E+02 -0.20285808451E+03 -0.31395583110E+02  0.22729281288E+03  0.79228412517E+02 0.  0.
        254    2    1    2    0    0 -0.56989440676E+02  0.20285808451E+03  0.13134897311E+04  0.16100706788E+04  0.90701329545E+03 0.  0.
         23    2    4    4    0    0 -0.34822069739E+03  0.30251533672E+02  0.14275414001E+03  0.38841630154E+03  0.91190292424E+02 0.  0.
         23    2    4    4    0    0  0.29123125672E+03  0.17260655084E+03  0.11707355911E+04  0.12216543772E+04  0.84905399542E+02 0.  0.
          2    1    3    3  502    0  0.19398115336E+02 -0.12896342398E+03  0.16646551922E+02  0.13147227576E+03  0.00000000000E+00 0. -1.
         -1    1    3    3    0  502  0.37591325340E+02 -0.73894660529E+02 -0.48042135032E+02  0.95820537120E+02  0.00000000000E+00 0.  1.
         13    1    5    5    0    0 -0.18422609324E+03 -0.22423118309E+02  0.47424195365E+02  0.19154922076E+03  0.00000000000E+00 0.  1.
        -13    1    5    5    0    0 -0.16399460415E+03  0.52674651980E+02  0.95329944649E+02  0.19686708079E+03  0.00000000000E+00 0. -1.
          1    1    6    6  503    0  0.28291008591E+03  0.14841585996E+03  0.10231522622E+04  0.10718702981E+04  0.00000000000E+00 0. -1.
         -1    1    6    6    0  503  0.83211708050E+01  0.24190690880E+02  0.14758332885E+03  0.14978407914E+03  0.00000000000E+00 0.  1.
<mgrwt>
<rscale>  0 0.13161076E+04</rscale>
<asrwt>0</asrwt>
<pdfrwt beam="1">  1        2 0.23995828E+00 0.13161076E+04</pdfrwt>
<pdfrwt beam="2">  1       -1 0.42713027E-01 0.13161076E+04</pdfrwt>
<totfact> 0.70708975E+01</totfact>
</mgrwt>
</event>
<event>
12    7  0.1857704E-007  0.1203990E+04  0.7818608E-02  0.9109371E-01
          2   -1    0    0  501    0  0.00000000000E+00  0.00000000000E+00  0.30849072091E+04  0.30849072091E+04  0.00000000000E+00 0. -1.
         -1   -1    0    0    0  501 -0.00000000000E+00 -0.00000000000E+00 -0.11747450998E+03  0.11747450998E+03  0.00000000000E+00 0.  1.
         24    2    1    2    0    0  0.85519882099E+02 -0.23385738507E+03  0.82938197436E+03  0.86956122132E+03  0.79115936795E+02 0.  0.
        254    2    1    2    0    0 -0.85519882099E+02  0.23385738507E+03  0.21380507247E+04  0.23328204977E+04  0.89932621793E+03 0.  0.
         23    2    4    4    0    0  0.29481681615E+03 -0.18017834095E+03  0.69533486763E+03  0.78183312768E+03  0.91603885071E+02 0.  0.
         23    2    4    4    0    0 -0.38033669825E+03  0.41403572602E+03  0.14427158571E+04  0.15509873701E+04  0.89728430448E+02 0.  0.
          4    1    3    3  502    0  0.35360939784E+02 -0.18848484768E+03  0.56473075064E+03  0.59640401959E+03  0.00000000000E+00 0. -1.
         -3    1    3    3    0  502  0.50158942315E+02 -0.45372537400E+02  0.26465122371E+03  0.27315720173E+03  0.00000000000E+00 0.  1.
         13    1    5    5    0    0  0.13861238810E+02  0.98886042973E+01  0.49345085958E+02  0.52200152725E+02  0.00000000000E+00 0.  1.
        -13    1    5    5    0    0  0.28095557734E+03 -0.19006694525E+03  0.64598978167E+03  0.72963297496E+03  0.00000000000E+00 0. -1.
          3    1    6    6  503    0 -0.28246240996E+03  0.35001018805E+03  0.10810331420E+04  0.11708649789E+04  0.00000000000E+00 0. -1.
         -3    1    6    6    0  503 -0.97874288287E+02  0.64025537976E+02  0.36168271510E+03  0.38012239111E+03  0.00000000000E+00 0.  1.
<mgrwt>
<rscale>  0 0.12039900E+04</rscale>
<asrwt>0</asrwt>
<pdfrwt beam="1">  1        2 0.47460105E+00 0.12039900E+04</pdfrwt>
<pdfrwt beam="2">  1       -1 0.18073004E-01 0.12039900E+04</pdfrwt>
<totfact> 0.42548582E+01</totfact>
</mgrwt>
</event>
<event>
12    7  0.1857704E-007  0.1312936E+04  0.7818608E-02  0.9019369E-01
          2   -1    0    0  501    0  0.00000000000E+00  0.00000000000E+00  0.29809722322E+03  0.29809722322E+03  0.00000000000E+00 0. -1.
         -1   -1    0    0    0  501 -0.00000000000E+00 -0.00000000000E+00 -0.14456707999E+04  0.14456707999E+04  0.00000000000E+00 0.  1.
         24    2    1    2    0    0  0.69731199307E+02  0.25130212021E+03 -0.62046476208E+03  0.67700584585E+03  0.73110864777E+02 0.  0.
        254    2    1    2    0    0 -0.69731199307E+02 -0.25130212021E+03 -0.52710881456E+03  0.10667621772E+04  0.89001272159E+03 0.  0.
         23    2    4    4    0    0  0.28379943500E+03 -0.42695851590E+03 -0.29436303715E+03  0.59801332342E+03  0.90192259864E+02 0.  0.
         23    2    4    4    0    0 -0.35353063431E+03  0.17565639570E+03 -0.23274577741E+03  0.46874885381E+03  0.98568820129E+02 0.  0.
          4    1    3    3  502    0  0.31684431792E+02  0.24347072440E+02 -0.74868559139E+02  0.84864505549E+02  0.00000000000E+00 0. -1.
         -3    1    3    3    0  502  0.38046767515E+02  0.22695504777E+03 -0.54559620294E+03  0.59214134030E+03  0.00000000000E+00 0.  1.
         13    1    5    5    0    0  0.31437324530E+01 -0.48993478333E+02 -0.37089992525E+02  0.61529761241E+02  0.00000000000E+00 0. -1.
        -13    1    5    5    0    0  0.28065570255E+03 -0.37796503757E+03 -0.25727304462E+03  0.53648356218E+03  0.00000000000E+00 0.  1.
          3    1    6    6  503    0 -0.22916715512E+02  0.60148472966E+01  0.91029883487E+01  0.25381462423E+02  0.00000000000E+00 0. -1.
         -3    1    6    6    0  503 -0.33061391879E+03  0.16964154840E+03 -0.24184876576E+03  0.44336739138E+03  0.00000000000E+00 0.  1.
<mgrwt>
<rscale>  0 0.13129363E+04</rscale>
<asrwt>0</asrwt>
<pdfrwt beam="1">  1        2 0.45861111E-01 0.13129363E+04</pdfrwt>
<pdfrwt beam="2">  1       -1 0.22241089E+00 0.13129363E+04</pdfrwt>
<totfact> 0.13159777E+01</totfact>
</mgrwt>
</event>
<event>
12    7  0.1857704E-007  0.1921652E+04  0.7818608E-02  0.8644153E-01
         -1   -1    0    0    0  501 -0.00000000000E+00  0.00000000000E+00  0.47301766729E+03  0.47301766729E+03  0.00000000000E+00 0.  1.
          2   -1    0    0  501    0  0.00000000000E+00 -0.00000000000E+00 -0.19516961635E+04  0.19516961635E+04  0.00000000000E+00 0. -1.
         24    2    1    2    0    0 -0.27102156551E+03  0.69367053241E+03 -0.68974330198E+03  0.10182165578E+04  0.79922709474E+02 0.  0.
        254    2    1    2    0    0  0.27102156551E+03 -0.69367053241E+03 -0.78893519420E+03  0.14064972729E+04  0.89508901325E+03 0.  0.
         23    2    4    4    0    0  0.23852859751E+03  0.13016163335E+03 -0.40341567960E+02  0.28939842507E+03  0.91027818290E+02 0.  0.
         23    2    4    4    0    0  0.32492967998E+02 -0.82383216576E+03 -0.74859362624E+03  0.11170988479E+04  0.88103282374E+02 0.  0.
          2    1    3    3  502    0 -0.24067162555E+03  0.61474602228E+03 -0.57364127831E+03  0.87458551293E+03  0.00000000000E+00 0. -1.
         -1    1    3    3    0  502 -0.30349939961E+02  0.78924510129E+02 -0.11610202367E+03  0.14363104489E+03  0.00000000000E+00 0.  1.
         13    1    5    5    0    0  0.11152576338E+03  0.38485521130E+02  0.23424052380E+02  0.12028224085E+03  0.00000000000E+00 0.  1.
        -13    1    5    5    0    0  0.12700283413E+03  0.91676112216E+02 -0.63765620340E+02  0.16911618422E+03  0.00000000000E+00 0. -1.
          2    1    6    6  503    0  0.22188891797E+02 -0.75075519972E+03 -0.71116337357E+03  0.10343495834E+04  0.00000000000E+00 0. -1.
         -2    1    6    6    0  503  0.10304076200E+02 -0.73076966035E+02 -0.37430252670E+02  0.82749264445E+02  0.00000000000E+00 0.  1.
<mgrwt>
<rscale>  0 0.19216522E+04</rscale>
<asrwt>0</asrwt>
<pdfrwt beam="1">  1        2 0.30026095E+00 0.19216522E+04</pdfrwt>
<pdfrwt beam="2">  1       -1 0.72771949E-01 0.19216522E+04</pdfrwt>
<totfact> 0.14406912E+01</totfact>
</mgrwt>
</event>
<event>
12    7  0.1857704E-007  0.1196275E+04  0.7818608E-02  0.9116123E-01
         -1   -1    0    0    0  501 -0.00000000000E+00  0.00000000000E+00  0.26979696978E+03  0.26979696978E+03  0.00000000000E+00 0.  1.
          2   -1    0    0  501    0  0.00000000000E+00 -0.00000000000E+00 -0.13260663323E+04  0.13260663323E+04  0.00000000000E+00 0. -1.
         24    2    1    2    0    0 -0.33960255002E+02 -0.19783808852E+03 -0.50639066505E+03  0.55061595446E+03  0.80331908138E+02 0.  0.
        254    2    1    2    0    0  0.33960255002E+02  0.19783808852E+03 -0.54987869749E+03  0.10452473476E+04  0.86595740519E+03 0.  0.
         23    2    4    4    0    0 -0.71146615776E+02  0.12435269457E+03  0.20946212436E+03  0.26985972710E+03  0.91784841810E+02 0.  0.
         23    2    4    4    0    0  0.10510687078E+03  0.73485393949E+02 -0.75934082185E+03  0.77538762054E+03  0.90442915416E+02 0.  0.
          2    1    3    3  502    0 -0.15710786185E+02 -0.19730930742E+03 -0.46558203208E+03  0.50590949803E+03  0.00000000000E+00 0. -1.
         -1    1    3    3    0  502 -0.18249468817E+02 -0.52878109106E+00 -0.40808632966E+02  0.44706456425E+02  0.00000000000E+00 0.  1.
         13    1    5    5    0    0 -0.70246807095E+02  0.53974734157E+02  0.16301718702E+03  0.18553298655E+03  0.00000000000E+00 0.  1.
        -13    1    5    5    0    0 -0.89980868162E+00  0.70377960410E+02  0.46444937341E+02  0.84326740549E+02  0.00000000000E+00 0. -1.
          1    1    6    6  503    0  0.46434087738E+02  0.13479776620E+02 -0.51031754185E+03  0.51260298712E+03  0.00000000000E+00 0. -1.
         -1    1    6    6    0  503  0.58672783040E+02  0.60005617329E+02 -0.24902328000E+03  0.26278463342E+03  0.00000000000E+00 0.  1.
<mgrwt>
<rscale>  0 0.11962753E+04</rscale>
<asrwt>0</asrwt>
<pdfrwt beam="1">  1        2 0.20401021E+00 0.11962753E+04</pdfrwt>
<pdfrwt beam="2">  1       -1 0.41507225E-01 0.11962753E+04</pdfrwt>
<totfact> 0.10212518E+02</totfact>
</mgrwt>
</event>
<event>
12    7  0.1857704E-007  0.1262660E+04  0.7818608E-02  0.9059712E-01
          2   -1    0    0  501    0  0.00000000000E+00  0.00000000000E+00  0.48464634258E+03  0.48464634258E+03  0.00000000000E+00 0. -1.
         -1   -1    0    0    0  501 -0.00000000000E+00 -0.00000000000E+00 -0.82240928056E+03  0.82240928056E+03  0.00000000000E+00 0.  1.
         24    2    1    2    0    0 -0.81666404532E+02 -0.26653444528E+03 -0.20487983341E+03  0.35531312519E+03  0.81004065634E+02 0.  0.
        254    2    1    2    0    0  0.81666404532E+02  0.26653444528E+03 -0.13288310458E+03  0.95174249794E+03  0.90024766079E+03 0.  0.
         23    2    4    4    0    0 -0.15046652633E+03  0.50783263297E+03 -0.23982752478E+03  0.58849674633E+03  0.90978130037E+02 0.  0.
         23    2    4    4    0    0  0.23213293086E+03 -0.24129818769E+03  0.10694442021E+03  0.36324575161E+03  0.91650717809E+02 0.  0.
          4    1    3    3  502    0 -0.44607372185E+02 -0.89391120975E+02 -0.11784953472E+03  0.15449628797E+03  0.00000000000E+00 0. -1.
         -3    1    3    3    0  502 -0.37059032346E+02 -0.17714332430E+03 -0.87030298688E+02  0.20081683723E+03  0.00000000000E+00 0.  1.
         13    1    5    5    0    0 -0.34424378736E+01  0.14793472349E+03 -0.53157092328E+02  0.15723297764E+03  0.00000000000E+00 0.  1.
        -13    1    5    5    0    0 -0.14702408846E+03  0.35989790948E+03 -0.18667043245E+03  0.43126376869E+03  0.00000000000E+00 0. -1.
          4    1    6    6  503    0  0.16433596381E+03 -0.11307554180E+03  0.83801882461E+02  0.21636807218E+03  0.00000000000E+00 0. -1.
         -4    1    6    6    0  503  0.67796967049E+02 -0.12822264589E+03  0.23142537745E+02  0.14687767943E+03  0.00000000000E+00 0.  1.
<mgrwt>
<rscale>  0 0.12626601E+04</rscale>
<asrwt>0</asrwt>
<pdfrwt beam="1">  1        2 0.74560976E-01 0.12626601E+04</pdfrwt>
<pdfrwt beam="2">  1       -1 0.12652450E+00 0.12626601E+04</pdfrwt>
<totfact> 0.38974208E+01</totfact>
</mgrwt>
</event>
<event>
12    7  0.1857704E-007  0.1725011E+04  0.7818608E-02  0.8747227E-01
          2   -1    0    0  501    0  0.00000000000E+00  0.00000000000E+00  0.25375198521E+04  0.25375198521E+04  0.00000000000E+00 0. -1.
         -1   -1    0    0    0  501 -0.00000000000E+00 -0.00000000000E+00 -0.29316659564E+03  0.29316659564E+03  0.00000000000E+00 0.  1.
         24    2    1    2    0    0  0.19902544331E+03  0.47489274578E+03  0.14219804420E+04  0.15144870063E+04  0.80673835249E+02 0.  0.
        254    2    1    2    0    0 -0.19902544331E+03 -0.47489274578E+03  0.82237281446E+03  0.13161994415E+04  0.88935351612E+03 0.  0.
         23    2    4    4    0    0 -0.85168907767E+02 -0.72621821903E+03  0.57971533342E+03  0.93759216290E+03  0.91446988084E+02 0.  0.
         23    2    4    4    0    0 -0.11385653555E+03  0.25132547325E+03  0.24265748104E+03  0.37860727855E+03  0.91285344280E+02 0.  0.
          2    1    3    3  502    0  0.88411358597E+02  0.18328501379E+03  0.67513269425E+03  0.70513411452E+03  0.00000000000E+00 0. -1.
         -1    1    3    3    0  502  0.11061408472E+03  0.29160773199E+03  0.74684774771E+03  0.80935289173E+03  0.00000000000E+00 0.  1.
         13    1    5    5    0    0 -0.36021232854E+02 -0.28265673432E+03  0.17023633558E+03  0.33192283534E+03  0.00000000000E+00 0. -1.
        -13    1    5    5    0    0 -0.49147674913E+02 -0.44356148471E+03  0.40947899785E+03  0.60566932756E+03  0.00000000000E+00 0.  1.
          2    1    6    6  503    0 -0.40726219753E+02  0.81713805558E+02  0.14042686207E+03  0.16749768531E+03  0.00000000000E+00 0. -1.
         -2    1    6    6    0  503 -0.73130315793E+02  0.16961166769E+03  0.10223061897E+03  0.21110959324E+03  0.00000000000E+00 0.  1.
<mgrwt>
<rscale>  0 0.17250114E+04</rscale>
<asrwt>0</asrwt>
<pdfrwt beam="1">  1        2 0.39038765E+00 0.17250114E+04</pdfrwt>
<pdfrwt beam="2">  1       -1 0.45102555E-01 0.17250114E+04</pdfrwt>
<totfact> 0.17487688E+01</totfact>
</mgrwt>
</event>
<event>
12    7  0.1857704E-007  0.2491198E+04  0.7818608E-02  0.8406128E-01
          2   -1    0    0  501    0  0.00000000000E+00  0.00000000000E+00  0.14923575074E+04  0.14923575074E+04  0.00000000000E+00 0. -1.
         -1   -1    0    0    0  501 -0.00000000000E+00 -0.00000000000E+00 -0.10396411862E+04  0.10396411862E+04  0.00000000000E+00 0.  1.
         24    2    1    2    0    0 -0.67351166365E+03  0.75087323752E+03 -0.19321372251E+03  0.10299661479E+04  0.77911124795E+02 0.  0.
        254    2    1    2    0    0  0.67351166365E+03 -0.75087323752E+03  0.64593004367E+03  0.15020325457E+04  0.90633744655E+03 0.  0.
         23    2    4    4    0    0  0.62321524148E+03 -0.12965825937E+03  0.58452890658E+03  0.86906825623E+03  0.91635636719E+02 0.  0.
         23    2    4    4    0    0  0.50296422162E+02 -0.62121497814E+03  0.61401137090E+02  0.63296428943E+03  0.91847225887E+02 0.  0.
          4    1    3    3  502    0 -0.28850006404E+03  0.26932274791E+03 -0.90665254427E+02  0.40495335269E+03  0.00000000000E+00 0. -1.
         -3    1    3    3    0  502 -0.38501159960E+03  0.48155048961E+03 -0.10254846808E+03  0.62501279521E+03  0.00000000000E+00 0.  1.
         13    1    5    5    0    0  0.14652045212E+03  0.76690381236E+01  0.12208134298E+03  0.19086883281E+03  0.00000000000E+00 0.  1.
        -13    1    5    5    0    0  0.47669478937E+03 -0.13732729750E+03  0.46244756360E+03  0.67819942342E+03  0.00000000000E+00 0. -1.
          3    1    6    6  503    0  0.10253974263E+02 -0.51594971491E+03  0.34691300943E+02  0.51721633643E+03  0.00000000000E+00 0. -1.
         -3    1    6    6    0  503  0.40042447899E+02 -0.10526526323E+03  0.26709836148E+02  0.11574795300E+03  0.00000000000E+00 0.  1.
<mgrwt>
<rscale>  0 0.24911976E+04</rscale>
<asrwt>0</asrwt>
<pdfrwt beam="1">  1        2 0.22959346E+00 0.24911976E+04</pdfrwt>
<pdfrwt beam="2">  1       -1 0.15994480E+00 0.24911976E+04</pdfrwt>
<totfact> 0.38127961E+00</totfact>
</mgrwt>
</event>
<event>
12    7  0.1857704E-007  0.3994433E+04  0.7818608E-02  0.8005670E-01
         -1   -1    0    0    0  501 -0.00000000000E+00  0.00000000000E+00  0.21592365095E+04  0.21592365095E+04  0.00000000000E+00 0.  1.
          2   -1    0    0  501    0  0.00000000000E+00 -0.00000000000E+00 -0.18473541272E+04  0.18473541272E+04  0.00000000000E+00 0. -1.
         24    2    1    2    0    0  0.11424939591E+04  0.26988144231E+03  0.16413664092E+04  0.20194927578E+04  0.78350941879E+02 0.  0.
        254    2    1    2    0    0 -0.11424939591E+04 -0.26988144231E+03 -0.13294840269E+04  0.19870978789E+04  0.89604785754E+03 0.  0.
         23    2    4    4    0    0 -0.69851689017E+03 -0.45415849197E+03 -0.38312179238E+03  0.92139561618E+03  0.89452736309E+02 0.  0.
         23    2    4    4    0    0 -0.44397706893E+03  0.18427704966E+03 -0.94636223452E+03  0.10657022627E+04  0.95111329726E+02 0.  0.
          4    1    3    3  502    0  0.28144694681E+03  0.60323345443E+02  0.46119108063E+03  0.54364372776E+03  0.00000000000E+00 0. -1.
         -3    1    3    3    0  502  0.86104701228E+03  0.20955809686E+03  0.11801753286E+04  0.14758490300E+04  0.00000000000E+00 0.  1.
         13    1    5    5    0    0 -0.63195174646E+03 -0.42542121452E+03 -0.32399642192E+03  0.82784050459E+03  0.00000000000E+00 0.  1.
        -13    1    5    5    0    0 -0.66565143708E+02 -0.28737277445E+02 -0.59125370463E+02  0.93555111588E+02  0.00000000000E+00 0. -1.
          3    1    6    6  503    0 -0.12609192682E+03  0.37982730904E+02 -0.17809679296E+03  0.22149566478E+03  0.00000000000E+00 0. -1.
         -3    1    6    6    0  503 -0.31788514211E+03  0.14629431876E+03 -0.76826544156E+03  0.84420659792E+03  0.00000000000E+00 0.  1.
<mgrwt>
<rscale>  0 0.39944334E+04</rscale>
<asrwt>0</asrwt>
<pdfrwt beam="1">  1        2 0.28420832E+00 0.39944334E+04</pdfrwt>
<pdfrwt beam="2">  1       -1 0.33219024E+00 0.39944334E+04</pdfrwt>
<totfact> 0.14854886E-01</totfact>
</mgrwt>
</event>
<event>
12    7  0.1857704E-007  0.2556808E+04  0.7818608E-02  0.8383022E-01
          2   -1    0    0  501    0  0.00000000000E+00  0.00000000000E+00  0.41259166347E+04  0.41259166347E+04  0.00000000000E+00 0. -1.
         -1   -1    0    0    0  501 -0.00000000000E+00 -0.00000000000E+00 -0.39611011839E+03  0.39611011839E+03  0.00000000000E+00 0.  1.
         24    2    1    2    0    0 -0.68302257306E+03  0.30742479939E+03  0.30641485845E+04  0.31553443626E+04  0.78496216876E+02 0.  0.
        254    2    1    2    0    0  0.68302257306E+03 -0.30742479939E+03  0.66565793184E+03  0.13666823905E+04  0.92934946696E+03 0.  0.
         23    2    4    4    0    0  0.71049047610E+03 -0.55890816693E+03  0.41476011007E+03  0.99872660804E+03  0.90850608192E+02 0.  0.
         23    2    4    4    0    0 -0.27467903048E+02  0.25148336754E+03  0.25089782177E+03  0.36795578248E+03  0.91887817703E+02 0.  0.
          2    1    3    3  502    0 -0.60976574919E+03  0.24613455135E+03  0.26648735781E+04  0.27448037587E+04  0.00000000000E+00 0. -1.
         -1    1    3    3    0  502 -0.73256823862E+02  0.61290248041E+02  0.39927500635E+03  0.41054060389E+03  0.00000000000E+00 0.  1.
         13    1    5    5    0    0  0.14089869553E+03 -0.71648725927E+02  0.55717500574E+02  0.16760197553E+03  0.00000000000E+00 0.  1.
        -13    1    5    5    0    0  0.56959178057E+03 -0.48725944100E+03  0.35904260950E+03  0.83112463251E+03  0.00000000000E+00 0. -1.
          1    1    6    6  503    0 -0.57042152074E+01  0.19959815461E+03  0.14084703240E+03  0.24435598608E+03  0.00000000000E+00 0. -1.
         -1    1    6    6    0  503 -0.21763687841E+02  0.51885212927E+02  0.11005078937E+03  0.12359979640E+03  0.00000000000E+00 0.  1.
<mgrwt>
<rscale>  0 0.25568084E+04</rscale>
<asrwt>0</asrwt>
<pdfrwt beam="1">  1        2 0.63475638E+00 0.25568084E+04</pdfrwt>
<pdfrwt beam="2">  1       -1 0.60940021E-01 0.25568084E+04</pdfrwt>
<totfact> 0.74445366E-01</totfact>
</mgrwt>
</event>
<event>
12    7  0.1857704E-007  0.2004252E+04  0.7818608E-02  0.8604635E-01
         -1   -1    0    0    0  501 -0.00000000000E+00  0.00000000000E+00  0.41792606256E+03  0.41792606256E+03  0.00000000000E+00 0.  1.
          2   -1    0    0  501    0  0.00000000000E+00 -0.00000000000E+00 -0.24029537549E+04  0.24029537549E+04  0.00000000000E+00 0. -1.
         24    2    1    2    0    0  0.67107570891E+03  0.27003518745E+03 -0.12700013932E+04  0.14638222170E+04  0.81303965379E+02 0.  0.
        254    2    1    2    0    0 -0.67107570891E+03 -0.27003518745E+03 -0.71502629918E+03  0.13570576005E+04  0.89837693253E+03 0.  0.
         23    2    4    4    0    0  0.16476345554E+03 -0.15610441365E+03 -0.36490181777E+03  0.43914059378E+03  0.90418694125E+02 0.  0.
         23    2    4    4    0    0 -0.83583916446E+03 -0.11393077380E+03 -0.35012448141E+03  0.91791700668E+03  0.91526764487E+02 0.  0.
          4    1    3    3  502    0  0.48370729913E+03  0.20757272649E+03 -0.85147083996E+03  0.10010303588E+04  0.00000000000E+00 0. -1.
         -3    1    3    3    0  502  0.18736840979E+03  0.62462460959E+02 -0.41853055323E+03  0.46279185818E+03  0.00000000000E+00 0.  1.
         13    1    5    5    0    0  0.74618439872E+02 -0.35404377590E+02 -0.71150834751E+02  0.10901294789E+03  0.00000000000E+00 0. -1.
        -13    1    5    5    0    0  0.90145015670E+02 -0.12070003606E+03 -0.29375098302E+03  0.33012764589E+03  0.00000000000E+00 0.  1.
          3    1    6    6  503    0 -0.66287763954E+02  0.12954379339E+02 -0.40576317701E+02  0.78792900393E+02  0.00000000000E+00 0. -1.
         -3    1    6    6    0  503 -0.76955140050E+03 -0.12688515314E+03 -0.30954816371E+03  0.83912410629E+03  0.00000000000E+00 0.  1.
<mgrwt>
<rscale>  0 0.20042525E+04</rscale>
<asrwt>0</asrwt>
<pdfrwt beam="1">  1        2 0.36968519E+00 0.20042525E+04</pdfrwt>
<pdfrwt beam="2">  1       -1 0.64296318E-01 0.20042525E+04</pdfrwt>
<totfact> 0.10273112E+01</totfact>
</mgrwt>
</event>
<event>
12    7  0.1857704E-007  0.1497992E+04  0.7818608E-02  0.8885789E-01
          2   -1    0    0  501    0  0.00000000000E+00  0.00000000000E+00  0.19188395547E+04  0.19188395547E+04  0.00000000000E+00 0. -1.
         -1   -1    0    0    0  501 -0.00000000000E+00 -0.00000000000E+00 -0.29236176325E+03  0.29236176325E+03  0.00000000000E+00 0.  1.
         24    2    1    2    0    0  0.21378464044E+03  0.14205262679E+02  0.11448005536E+04  0.11675536050E+04  0.81899028851E+02 0.  0.
        254    2    1    2    0    0 -0.21378464044E+03 -0.14205262679E+02  0.48167723780E+03  0.10436477130E+04  0.90071189920E+03 0.  0.
         23    2    4    4    0    0 -0.26966928330E+03 -0.24438595389E+03 -0.11720094475E+03  0.39330400109E+03  0.92227756155E+02 0.  0.
         23    2    4    4    0    0  0.55884642864E+02  0.23018069121E+03  0.59887818255E+03  0.65034371187E+03  0.90474427942E+02 0.  0.
          4    1    3    3  502    0  0.22044451391E+03  0.14881098898E+02  0.11286092714E+04  0.11500330944E+04  0.00000000000E+00 0. -1.
         -3    1    3    3    0  502 -0.66598734720E+01 -0.67583621952E+00  0.16191282259E+02  0.17520510565E+02  0.00000000000E+00 0.  1.
         13    1    5    5    0    0 -0.99474016972E+02 -0.34661393316E+02 -0.33421236712E+02  0.11051457507E+03  0.00000000000E+00 0. -1.
        -13    1    5    5    0    0 -0.17019526633E+03 -0.20972456058E+03 -0.83779708037E+02  0.28278942602E+03  0.00000000000E+00 0.  1.
          3    1    6    6  503    0  0.76002473043E+02  0.21320626412E+03  0.55154554461E+03  0.59618434628E+03  0.00000000000E+00 0. -1.
         -3    1    6    6    0  503 -0.20117830179E+02  0.16974427094E+02  0.47332637941E+02  0.54159365587E+02  0.00000000000E+00 0.  1.
<mgrwt>
<rscale>  0 0.14979924E+04</rscale>
<asrwt>0</asrwt>
<pdfrwt beam="1">  1        2 0.29520608E+00 0.14979924E+04</pdfrwt>
<pdfrwt beam="2">  1       -1 0.44978734E-01 0.14979924E+04</pdfrwt>
<totfact> 0.40005178E+01</totfact>
</mgrwt>
</event>
<event>
12    7  0.1857704E-007  0.2388753E+04  0.7818608E-02  0.8443726E-01
         -1   -1    0    0    0  501 -0.00000000000E+00  0.00000000000E+00  0.10904054647E+04  0.10904054647E+04  0.00000000000E+00 0.  1.
          2   -1    0    0  501    0  0.00000000000E+00 -0.00000000000E+00 -0.13082617948E+04  0.13082617948E+04  0.00000000000E+00 0. -1.
         24    2    1    2    0    0  0.21021610115E+03 -0.98458332962E+03  0.99943824009E+02  0.10148888536E+04  0.80096661108E+02 0.  0.
        254    2    1    2    0    0 -0.21021610115E+03  0.98458332962E+03 -0.31780015408E+03  0.13837784058E+04  0.89456726761E+03 0.  0.
         23    2    4    4    0    0  0.15729780365E+03 -0.13928836952E+02  0.13008432773E+03  0.22516902235E+03  0.94034806174E+02 0.  0.
         23    2    4    4    0    0 -0.36751390480E+03  0.99851216657E+03 -0.44788448181E+03  0.11586093835E+04  0.98398055754E+02 0.  0.
          2    1    3    3  502    0  0.28451276715E+02 -0.29168560084E+03  0.44159320205E+02  0.29637815447E+03  0.00000000000E+00 0. -1.
         -1    1    3    3    0  502  0.18176482444E+03 -0.69289772878E+03  0.55784503804E+02  0.71851069916E+03  0.00000000000E+00 0.  1.
         13    1    5    5    0    0  0.13415368661E+03  0.19205564022E+02  0.12512033352E+03  0.18444826695E+03  0.00000000000E+00 0.  1.
        -13    1    5    5    0    0  0.23144117034E+02 -0.33134400974E+02  0.49639942051E+01  0.40720755391E+02  0.00000000000E+00 0. -1.
          2    1    6    6  503    0 -0.21080337517E+03  0.49243986592E+03 -0.26923145449E+03  0.59951702279E+03  0.00000000000E+00 0. -1.
         -2    1    6    6    0  503 -0.15671052963E+03  0.50607230065E+03 -0.17865302732E+03  0.55909236067E+03  0.00000000000E+00 0.  1.
<mgrwt>
<rscale>  0 0.23887535E+04</rscale>
<asrwt>0</asrwt>
<pdfrwt beam="1">  1        2 0.20127105E+00 0.23887535E+04</pdfrwt>
<pdfrwt beam="2">  1       -1 0.16775469E+00 0.23887535E+04</pdfrwt>
<totfact> 0.42868567E+00</totfact>
</mgrwt>
</event>
<event>
12    7  0.1857704E-007  0.1156524E+04  0.7818608E-02  0.9151786E-01
          2   -1    0    0  501    0  0.00000000000E+00  0.00000000000E+00  0.69017635053E+03  0.69017635053E+03  0.00000000000E+00 0. -1.
         -1   -1    0    0    0  501 -0.00000000000E+00 -0.00000000000E+00 -0.48449486998E+03  0.48449486998E+03  0.00000000000E+00 0.  1.
         24    2    1    2    0    0  0.50771882991E+02 -0.11769529461E+03 -0.13720285058E+03  0.20543680347E+03  0.83364809945E+02 0.  0.
        254    2    1    2    0    0 -0.50771882991E+02  0.11769529461E+03  0.34288433112E+03  0.96923441704E+03  0.89744956636E+03 0.  0.
         23    2    4    4    0    0  0.14399946081E+02 -0.37586914081E+03  0.22329749349E+03  0.44920927075E+03  0.10218722455E+03 0.  0.
         23    2    4    4    0    0 -0.65171829072E+02  0.49356443542E+03  0.11958683763E+03  0.52002514629E+03  0.90950106230E+02 0.  0.
          4    1    3    3  502    0  0.52934819838E+02 -0.23448243955E+02 -0.42579138798E+02  0.71867227278E+02  0.00000000000E+00 0. -1.
         -3    1    3    3    0  502 -0.21629368472E+01 -0.94247050654E+02 -0.94623711777E+02  0.13356957619E+03  0.00000000000E+00 0.  1.
         13    1    5    5    0    0 -0.42902294101E+02 -0.14909774025E+03  0.75660690941E+02  0.17261310246E+03  0.00000000000E+00 0. -1.
        -13    1    5    5    0    0  0.57302240182E+02 -0.22677140056E+03  0.14763680255E+03  0.27659616829E+03  0.00000000000E+00 0.  1.
          2    1    6    6  503    0  0.97546230365E+00  0.11394676039E+02  0.20322580627E+02  0.23319465090E+02  0.00000000000E+00 0. -1.
         -2    1    6    6    0  503 -0.66147291375E+02  0.48216975938E+03  0.99264257003E+02  0.49670568120E+03  0.00000000000E+00 0.  1.
<mgrwt>
<rscale>  0 0.11565239E+04</rscale>
<asrwt>0</asrwt>
<pdfrwt beam="1">  1        2 0.10618098E+00 0.11565239E+04</pdfrwt>
<pdfrwt beam="2">  1       -1 0.74537672E-01 0.11565239E+04</pdfrwt>
<totfact> 0.85423327E+01</totfact>
</mgrwt>
</event>
<event>
12    7  0.1857704E-007  0.1782362E+04  0.7818608E-02  0.8715736E-01
         -1   -1    0    0    0  501 -0.00000000000E+00  0.00000000000E+00  0.74222762310E+03  0.74222762310E+03  0.00000000000E+00 0.  1.
          2   -1    0    0  501    0  0.00000000000E+00 -0.00000000000E+00 -0.10700275161E+04  0.10700275161E+04  0.00000000000E+00 0. -1.
         24    2    1    2    0    0 -0.17288810727E+03  0.43158528741E+03 -0.60158638814E+03  0.76428246526E+03  0.77880333670E+02 0.  0.
        254    2    1    2    0    0  0.17288810727E+03 -0.43158528741E+03  0.27378649515E+03  0.10479726739E+04  0.89840498798E+03 0.  0.
         23    2    4    4    0    0  0.11858888892E+03  0.10625984239E+03 -0.23586356248E+03  0.29926239554E+03  0.92584461948E+02 0.  0.
         23    2    4    4    0    0  0.54299218348E+02 -0.53784512980E+03  0.50965005763E+03  0.74871027839E+03  0.92725999339E+02 0.  0.
          4    1    3    3  502    0 -0.15542175008E+03  0.39052508316E+03 -0.49912715131E+03  0.65252867688E+03  0.00000000000E+00 0. -1.
         -1    1    3    3    0  502 -0.17466357188E+02  0.41060204247E+02 -0.10245923683E+03  0.11175378839E+03  0.00000000000E+00 0.  1.
         13    1    5    5    0    0  0.11311854768E+03  0.48037152742E+02 -0.13412550708E+03  0.18191488538E+03  0.00000000000E+00 0.  1.
        -13    1    5    5    0    0  0.54703412436E+01  0.58222689652E+02 -0.10173805540E+03  0.11734751016E+03  0.00000000000E+00 0. -1.
          4    1    6    6  503    0  0.40596500510E+02 -0.97691277225E+02  0.72801058574E+02  0.12841984126E+03  0.00000000000E+00 0. -1.
         -4    1    6    6    0  503  0.13702717838E+02 -0.44015385257E+03  0.43684899906E+03  0.62029043713E+03  0.00000000000E+00 0.  1.
<mgrwt>
<rscale>  0 0.17823625E+04</rscale>
<asrwt>0</asrwt>
<pdfrwt beam="1">  1        2 0.16461962E+00 0.17823625E+04</pdfrwt>
<pdfrwt beam="2">  1       -1 0.11418887E+00 0.17823625E+04</pdfrwt>
<totfact> 0.17123416E+01</totfact>
</mgrwt>
</event>
<event>
12    7  0.1857704E-007  0.2426828E+04  0.7818608E-02  0.8429527E-01
          2   -1    0    0  501    0  0.00000000000E+00  0.00000000000E+00  0.11244725111E+04  0.11244725111E+04  0.00000000000E+00 0. -1.
         -1   -1    0    0    0  501 -0.00000000000E+00 -0.00000000000E+00 -0.13093906225E+04  0.13093906225E+04  0.00000000000E+00 0.  1.
         24    2    1    2    0    0 -0.23502204284E+03 -0.56205017925E+01 -0.11058856148E+04  0.11333890804E+04  0.79503861123E+02 0.  0.
        254    2    1    2    0    0  0.23502204284E+03  0.56205017925E+01  0.92096750338E+03  0.13004740532E+04  0.88757234646E+03 0.  0.
         23    2    4    4    0    0 -0.26893878759E+03 -0.18926339951E+03  0.20192700880E+03  0.39657118777E+03  0.91353621847E+02 0.  0.
         23    2    4    4    0    0  0.50396083043E+03  0.19488390130E+03  0.71904049458E+03  0.90390286547E+03  0.89804809213E+02 0.  0.
          4    1    3    3  502    0 -0.11036449368E+03  0.15370091544E+02 -0.35947004996E+03  0.37634462664E+03  0.00000000000E+00 0. -1.
         -3    1    3    3    0  502 -0.12465754917E+03 -0.20990593337E+02 -0.74641556484E+03  0.75704445379E+03  0.00000000000E+00 0.  1.
         13    1    5    5    0    0 -0.78483634139E+02 -0.10551299007E+03  0.98004063529E+02  0.16400447667E+03  0.00000000000E+00 0. -1.
        -13    1    5    5    0    0 -0.19045515345E+03 -0.83750409440E+02  0.10392294527E+03  0.23256671110E+03  0.00000000000E+00 0.  1.
          3    1    6    6  503    0  0.20450907753E+02  0.30082263507E+02  0.38370507577E+02  0.52872280614E+02  0.00000000000E+00 0. -1.
         -3    1    6    6    0  503  0.48350992268E+03  0.16480163779E+03  0.68066998700E+03  0.85103058485E+03  0.00000000000E+00 0.  1.
<mgrwt>
<rscale>  0 0.24268282E+04</rscale>
<asrwt>0</asrwt>
<pdfrwt beam="1">  1        2 0.17299577E+00 0.24268282E+04</pdfrwt>
<pdfrwt beam="2">  1       -1 0.20144471E+00 0.24268282E+04</pdfrwt>
<totfact> 0.31659037E+00</totfact>
</mgrwt>
</event>
<event>
12    7  0.1893925E-007  0.1610100E+04  0.7818608E-02  0.8814367E-01
         -1   -1    0    0    0  501 -0.00000000000E+00  0.00000000000E+00  0.44084717884E+03  0.44084717884E+03  0.00000000000E+00 0.  1.
          2   -1    0    0  501    0  0.00000000000E+00 -0.00000000000E+00 -0.14701358413E+04  0.14701358413E+04  0.00000000000E+00 0. -1.
         24    2    1    2    0    0 -0.18464034621E+03  0.32849786719E+03 -0.82692415718E+03  0.91219587875E+03  0.79340111441E+02 0.  0.
        254    2    1    2    0    0  0.18464034621E+03 -0.32849786719E+03 -0.20236450528E+03  0.99878714139E+03  0.90256382301E+03 0.  0.
         23    2    4    4    0    0  0.46841350324E+03 -0.32219516136E+03  0.89424450708E+02  0.58248338568E+03  0.89828893965E+02 0.  0.
         23    2    4    4    0    0 -0.28377315703E+03 -0.63027058274E+01 -0.29178895599E+03  0.41630375570E+03  0.87184249859E+02 0.  0.
          4    1    3    3  502    0 -0.15403403236E+03  0.27554561207E+03 -0.61037015409E+03  0.68717071566E+03  0.00000000000E+00 0. -1.
         -3    1    3    3    0  502 -0.30606313857E+02  0.52952255120E+02 -0.21655400309E+03  0.22502516309E+03  0.00000000000E+00 0.  1.
         13    1    5    5    0    0  0.43317613688E+03 -0.26823156090E+03  0.65301351591E+02  0.51366720972E+03  0.00000000000E+00 0. -1.
        -13    1    5    5    0    0  0.35237366359E+02 -0.53963600463E+02  0.24123099117E+02  0.68816175960E+02  0.00000000000E+00 0.  1.
          1    1    6    6  503    0 -0.26410961094E+03  0.33207367317E+01 -0.22821458867E+03  0.34906562759E+03  0.00000000000E+00 0. -1.
         -1    1    6    6    0  503 -0.19663546083E+02 -0.96234425591E+01 -0.63574367323E+02  0.67238128110E+02  0.00000000000E+00 0.  1.
<mgrwt>
<rscale>  0 0.16100997E+04</rscale>
<asrwt>0</asrwt>
<pdfrwt beam="1">  1        2 0.22617474E+00 0.16100997E+04</pdfrwt>
<pdfrwt beam="2">  1       -1 0.67822643E-01 0.16100997E+04</pdfrwt>
<totfact> 0.31722049E+01</totfact>
</mgrwt>
</event>
<event>
12    7  0.1857704E-007  0.1823433E+04  0.7818608E-02  0.8693936E-01
          2   -1    0    0  501    0  0.00000000000E+00  0.00000000000E+00  0.52658440953E+03  0.52658440953E+03  0.00000000000E+00 0. -1.
         -1   -1    0    0    0  501 -0.00000000000E+00 -0.00000000000E+00 -0.15785253637E+04  0.15785253637E+04  0.00000000000E+00 0.  1.
         24    2    1    2    0    0  0.14159037433E+03 -0.36005653947E+02 -0.11579193987E+04  0.11700854490E+04  0.83536714631E+02 0.  0.
        254    2    1    2    0    0 -0.14159037433E+03  0.36005653947E+02  0.10597844457E+03  0.93502432426E+03  0.91743927049E+03 0.  0.
         23    2    4    4    0    0 -0.50109261960E+03 -0.12013973866E+03  0.21002969799E+02  0.52367075739E+03  0.90898664363E+02 0.  0.
         23    2    4    4    0    0  0.35950224527E+03  0.15614539260E+03  0.84975474768E+02  0.41135356688E+03  0.91475011279E+02 0.  0.
          2    1    3    3  502    0  0.88042721967E+01 -0.24804462685E+02 -0.86639311193E+02  0.90549140372E+02  0.00000000000E+00 0. -1.
         -1    1    3    3    0  502  0.13278610213E+03 -0.11201191262E+02 -0.10712800875E+04  0.10795363086E+04  0.00000000000E+00 0.  1.
         13    1    5    5    0    0 -0.29347953833E+03 -0.43784219854E+02  0.48829778548E+02  0.30071854715E+03  0.00000000000E+00 0. -1.
        -13    1    5    5    0    0 -0.20761308126E+03 -0.76355518802E+02 -0.27826808749E+02  0.22295221024E+03  0.00000000000E+00 0.  1.
          2    1    6    6  503    0  0.29633301838E+03  0.97549377892E+02  0.91012388709E+02  0.32498060528E+03  0.00000000000E+00 0. -1.
         -2    1    6    6    0  503  0.63169226888E+02  0.58596014710E+02 -0.60369139410E+01  0.86372961599E+02  0.00000000000E+00 0.  1.
<mgrwt>
<rscale>  0 0.18234329E+04</rscale>
<asrwt>0</asrwt>
<pdfrwt beam="1">  1        2 0.81012986E-01 0.18234329E+04</pdfrwt>
<pdfrwt beam="2">  1       -1 0.24285005E+00 0.18234329E+04</pdfrwt>
<totfact> 0.48455733E+00</totfact>
</mgrwt>
</event>
<event>
12    7  0.1857704E-007  0.4687738E+04  0.7818608E-02  0.7878569E-01
          2   -1    0    0  501    0  0.00000000000E+00  0.00000000000E+00  0.31865851975E+04  0.31865851975E+04  0.00000000000E+00 0. -1.
         -1   -1    0    0    0  501 -0.00000000000E+00 -0.00000000000E+00 -0.17240156457E+04  0.17240156457E+04  0.00000000000E+00 0.  1.
         24    2    1    2    0    0 -0.13002005584E+04 -0.17101436981E+04  0.14316459450E+04  0.25828499277E+04  0.79941709054E+02 0.  0.
        254    2    1    2    0    0  0.13002005584E+04  0.17101436981E+04  0.30923606840E+02  0.23277509155E+04  0.89574276158E+03 0.  0.
         23    2    4    4    0    0  0.86265726021E+03  0.45973433703E+03  0.15541591648E+03  0.99398127729E+03  0.91167226933E+02 0.  0.
         23    2    4    4    0    0  0.43754329815E+03  0.12504093611E+04 -0.12449230964E+03  0.13337696382E+04  0.92061960509E+02 0.  0.
          4    1    3    3  502    0 -0.44495030524E+03 -0.58213924809E+03  0.44312275121E+03  0.85628537938E+03  0.00000000000E+00 0. -1.
         -1    1    3    3    0  502 -0.85525025313E+03 -0.11280044500E+04  0.98852319378E+03  0.17265645483E+04  0.00000000000E+00 0.  1.
         13    1    5    5    0    0  0.14237129923E+03  0.53451882128E+02 -0.23759351247E+01  0.15209318069E+03  0.00000000000E+00 0.  1.
        -13    1    5    5    0    0  0.72028596099E+03  0.40628245490E+03  0.15779185161E+03  0.84188809660E+03  0.00000000000E+00 0. -1.
          4    1    6    6  503    0  0.20415751654E+02  0.19738368442E+02 -0.51446353491E+01  0.28859545687E+02  0.00000000000E+00 0. -1.
         -4    1    6    6    0  503  0.41712754650E+03  0.12306709926E+04 -0.11934767429E+03  0.13049100925E+04  0.00000000000E+00 0.  1.
<mgrwt>
<rscale>  0 0.46877384E+04</rscale>
<asrwt>0</asrwt>
<pdfrwt beam="1">  1        2 0.49024387E+00 0.46877384E+04</pdfrwt>
<pdfrwt beam="2">  1       -1 0.26523318E+00 0.46877384E+04</pdfrwt>
<totfact> 0.62178645E-02</totfact>
</mgrwt>
</event>
<event>
12    7  0.1857704E-007  0.5895980E+04  0.7818608E-02  0.7703434E-01
          2   -1    0    0  501    0  0.00000000000E+00  0.00000000000E+00  0.30434262069E+04  0.30434262069E+04  0.00000000000E+00 0. -1.
         -1   -1    0    0    0  501 -0.00000000000E+00 -0.00000000000E+00 -0.28555464591E+04  0.28555464591E+04  0.00000000000E+00 0.  1.
         24    2    1    2    0    0  0.17530740931E+04 -0.12640858552E+04  0.19937752906E+04  0.29413730036E+04  0.73167013429E+02 0.  0.
        254    2    1    2    0    0 -0.17530740931E+04  0.12640858552E+04 -0.18058955427E+04  0.29575996625E+04  0.90274870663E+03 0.  0.
         23    2    4    4    0    0 -0.72058495947E+03  0.93622544402E+03 -0.12983437323E+04  0.17578094600E+04  0.91852515928E+02 0.  0.
         23    2    4    4    0    0 -0.10324891336E+04  0.32786041115E+03 -0.50755181049E+03  0.11997902025E+04  0.91440852615E+02 0.  0.
          4    1    3    3  502    0  0.16495654809E+04 -0.12025397633E+04  0.18644160734E+04  0.27646365861E+04  0.00000000000E+00 0. -1.
         -3    1    3    3    0  502  0.10350861218E+03 -0.61546091826E+02  0.12935921715E+03  0.17673641751E+03  0.00000000000E+00 0.  1.
         13    1    5    5    0    0 -0.22779020204E+03  0.35679036519E+03 -0.49965555779E+03  0.65486137256E+03  0.00000000000E+00 0.  1.
        -13    1    5    5    0    0 -0.49279475743E+03  0.57943507883E+03 -0.79868817447E+03  0.11029480874E+04  0.00000000000E+00 0. -1.
          1    1    6    6  503    0 -0.18810143241E+03  0.46083371851E+02 -0.55716123583E+02  0.20151950889E+03  0.00000000000E+00 0. -1.
         -1    1    6    6    0  503 -0.84438770119E+03  0.28177703930E+03 -0.45183568690E+03  0.99827069363E+03  0.00000000000E+00 0.  1.
<mgrwt>
<rscale>  0 0.58959800E+04</rscale>
<asrwt>0</asrwt>
<pdfrwt beam="1">  1        2 0.46821942E+00 0.58959800E+04</pdfrwt>
<pdfrwt beam="2">  1       -1 0.43931484E+00 0.58959800E+04</pdfrwt>
<totfact> 0.48535781E-03</totfact>
</mgrwt>
</event>
<event>
12    7  0.1857704E-007  0.2348985E+04  0.7818608E-02  0.8458854E-01
          2   -1    0    0  501    0  0.00000000000E+00  0.00000000000E+00  0.35851009865E+04  0.35851009865E+04  0.00000000000E+00 0. -1.
         -1   -1    0    0    0  501 -0.00000000000E+00 -0.00000000000E+00 -0.38476806744E+03  0.38476806744E+03  0.00000000000E+00 0.  1.
         24    2    1    2    0    0 -0.14290107482E+03  0.96444081240E+03  0.17499865959E+04  0.20048265849E+04  0.79433945981E+02 0.  0.
        254    2    1    2    0    0  0.14290107482E+03 -0.96444081240E+03  0.14503463232E+04  0.19650424691E+04  0.89851023943E+03 0.  0.
         23    2    4    4    0    0  0.23456045311E+03 -0.44335057201E+03  0.10995236550E+03  0.52100352274E+03  0.88186235648E+02 0.  0.
         23    2    4    4    0    0 -0.91659378288E+02 -0.52109024039E+03  0.13403939577E+04  0.14440389464E+04  0.93037823115E+02 0.  0.
          4    1    3    3  502    0 -0.54711793817E+02  0.18259838500E+03  0.31038083432E+03  0.36424142118E+03  0.00000000000E+00 0. -1.
         -3    1    3    3    0  502 -0.88189281003E+02  0.78184242740E+03  0.14396057616E+04  0.16405851637E+04  0.00000000000E+00 0.  1.
         13    1    5    5    0    0  0.20883301115E+03 -0.43416670824E+03  0.10707237664E+03  0.49353465018E+03  0.00000000000E+00 0. -1.
        -13    1    5    5    0    0  0.25727441962E+02 -0.91838637724E+01  0.28799888628E+01  0.27468872556E+02  0.00000000000E+00 0.  1.
          2    1    6    6  503    0 -0.10686317575E+02 -0.17920522230E+03  0.56317378993E+03  0.59109510803E+03  0.00000000000E+00 0. -1.
         -2    1    6    6    0  503 -0.80973060713E+02 -0.34188501809E+03  0.77722016780E+03  0.85294383835E+03  0.00000000000E+00 0.  1.
<mgrwt>
<rscale>  0 0.23489848E+04</rscale>
<asrwt>0</asrwt>
<pdfrwt beam="1">  1        2 0.55155397E+00 0.23489848E+04</pdfrwt>
<pdfrwt beam="2">  1       -1 0.59195090E-01 0.23489848E+04</pdfrwt>
<totfact> 0.21084482E+00</totfact>
</mgrwt>
</event>
<event>
12    7  0.1857704E-007  0.2420568E+04  0.7818608E-02  0.8431843E-01
         -1   -1    0    0    0  501 -0.00000000000E+00  0.00000000000E+00  0.10917594148E+04  0.10917594148E+04  0.00000000000E+00 0.  1.
          2   -1    0    0  501    0  0.00000000000E+00 -0.00000000000E+00 -0.13416758363E+04  0.13416758363E+04  0.00000000000E+00 0. -1.
         24    2    1    2    0    0 -0.12968188996E+03  0.29002028835E+03  0.91987812304E+03  0.97691513775E+03  0.85195450977E+02 0.  0.
        254    2    1    2    0    0  0.12968188996E+03 -0.29002028835E+03 -0.11697945446E+04  0.14565201133E+04  0.80752857765E+03 0.  0.
         23    2    4    4    0    0 -0.32399953687E+03 -0.31962499050E+02 -0.47243339218E+03  0.58066225171E+03  0.89319870529E+02 0.  0.
         23    2    4    4    0    0  0.45368142683E+03 -0.25805778930E+03 -0.69736115242E+03  0.87585786162E+03  0.91617450273E+02 0.  0.
          2    1    3    3  502    0 -0.79380817824E+02  0.25404284655E+03  0.77343871287E+03  0.81795264208E+03  0.00000000000E+00 0. -1.
         -1    1    3    3    0  502 -0.50301072133E+02  0.35977441799E+02  0.14643941017E+03  0.15896249567E+03  0.00000000000E+00 0.  1.
         13    1    5    5    0    0 -0.13334313861E+03  0.97899632417E+01 -0.25880180413E+03  0.29129814592E+03  0.00000000000E+00 0. -1.
        -13    1    5    5    0    0 -0.19065639826E+03 -0.41752462292E+02 -0.21363158805E+03  0.28936410579E+03  0.00000000000E+00 0.  1.
          1    1    6    6  503    0  0.76473578388E+02 -0.33671081240E+02 -0.17247661734E+03  0.19165107209E+03  0.00000000000E+00 0. -1.
         -1    1    6    6    0  503  0.37720784844E+03 -0.22438670806E+03 -0.52488453507E+03  0.68420678953E+03  0.00000000000E+00 0.  1.
<mgrwt>
<rscale>  0 0.24205679E+04</rscale>
<asrwt>0</asrwt>
<pdfrwt beam="1">  1        2 0.20641167E+00 0.24205679E+04</pdfrwt>
<pdfrwt beam="2">  1       -1 0.16796299E+00 0.24205679E+04</pdfrwt>
<totfact> 0.40739167E+00</totfact>
</mgrwt>
</event>
<event>
12    7  0.1857704E-007  0.3412436E+04  0.7818608E-02  0.8134861E-01
         -1   -1    0    0    0  501 -0.00000000000E+00  0.00000000000E+00  0.22910053003E+04  0.22910053003E+04  0.00000000000E+00 0.  1.
          2   -1    0    0  501    0  0.00000000000E+00 -0.00000000000E+00 -0.12706996398E+04  0.12706996398E+04  0.00000000000E+00 0. -1.
         24    2    1    2    0    0 -0.14955396215E+04 -0.24391782501E+03  0.97625740168E+03  0.18043290118E+04  0.79937498583E+02 0.  0.
        254    2    1    2    0    0  0.14955396215E+04  0.24391782501E+03  0.44048258879E+02  0.17573759283E+04  0.88898551142E+03 0.  0.
         23    2    4    4    0    0  0.10107527373E+04 -0.22421853700E+03 -0.15007221952E+03  0.10500577111E+04  0.90578569197E+02 0.  0.
         23    2    4    4    0    0  0.48478688419E+03  0.46813636201E+03  0.19412047840E+03  0.70731821725E+03  0.91903883525E+02 0.  0.
          2    1    3    3  502    0 -0.34716788821E+03 -0.76141288471E+02  0.26249689484E+03  0.44184574030E+03  0.00000000000E+00 0. -1.
         -1    1    3    3    0  502 -0.11483717333E+04 -0.16777653654E+03  0.71376050684E+03  0.13624832715E+04  0.00000000000E+00 0.  1.
         13    1    5    5    0    0  0.21023250281E+02 -0.18240923312E+01 -0.16717522187E+02  0.26921736818E+02  0.00000000000E+00 0.  1.
        -13    1    5    5    0    0  0.98972948703E+03 -0.22239444466E+03 -0.13335469733E+03  0.10231359743E+04  0.00000000000E+00 0. -1.
          2    1    6    6  503    0  0.29155248726E+03  0.33635371144E+03  0.14660848602E+03  0.46864775706E+03  0.00000000000E+00 0. -1.
         -2    1    6    6    0  503  0.19323439693E+03  0.13178265056E+03  0.47511992384E+02  0.23867046019E+03  0.00000000000E+00 0.  1.
<mgrwt>
<rscale>  0 0.34124359E+04</rscale>
<asrwt>0</asrwt>
<pdfrwt beam="1">  1        2 0.19549225E+00 0.34124359E+04</pdfrwt>
<pdfrwt beam="2">  1       -1 0.35246235E+00 0.34124359E+04</pdfrwt>
<totfact> 0.24247823E-01</totfact>
</mgrwt>
</event>
<event>
12    7  0.1857704E-007  0.1259151E+04  0.7818608E-02  0.9062601E-01
          2   -1    0    0  501    0  0.00000000000E+00  0.00000000000E+00  0.62904499730E+03  0.62904499730E+03  0.00000000000E+00 0. -1.
         -1   -1    0    0    0  501 -0.00000000000E+00 -0.00000000000E+00 -0.63010660643E+03  0.63010660643E+03  0.00000000000E+00 0.  1.
         24    2    1    2    0    0  0.63824733334E+02  0.29653349994E+03 -0.57102457833E+02  0.31824052227E+03  0.77528228100E+02 0.  0.
        254    2    1    2    0    0 -0.63824733334E+02 -0.29653349994E+03  0.56040848705E+02  0.94091108146E+03  0.88891359159E+03 0.  0.
         23    2    4    4    0    0  0.36447685123E+03 -0.32825891721E+03  0.56978961296E+02  0.50254467967E+03  0.93312706655E+02 0.  0.
         23    2    4    4    0    0 -0.42830158456E+03  0.31725417270E+02 -0.93811259014E+00  0.43836640179E+03  0.87837763685E+02 0.  0.
          4    1    3    3  502    0 -0.37651503783E+01  0.21054749730E+02 -0.24813146885E+02  0.32759290314E+02  0.00000000000E+00 0. -1.
         -3    1    3    3    0  502  0.67589883712E+02  0.27547875021E+03 -0.32289310948E+02  0.28548123196E+03  0.00000000000E+00 0.  1.
         13    1    5    5    0    0  0.29488205942E+03 -0.20976222576E+03  0.42173929764E+02  0.36432713414E+03  0.00000000000E+00 0. -1.
        -13    1    5    5    0    0  0.69594791808E+02 -0.11849669145E+03  0.14805031531E+02  0.13821754552E+03  0.00000000000E+00 0.  1.
          1    1    6    6  503    0 -0.42514668691E+03  0.24442436466E+02 -0.10451423399E+02  0.42597695987E+03  0.00000000000E+00 0. -1.
         -1    1    6    6    0  503 -0.31548976488E+01  0.72829808037E+01  0.95133108088E+01  0.12389441921E+02  0.00000000000E+00 0.  1.
<mgrwt>
<rscale>  0 0.12591512E+04</rscale>
<asrwt>0</asrwt>
<pdfrwt beam="1">  1        2 0.96776153E-01 0.12591512E+04</pdfrwt>
<pdfrwt beam="2">  1       -1 0.96939478E-01 0.12591512E+04</pdfrwt>
<totfact> 0.53819421E+01</totfact>
</mgrwt>
</event>
<event>
12    7  0.1857704E-007  0.1562336E+04  0.7818608E-02  0.8844027E-01
         -1   -1    0    0    0  501 -0.00000000000E+00  0.00000000000E+00  0.34459581149E+03  0.34459581149E+03  0.00000000000E+00 0.  1.
          2   -1    0    0  501    0  0.00000000000E+00 -0.00000000000E+00 -0.17708374605E+04  0.17708374605E+04  0.00000000000E+00 0. -1.
         24    2    1    2    0    0  0.22043861885E+03 -0.32156484767E+03 -0.24389425573E+02  0.39865576313E+03  0.79589179289E+02 0.  0.
        254    2    1    2    0    0 -0.22043861885E+03  0.32156484767E+03 -0.14018522234E+04  0.17167775088E+04  0.91111921428E+03 0.  0.
         23    2    4    4    0    0 -0.50137219498E+03  0.11025068851E+03 -0.41866948074E+03  0.66876476655E+03  0.91830750080E+02 0.  0.
         23    2    4    4    0    0  0.28093357614E+03  0.21131415915E+03 -0.98318274266E+03  0.10480127423E+04  0.90028075822E+02 0.  0.
          4    1    3    3  502    0  0.77891225432E+02 -0.14902789678E+03 -0.44513295494E+02  0.17394766596E+03  0.00000000000E+00 0. -1.
         -3    1    3    3    0  502  0.14254739341E+03 -0.17253695089E+03  0.20123869920E+02  0.22470809717E+03  0.00000000000E+00 0.  1.
         13    1    5    5    0    0 -0.17657807897E+02  0.62879042858E+01 -0.45011180346E+02  0.48757997049E+02  0.00000000000E+00 0. -1.
        -13    1    5    5    0    0 -0.48371438709E+03  0.10396278423E+03 -0.37365830039E+03  0.62000676950E+03  0.00000000000E+00 0.  1.
          4    1    6    6  503    0  0.21129870399E+03  0.20139622261E+03 -0.76658515221E+03  0.82028066927E+03  0.00000000000E+00 0.  1.
         -4    1    6    6    0  503  0.69634872148E+02  0.99179365450E+01 -0.21659759045E+03  0.22773207301E+03  0.00000000000E+00 0. -1.
<mgrwt>
<rscale>  0 0.15623357E+04</rscale>
<asrwt>0</asrwt>
<pdfrwt beam="1">  1        2 0.27243653E+00 0.15623357E+04</pdfrwt>
<pdfrwt beam="2">  1       -1 0.53014741E-01 0.15623357E+04</pdfrwt>
<totfact> 0.35201405E+01</totfact>
</mgrwt>
</event>
<event>
12    7  0.1857704E-007  0.1017772E+04  0.7818608E-02  0.9289265E-01
         -3   -1    0    0    0  501 -0.00000000000E+00  0.00000000000E+00  0.14921198396E+03  0.14921198396E+03  0.00000000000E+00 0.  1.
          4   -1    0    0  501    0  0.00000000000E+00 -0.00000000000E+00 -0.17355495592E+04  0.17355495592E+04  0.00000000000E+00 0. -1.
         24    2    1    2    0    0  0.73206657525E+02  0.10718923669E+02 -0.10406436633E+03  0.15056413098E+03  0.79787562745E+02 0.  0.
        254    2    1    2    0    0 -0.73206657525E+02 -0.10718923669E+02 -0.14822732089E+04  0.17341974122E+04  0.89712467835E+03 0.  0.
         23    2    4    4    0    0  0.30636687064E+03  0.72078772715E+02 -0.12046205442E+04  0.12481649461E+04  0.88028791118E+02 0.  0.
         23    2    4    4    0    0 -0.37957352817E+03 -0.82797696384E+02 -0.27765266466E+03  0.48603246610E+03  0.90581643292E+02 0.  0.
          4    1    3    3  502    0  0.45059855165E+02  0.88165694402E+01 -0.11217705442E+03  0.12120979326E+03  0.00000000000E+00 0. -1.
         -3    1    3    3    0  502  0.28146802360E+02  0.19023542288E+01  0.81126880964E+01  0.29354337718E+02  0.00000000000E+00 0.  1.
         13    1    5    5    0    0  0.16208658541E+03  0.11573060716E+02 -0.74918886657E+03  0.76660938861E+03  0.00000000000E+00 0.  1.
        -13    1    5    5    0    0  0.14428028524E+03  0.60505711998E+02 -0.45543167768E+03  0.48155555746E+03  0.00000000000E+00 0. -1.
          4    1    6    6  503    0 -0.35125782248E+03 -0.98381492030E+02 -0.26682024879E+03  0.45194471010E+03  0.00000000000E+00 0. -1.
         -4    1    6    6    0  503 -0.28315705693E+02  0.15583795646E+02 -0.10832415867E+02  0.34087756001E+02  0.00000000000E+00 0.  1.
<mgrwt>
<rscale>  0 0.10177717E+04</rscale>
<asrwt>0</asrwt>
<pdfrwt beam="1">  1        4 0.26700763E+00 0.10177717E+04</pdfrwt>
<pdfrwt beam="2">  1       -3 0.22955689E-01 0.10177717E+04</pdfrwt>
<totfact> 0.20393605E+00</totfact>
</mgrwt>
</event>
<event>
12    7  0.1857704E-007  0.1666504E+04  0.7818608E-02  0.8780702E-01
         -1   -1    0    0    0  501 -0.00000000000E+00  0.00000000000E+00  0.72055534117E+03  0.72055534117E+03  0.00000000000E+00 0.  1.
          2   -1    0    0  501    0  0.00000000000E+00 -0.00000000000E+00 -0.96357492616E+03  0.96357492616E+03  0.00000000000E+00 0. -1.
         24    2    1    2    0    0  0.48313926690E+03 -0.23167442910E+03 -0.32031660725E+03  0.62922011675E+03  0.78858316725E+02 0.  0.
        254    2    1    2    0    0 -0.48313926690E+03  0.23167442910E+03  0.77297022267E+02  0.10549101506E+04  0.90540819736E+03 0.  0.
         23    2    4    4    0    0 -0.10262915026E+03 -0.23032467699E+03 -0.25020760591E+03  0.36659846121E+03  0.90600145650E+02 0.  0.
         23    2    4    4    0    0 -0.38051011664E+03  0.46199910609E+03  0.32750462818E+03  0.68831168938E+03  0.91008666454E+02 0.  0.
          4    1    3    3  502    0  0.47707176398E+03 -0.22326998148E+03 -0.29940357568E+03  0.60587907518E+03  0.00000000000E+00 0. -1.
         -3    1    3    3    0  502  0.60675029161E+01 -0.84044476238E+01 -0.20913031574E+02  0.23341041560E+02  0.00000000000E+00 0.  1.
         13    1    5    5    0    0 -0.59021795334E+02 -0.20915282079E+03 -0.22126768264E+03  0.31014168077E+03  0.00000000000E+00 0.  1.
        -13    1    5    5    0    0 -0.43607354929E+02 -0.21171856198E+02 -0.28939923270E+02  0.56456780440E+02  0.00000000000E+00 0. -1.
          2    1    6    6  503    0 -0.11957993426E+02 -0.27319513398E+01  0.62211559366E+01  0.13753543038E+02  0.00000000000E+00 0. -1.
         -2    1    6    6    0  503 -0.36855212321E+03  0.46473105743E+03  0.32128347224E+03  0.67455814634E+03  0.00000000000E+00 0.  1.
<mgrwt>
<rscale>  0 0.16665042E+04</rscale>
<asrwt>0</asrwt>
<pdfrwt beam="1">  1        2 0.14824230E+00 0.16665042E+04</pdfrwt>
<pdfrwt beam="2">  1       -1 0.11085467E+00 0.16665042E+04</pdfrwt>
<totfact> 0.21700017E+01</totfact>
</mgrwt>
</event>
<event>
12    7  0.1857704E-007  0.1152794E+04  0.7818608E-02  0.9155210E-01
         -1   -1    0    0    0  501 -0.00000000000E+00  0.00000000000E+00  0.33899920833E+03  0.33899920833E+03  0.00000000000E+00 0.  1.
          2   -1    0    0  501    0  0.00000000000E+00 -0.00000000000E+00 -0.98004196820E+03  0.98004196820E+03  0.00000000000E+00 0. -1.
         24    2    1    2    0    0  0.19163444409E+03  0.59125093592E+02 -0.88829519046E+02  0.23442192256E+03  0.82724950698E+02 0.  0.
        254    2    1    2    0    0 -0.19163444409E+03 -0.59125093592E+02 -0.55221324082E+03  0.10846192540E+04  0.91172360169E+03 0.  0.
         23    2    4    4    0    0 -0.23432684805E+03  0.26750222575E+03  0.71152465810E+02  0.37395801700E+03  0.91188884156E+02 0.  0.
         23    2    4    4    0    0  0.42692403958E+02 -0.32662731934E+03 -0.62336570663E+03  0.71066123696E+03  0.89143381245E+02 0.  0.
          2    1    3    3  502    0  0.14831037588E+02  0.35489433956E+02 -0.13064048365E+02  0.40621779357E+02  0.00000000000E+00 0. -1.
         -1    1    3    3    0  502  0.17680340650E+03  0.23635659636E+02 -0.75765470680E+02  0.19380014320E+03  0.00000000000E+00 0.  1.
         13    1    5    5    0    0 -0.35103466529E+01 -0.61212796789E+01  0.76263392370E+01  0.10390074528E+02  0.00000000000E+00 0. -1.
        -13    1    5    5    0    0 -0.23081650140E+03  0.27362350543E+03  0.63526126573E+02  0.36356794248E+03  0.00000000000E+00 0.  1.
          4    1    6    6  503    0  0.52790683401E+02 -0.94408853505E+02 -0.21881947191E+03  0.24409393512E+03  0.00000000000E+00 0. -1.
         -4    1    6    6    0  503 -0.10098279443E+02 -0.23221846583E+03 -0.40454623472E+03  0.46656730184E+03  0.00000000000E+00 0.  1.
<mgrwt>
<rscale>  0 0.11527939E+04</rscale>
<asrwt>0</asrwt>
<pdfrwt beam="1">  1        2 0.15077569E+00 0.11527939E+04</pdfrwt>
<pdfrwt beam="2">  1       -1 0.52153723E-01 0.11527939E+04</pdfrwt>
<totfact> 0.10843546E+02</totfact>
</mgrwt>
</event>
<event>
12    7  0.1857704E-007  0.1552381E+04  0.7818608E-02  0.8850348E-01
         -1   -1    0    0    0  501 -0.00000000000E+00  0.00000000000E+00  0.48882132525E+03  0.48882132525E+03  0.00000000000E+00 0.  1.
          2   -1    0    0  501    0  0.00000000000E+00 -0.00000000000E+00 -0.12324992267E+04  0.12324992267E+04  0.00000000000E+00 0. -1.
         24    2    1    2    0    0  0.14884698710E+03 -0.15433476509E+03  0.26686143707E+03  0.35372826607E+03  0.89073084222E+02 0.  0.
        254    2    1    2    0    0 -0.14884698710E+03  0.15433476509E+03 -0.10105393385E+04  0.13675922859E+04  0.89618316232E+03 0.  0.
         23    2    4    4    0    0  0.28974101688E+03  0.60207840914E+02 -0.81169871842E+03  0.86860092168E+03  0.89654395806E+02 0.  0.
         23    2    4    4    0    0 -0.43858800397E+03  0.94126924180E+02 -0.19884062010E+03  0.49899136421E+03  0.90749513869E+02 0.  0.
          2    1    3    3  502    0  0.14038409355E+03 -0.10425760751E+03  0.16752101731E+03  0.24215828231E+03  0.00000000000E+00 0. -1.
         -1    1    3    3    0  502  0.84628935440E+01 -0.50077157580E+02  0.99340419758E+02  0.11156998376E+03  0.00000000000E+00 0.  1.
         13    1    5    5    0    0  0.14393668261E+03  0.67257735454E+02 -0.49517999196E+03  0.52004287902E+03  0.00000000000E+00 0. -1.
        -13    1    5    5    0    0  0.14580433426E+03 -0.70498945405E+01 -0.31651872646E+03  0.34855804266E+03  0.00000000000E+00 0.  1.
          4    1    6    6  503    0 -0.26653951053E+03  0.71061078214E+02 -0.75338253287E+02  0.28595251339E+03  0.00000000000E+00 0. -1.
         -4    1    6    6    0  503 -0.17204849345E+03  0.23065845966E+02 -0.12350236681E+03  0.21303885081E+03  0.00000000000E+00 0.  1.
<mgrwt>
<rscale>  0 0.15523813E+04</rscale>
<asrwt>0</asrwt>
<pdfrwt beam="1">  1        2 0.18961527E+00 0.15523813E+04</pdfrwt>
<pdfrwt beam="2">  1       -1 0.75203281E-01 0.15523813E+04</pdfrwt>
<totfact> 0.35340623E+01</totfact>
</mgrwt>
</event>
<event>
12    7  0.1857704E-007  0.1579140E+04  0.7818608E-02  0.8833466E-01
         -1   -1    0    0    0  501 -0.00000000000E+00  0.00000000000E+00  0.51024200445E+03  0.51024200445E+03  0.00000000000E+00 0.  1.
          2   -1    0    0  501    0  0.00000000000E+00 -0.00000000000E+00 -0.12218146880E+04  0.12218146880E+04  0.00000000000E+00 0. -1.
         24    2    1    2    0    0 -0.40816515465E+03  0.94140954637E+02 -0.58604566260E+03  0.72447425804E+03  0.77149977881E+02 0.  0.
        254    2    1    2    0    0  0.40816515465E+03 -0.94140954637E+02 -0.12552702090E+03  0.10075824344E+04  0.90774666965E+03 0.  0.
         23    2    4    4    0    0  0.48539009065E+03 -0.31474997910E+03 -0.34025718070E+03  0.67700167455E+03  0.88798811264E+02 0.  0.
         23    2    4    4    0    0 -0.77224935996E+02  0.22060902446E+03  0.21473015980E+03  0.33058075982E+03  0.92425996457E+02 0.  0.
          4    1    3    3  502    0 -0.26656691925E+03  0.47248269122E+02 -0.31718868744E+03  0.41701197202E+03  0.00000000000E+00 0. -1.
         -1    1    3    3    0  502 -0.14159823541E+03  0.46892685515E+02 -0.26885697517E+03  0.30746228601E+03  0.00000000000E+00 0.  1.
         13    1    5    5    0    0  0.30941274843E+02 -0.51270810083E+02 -0.31170518232E+02  0.67510441136E+02  0.00000000000E+00 0.  1.
        -13    1    5    5    0    0  0.45444881581E+03 -0.26347916901E+03 -0.30908666247E+03  0.60949123341E+03  0.00000000000E+00 0. -1.
          1    1    6    6  503    0 -0.59629451370E+02  0.52569562078E+02  0.92961064720E+02  0.12231512532E+03  0.00000000000E+00 0. -1.
         -1    1    6    6    0  503 -0.17595484626E+02  0.16803946238E+03  0.12176909508E+03  0.20826563450E+03  0.00000000000E+00 0.  1.
<mgrwt>
<rscale>  0 0.15791405E+04</rscale>
<asrwt>0</asrwt>
<pdfrwt beam="1">  1        2 0.18797149E+00 0.15791405E+04</pdfrwt>
<pdfrwt beam="2">  1       -1 0.78498771E-01 0.15791405E+04</pdfrwt>
<totfact> 0.32695068E+01</totfact>
</mgrwt>
</event>
<event>
12    7  0.1857704E-007  0.1906961E+04  0.7818608E-02  0.8651399E-01
         -1   -1    0    0    0  501 -0.00000000000E+00  0.00000000000E+00  0.14623140523E+04  0.14623140523E+04  0.00000000000E+00 0.  1.
          2   -1    0    0  501    0  0.00000000000E+00 -0.00000000000E+00 -0.62170314656E+03  0.62170314656E+03  0.00000000000E+00 0. -1.
         24    2    1    2    0    0  0.18228516992E+03 -0.58893986485E+03 -0.12164073230E+03  0.63338020136E+03  0.79347111693E+02 0.  0.
        254    2    1    2    0    0 -0.18228516992E+03  0.58893986485E+03  0.96225163800E+03  0.14506369975E+04  0.89349954450E+03 0.  0.
         23    2    4    4    0    0 -0.71776006433E+02  0.11056247499E+03 -0.15765151607E+03  0.22441088049E+03  0.90168657468E+02 0.  0.
         23    2    4    4    0    0 -0.11050916349E+03  0.47837738987E+03  0.11199031541E+04  0.12262261170E+04  0.91598106575E+02 0.  0.
          2    1    3    3  502    0  0.21772458882E+02 -0.83299636426E+02 -0.45674630945E+02  0.97463025330E+02  0.00000000000E+00 0. -1.
         -3    1    3    3    0  502  0.16051271104E+03 -0.50564022843E+03 -0.75966101352E+02  0.53591717603E+03  0.00000000000E+00 0.  1.
         13    1    5    5    0    0 -0.85406504900E+02  0.78593884988E+02 -0.14849278846E+03  0.18847115976E+03  0.00000000000E+00 0.  1.
        -13    1    5    5    0    0  0.13630498467E+02  0.31968589997E+02 -0.91587276108E+01  0.35939720732E+02  0.00000000000E+00 0. -1.
          3    1    6    6  503    0  0.74397016058E+00 -0.17255117836E+01 -0.72871327735E+00  0.20154169682E+01  0.00000000000E+00 0. -1.
         -3    1    6    6    0  503 -0.11125313365E+03  0.48010290165E+03  0.11206318673E+04  0.12242107000E+04  0.00000000000E+00 0.  1.
<mgrwt>
<rscale>  0 0.19069612E+04</rscale>
<asrwt>0</asrwt>
<pdfrwt beam="1">  1        2 0.95646639E-01 0.19069612E+04</pdfrwt>
<pdfrwt beam="2">  1       -1 0.22497139E+00 0.19069612E+04</pdfrwt>
<totfact> 0.51751884E+00</totfact>
</mgrwt>
</event>
<event>
12    7  0.1857704E-007  0.1518603E+04  0.7818608E-02  0.8872176E-01
          2   -1    0    0  501    0  0.00000000000E+00  0.00000000000E+00  0.10208686825E+04  0.10208686825E+04  0.00000000000E+00 0. -1.
         -1   -1    0    0    0  501 -0.00000000000E+00 -0.00000000000E+00 -0.56475287174E+03  0.56475287174E+03  0.00000000000E+00 0.  1.
         24    2    1    2    0    0  0.35112674696E+03  0.33794578550E+03  0.12792953017E+03  0.50784592049E+03  0.63593772531E+02 0.  0.
        254    2    1    2    0    0 -0.35112674696E+03 -0.33794578550E+03  0.32818628061E+03  0.10777756338E+04  0.90354675341E+03 0.  0.
         23    2    4    4    0    0  0.28562873213E+03 -0.24575544755E+02  0.17090834326E+03  0.34533396259E+03  0.88646228908E+02 0.  0.
         23    2    4    4    0    0 -0.63675547909E+03 -0.31337024074E+03  0.15727793735E+03  0.73244167118E+03  0.89866590985E+02 0.  0.
          4    1    3    3  502    0  0.17075475238E+03  0.16020199920E+03  0.28814165301E+02  0.23590702009E+03  0.00000000000E+00 0. -1.
         -3    1    3    3    0  502  0.18037199457E+03  0.17774378630E+03  0.99115364868E+02  0.27193890040E+03  0.00000000000E+00 0.  1.
         13    1    5    5    0    0  0.25653336062E+03 -0.46020980305E+02  0.16563171875E+03  0.30880602649E+03  0.00000000000E+00 0.  1.
        -13    1    5    5    0    0  0.29095371514E+02  0.21445435550E+02  0.52766245117E+01  0.36527936100E+02  0.00000000000E+00 0. -1.
          4    1    6    6  503    0 -0.23558032735E+03 -0.73645494678E+02  0.34351975615E+02  0.24920234298E+03  0.00000000000E+00 0.  1.
         -4    1    6    6    0  503 -0.40117515174E+03 -0.23972474607E+03  0.12292596173E+03  0.48323932820E+03  0.00000000000E+00 0. -1.
<mgrwt>
<rscale>  0 0.15186027E+04</rscale>
<asrwt>0</asrwt>
<pdfrwt beam="1">  1        2 0.15705672E+00 0.15186027E+04</pdfrwt>
<pdfrwt beam="2">  1       -1 0.86885057E-01 0.15186027E+04</pdfrwt>
<totfact> 0.35098786E+01</totfact>
</mgrwt>
</event>
<event>
12    7  0.1857704E-007  0.1765173E+04  0.7818608E-02  0.8725043E-01
         -1   -1    0    0    0  501 -0.00000000000E+00  0.00000000000E+00  0.28110069216E+03  0.28110069216E+03  0.00000000000E+00 0.  1.
          2   -1    0    0  501    0  0.00000000000E+00 -0.00000000000E+00 -0.27711021919E+04  0.27711021919E+04  0.00000000000E+00 0. -1.
         24    2    1    2    0    0  0.59863863709E+03  0.59724352867E+00 -0.10652830909E+04  0.12245388544E+04  0.79364775892E+02 0.  0.
        254    2    1    2    0    0 -0.59863863709E+03 -0.59724352867E+00 -0.14247184088E+04  0.18276640297E+04  0.97578926328E+03 0.  0.
         23    2    4    4    0    0  0.18268349910E+03  0.20693735357E+03 -0.61401640340E+03  0.67923739345E+03  0.90282688702E+02 0.  0.
         23    2    4    4    0    0 -0.78132213619E+03 -0.20753459710E+03 -0.81070200544E+03  0.11484266362E+04  0.90061687961E+02 0.  0.
          2    1    3    3  502    0  0.43486586627E+03 -0.13160702309E+02 -0.70324659460E+03  0.82694455591E+03  0.00000000000E+00 0. -1.
         -3    1    3    3    0  502  0.16377277082E+03  0.13757945837E+02 -0.36203649631E+03  0.39759429849E+03  0.00000000000E+00 0.  1.
         13    1    5    5    0    0  0.15476768109E+03  0.14677182312E+03 -0.53574246620E+03  0.57664113039E+03  0.00000000000E+00 0. -1.
        -13    1    5    5    0    0  0.27915818013E+02  0.60165530451E+02 -0.78273937199E+02  0.10259626306E+03  0.00000000000E+00 0.  1.
          1    1    6    6  503    0 -0.24469053614E+03 -0.71384948378E+02 -0.19888703621E+03  0.32330376197E+03  0.00000000000E+00 0. -1.
         -1    1    6    6    0  503 -0.53663160005E+03 -0.13614964872E+03 -0.61181496924E+03  0.82512287424E+03  0.00000000000E+00 0.  1.
<mgrwt>
<rscale>  0 0.17651728E+04</rscale>
<asrwt>0</asrwt>
<pdfrwt beam="1">  1        2 0.42632340E+00 0.17651728E+04</pdfrwt>
<pdfrwt beam="2">  1       -1 0.43246261E-01 0.17651728E+04</pdfrwt>
<totfact> 0.13721423E+01</totfact>
</mgrwt>
</event>
<event>
12    7  0.1857704E-007  0.1968035E+04  0.7818608E-02  0.8621713E-01
          2   -1    0    0  501    0  0.00000000000E+00  0.00000000000E+00  0.94652679838E+03  0.94652679838E+03  0.00000000000E+00 0. -1.
         -1   -1    0    0    0  501 -0.00000000000E+00 -0.00000000000E+00 -0.10229927375E+04  0.10229927375E+04  0.00000000000E+00 0.  1.
         24    2    1    2    0    0  0.70766523105E+02  0.36717132004E+03 -0.71066750726E+03  0.80693500028E+03  0.79202965563E+02 0.  0.
        254    2    1    2    0    0 -0.70766523105E+02 -0.36717132004E+03  0.63420156814E+03  0.11625845356E+04  0.89976024270E+03 0.  0.
         23    2    4    4    0    0 -0.26858455204E+03 -0.27861350947E+02 -0.11830735538E+03  0.30885499608E+03  0.92091594610E+02 0.  0.
         23    2    4    4    0    0  0.19781802893E+03 -0.33930996909E+03  0.75250892352E+03  0.85372953952E+03  0.91220715724E+02 0.  0.
          4    1    3    3  502    0  0.45751532149E+02  0.25310212621E+03 -0.40556160437E+03  0.48024379634E+03  0.00000000000E+00 0. -1.
         -3    1    3    3    0  502  0.25014990956E+02  0.11406919383E+03 -0.30510590289E+03  0.32669120394E+03  0.00000000000E+00 0.  1.
         13    1    5    5    0    0 -0.50379051655E+02  0.20813825175E+02 -0.52795545189E+02  0.75885662387E+02  0.00000000000E+00 0.  1.
        -13    1    5    5    0    0 -0.21820550038E+03 -0.48675176122E+02 -0.65511810189E+02  0.23296933369E+03  0.00000000000E+00 0. -1.
          3    1    6    6  503    0  0.31091107550E+02 -0.24580821589E+02  0.13682372102E+03  0.14244860263E+03  0.00000000000E+00 0. -1.
         -3    1    6    6    0  503  0.16672692138E+03 -0.31472914750E+03  0.61568520251E+03  0.71128093689E+03  0.00000000000E+00 0.  1.
<mgrwt>
<rscale>  0 0.19680346E+04</rscale>
<asrwt>0</asrwt>
<pdfrwt beam="1">  1        2 0.14561951E+00 0.19680346E+04</pdfrwt>
<pdfrwt beam="2">  1       -1 0.15738350E+00 0.19680346E+04</pdfrwt>
<totfact> 0.88745752E+00</totfact>
</mgrwt>
</event>
<event>
12    7  0.1857704E-007  0.1084842E+04  0.7818608E-02  0.9220093E-01
         -1   -1    0    0    0  501 -0.00000000000E+00  0.00000000000E+00  0.49700252621E+03  0.49700252621E+03  0.00000000000E+00 0.  1.
          2   -1    0    0  501    0  0.00000000000E+00 -0.00000000000E+00 -0.59198994887E+03  0.59198994887E+03  0.00000000000E+00 0. -1.
         24    2    1    2    0    0 -0.10315376059E+03  0.26868982956E+02  0.93358461653E+02  0.16321814647E+03  0.81004446820E+02 0.  0.
        254    2    1    2    0    0  0.10315376059E+03 -0.26868982956E+02 -0.18834588431E+03  0.92577432861E+03  0.90012293317E+03 0.  0.
         23    2    4    4    0    0 -0.29020455554E+03 -0.29009257169E+03 -0.13127057256E+03  0.44018493040E+03  0.90324003070E+02 0.  0.
         23    2    4    4    0    0  0.39335831613E+03  0.26322358873E+03 -0.57075311751E+02  0.48558939821E+03  0.92314949557E+02 0.  0.
          2    1    3    3  502    0 -0.12484490332E+02  0.36688840946E+02  0.10876219305E+02  0.40252027218E+02  0.00000000000E+00 0. -1.
         -1    1    3    3    0  502 -0.90669270259E+02 -0.98198579896E+01  0.82482242348E+02  0.12296611925E+03  0.00000000000E+00 0.  1.
         13    1    5    5    0    0 -0.36304199873E+02 -0.23654171020E+01 -0.96729483909E+01  0.37645133245E+02  0.00000000000E+00 0.  1.
        -13    1    5    5    0    0 -0.25390035567E+03 -0.28772715458E+03 -0.12159762416E+03  0.40253979716E+03  0.00000000000E+00 0. -1.
          1    1    6    6  503    0  0.23090965686E+03  0.18421979885E+03  0.24246653198E+01  0.29540156215E+03  0.00000000000E+00 0. -1.
         -1    1    6    6    0  503  0.16244865927E+03  0.79003789880E+02 -0.59499977071E+02  0.19018783606E+03  0.00000000000E+00 0.  1.
<mgrwt>
<rscale>  0 0.10848419E+04</rscale>
<asrwt>0</asrwt>
<pdfrwt beam="1">  1        2 0.91075377E-01 0.10848419E+04</pdfrwt>
<pdfrwt beam="2">  1       -1 0.76461927E-01 0.10848419E+04</pdfrwt>
<totfact> 0.98340248E+01</totfact>
</mgrwt>
</event>
<event>
12    7  0.1857704E-007  0.1611228E+04  0.7818608E-02  0.8813680E-01
         -1   -1    0    0    0  501 -0.00000000000E+00  0.00000000000E+00  0.31824225759E+03  0.31824225759E+03  0.00000000000E+00 0.  1.
          2   -1    0    0  501    0  0.00000000000E+00 -0.00000000000E+00 -0.20393697642E+04  0.20393697642E+04  0.00000000000E+00 0. -1.
         24    2    1    2    0    0 -0.85310360778E+02 -0.25688961442E+03  0.93707375496E+02  0.29595493263E+03  0.74418534486E+02 0.  0.
        254    2    1    2    0    0  0.85310360778E+02  0.25688961442E+03 -0.18148348821E+04  0.20616570892E+04  0.93996498464E+03 0.  0.
         23    2    4    4    0    0  0.27053764319E+03 -0.54624144197E+01 -0.80394347382E+02  0.29539313461E+03  0.87025275232E+02 0.  0.
         23    2    4    4    0    0 -0.18522728242E+03  0.26235202884E+03 -0.17344405348E+04  0.17662639546E+04  0.90921149710E+02 0.  0.
          4    1    3    3  502    0 -0.51921031149E+02 -0.54184022579E+02  0.19621942716E+02  0.77567534539E+02  0.00000000000E+00 0. -1.
         -3    1    3    3    0  502 -0.33389329628E+02 -0.20270559184E+03  0.74085432780E+02  0.21838739809E+03  0.00000000000E+00 0.  1.
         13    1    5    5    0    0  0.19262106370E+03 -0.36748172748E+02 -0.32619489273E+02  0.19878967142E+03  0.00000000000E+00 0.  1.
        -13    1    5    5    0    0  0.77916579489E+02  0.31285758328E+02 -0.47774858109E+02  0.96603463192E+02  0.00000000000E+00 0. -1.
          2    1    6    6  503    0 -0.57513974393E+02  0.23439432807E+02 -0.27946839015E+03  0.28628629963E+03  0.00000000000E+00 0. -1.
         -2    1    6    6    0  503 -0.12771330802E+03  0.23891259603E+03 -0.14549721446E+04  0.14799776550E+04  0.00000000000E+00 0.  1.
<mgrwt>
<rscale>  0 0.16112277E+04</rscale>
<asrwt>0</asrwt>
<pdfrwt beam="1">  1        2 0.31374919E+00 0.16112277E+04</pdfrwt>
<pdfrwt beam="2">  1       -1 0.48960348E-01 0.16112277E+04</pdfrwt>
<totfact> 0.28968258E+01</totfact>
</mgrwt>
</event>
<event>
12    7  0.1857704E-007  0.1875294E+04  0.7818608E-02  0.8667253E-01
         -1   -1    0    0    0  501 -0.00000000000E+00  0.00000000000E+00  0.95921910488E+03  0.95921910488E+03  0.00000000000E+00 0.  1.
          2   -1    0    0  501    0  0.00000000000E+00 -0.00000000000E+00 -0.91655964666E+03  0.91655964666E+03  0.00000000000E+00 0. -1.
         24    2    1    2    0    0  0.55025156471E+02 -0.42873160692E+02 -0.70053860571E+03  0.70836776064E+03  0.78515415570E+02 0.  0.
        254    2    1    2    0    0 -0.55025156471E+02  0.42873160692E+02  0.74319806394E+03  0.11674109909E+04  0.89757405470E+03 0.  0.
         23    2    4    4    0    0 -0.31133815429E+03 -0.33381596807E+02 -0.46360924973E+02  0.32895891461E+03  0.89548058688E+02 0.  0.
         23    2    4    4    0    0  0.25631299782E+03  0.76254757499E+02  0.78955898891E+03  0.83845207629E+03  0.89929674573E+02 0.  0.
          2    1    3    3  502    0  0.31669350495E+02  0.33368959895E+01 -0.50774141078E+03  0.50873905183E+03  0.00000000000E+00 0. -1.
         -1    1    3    3    0  502  0.23355805977E+02 -0.46210056681E+02 -0.19279719492E+03  0.19962870881E+03  0.00000000000E+00 0.  1.
         13    1    5    5    0    0 -0.26012141886E+03 -0.41808958334E+02 -0.65451112812E+01  0.26354123022E+03  0.00000000000E+00 0.  1.
        -13    1    5    5    0    0 -0.51216735431E+02  0.84273615269E+01 -0.39815813692E+02  0.65417684387E+02  0.00000000000E+00 0. -1.
          4    1    6    6  503    0  0.90549259871E+02 -0.10528527789E+00  0.17052479881E+03  0.19307482114E+03  0.00000000000E+00 0. -1.
         -4    1    6    6    0  503  0.16576373795E+03  0.76360042777E+02  0.61903419009E+03  0.64537725514E+03  0.00000000000E+00 0.  1.
<mgrwt>
<rscale>  0 0.18752936E+04</rscale>
<asrwt>0</asrwt>
<pdfrwt beam="1">  1        2 0.14100918E+00 0.18752936E+04</pdfrwt>
<pdfrwt beam="2">  1       -1 0.14757217E+00 0.18752936E+04</pdfrwt>
<totfact> 0.11156115E+01</totfact>
</mgrwt>
</event>
<event>
12    7  0.1857704E-007  0.1386769E+04  0.7818608E-02  0.8963452E-01
          2   -1    0    0  501    0  0.00000000000E+00  0.00000000000E+00  0.18364194518E+04  0.18364194518E+04  0.00000000000E+00 0. -1.
         -1   -1    0    0    0  501 -0.00000000000E+00 -0.00000000000E+00 -0.26180421420E+03  0.26180421420E+03  0.00000000000E+00 0.  1.
         24    2    1    2    0    0 -0.14449854463E+03 -0.15744270479E+02  0.96118440179E+03  0.97536723324E+03  0.79612021580E+02 0.  0.
        254    2    1    2    0    0  0.14449854463E+03  0.15744270479E+02  0.61343083579E+03  0.11228564327E+04  0.92918322563E+03 0.  0.
         23    2    4    4    0    0 -0.95277264308E+01 -0.19914407472E+03 -0.17830633748E+03  0.28302571444E+03  0.92527104033E+02 0.  0.
         23    2    4    4    0    0  0.15402627106E+03  0.21488834520E+03  0.79173717327E+03  0.83983071830E+03  0.92556959668E+02 0.  0.
          2    1    3    3  502    0 -0.12127902412E+03 -0.26642290293E+02  0.57122371940E+03  0.58456389807E+03  0.00000000000E+00 0. -1.
         -1    1    3    3    0  502 -0.23219520513E+02  0.10898019814E+02  0.38996068240E+03  0.39080333517E+03  0.00000000000E+00 0.  1.
         13    1    5    5    0    0 -0.20200344097E+02 -0.17341487204E+03 -0.18500471338E+03  0.25437672008E+03  0.00000000000E+00 0. -1.
        -13    1    5    5    0    0  0.10672617667E+02 -0.25729202674E+02  0.66983758932E+01  0.28648994358E+02  0.00000000000E+00 0.  1.
          2    1    6    6  503    0  0.11638221673E+03  0.11779302162E+03  0.36892619655E+03  0.40438416736E+03  0.00000000000E+00 0.  1.
         -2    1    6    6    0  503  0.37644054331E+02  0.97095323580E+02  0.42281097672E+03  0.43544655094E+03  0.00000000000E+00 0. -1.
<mgrwt>
<rscale>  0 0.13867694E+04</rscale>
<asrwt>0</asrwt>
<pdfrwt beam="1">  1        2 0.28252606E+00 0.13867694E+04</pdfrwt>
<pdfrwt beam="2">  1       -1 0.40277573E-01 0.13867694E+04</pdfrwt>
<totfact> 0.54983997E+01</totfact>
</mgrwt>
</event>
<event>
12    7  0.1857704E-007  0.2601398E+04  0.7818608E-02  0.8367726E-01
         -1   -1    0    0    0  501 -0.00000000000E+00  0.00000000000E+00  0.92045120017E+03  0.92045120017E+03  0.00000000000E+00 0.  1.
          2   -1    0    0  501    0  0.00000000000E+00 -0.00000000000E+00 -0.18380317251E+04  0.18380317251E+04  0.00000000000E+00 0. -1.
         24    2    1    2    0    0  0.36672768820E+03  0.22654401838E+03 -0.15258675770E+04  0.15875317046E+04  0.78572648660E+02 0.  0.
        254    2    1    2    0    0 -0.36672768820E+03 -0.22654401838E+03  0.60828705208E+03  0.11709512206E+04  0.90294088057E+03 0.  0.
         23    2    4    4    0    0  0.26928249167E+03 -0.13985351893E+03  0.34998973856E+03  0.47283748894E+03  0.94923162461E+02 0.  0.
         23    2    4    4    0    0 -0.63601017988E+03 -0.86690499450E+02  0.25829731353E+03  0.69811373169E+03  0.92849817467E+02 0.  0.
          4    1    3    3  502    0  0.19799250489E+03  0.15650049881E+03 -0.97630967765E+03  0.10084017180E+04  0.00000000000E+00 0. -1.
         -3    1    3    3    0  502  0.16873518331E+03  0.70043519569E+02 -0.54955789936E+03  0.57912998668E+03  0.00000000000E+00 0.  1.
         13    1    5    5    0    0  0.88463333338E+02 -0.18768519780E+02  0.16077862805E+03  0.18446621891E+03  0.00000000000E+00 0.  1.
        -13    1    5    5    0    0  0.18081915833E+03 -0.12108499915E+03  0.18921111050E+03  0.28837127003E+03  0.00000000000E+00 0. -1.
          2    1    6    6  503    0 -0.21877281637E+03 -0.64771634958E+02  0.61680639198E+02  0.23635018750E+03  0.00000000000E+00 0.  1.
         -2    1    6    6    0  503 -0.41723736351E+03 -0.21918864492E+02  0.19661667433E+03  0.46176354420E+03  0.00000000000E+00 0. -1.
<mgrwt>
<rscale>  0 0.26013985E+04</rscale>
<asrwt>0</asrwt>
<pdfrwt beam="1">  1        2 0.28277411E+00 0.26013985E+04</pdfrwt>
<pdfrwt beam="2">  1       -1 0.14160788E+00 0.26013985E+04</pdfrwt>
<totfact> 0.33656020E+00</totfact>
</mgrwt>
</event>
<event>
12    7  0.1857704E-007  0.2040842E+04  0.7818608E-02  0.8587760E-01
          2   -1    0    0  501    0  0.00000000000E+00  0.00000000000E+00  0.20145352216E+04  0.20145352216E+04  0.00000000000E+00 0. -1.
         -1   -1    0    0    0  501 -0.00000000000E+00 -0.00000000000E+00 -0.51687305598E+03  0.51687305598E+03  0.00000000000E+00 0.  1.
         24    2    1    2    0    0 -0.76393123424E+03 -0.64749552051E+02  0.95047492141E+03  0.12240222326E+04  0.83931010070E+02 0.  0.
        254    2    1    2    0    0  0.76393123424E+03  0.64749552051E+02  0.54718724417E+03  0.13073860450E+04  0.90667577184E+03 0.  0.
         23    2    4    4    0    0  0.74650519204E+03  0.37054307736E+03  0.51954898327E+03  0.98627501116E+03  0.90747328855E+02 0.  0.
         23    2    4    4    0    0  0.17426042201E+02 -0.30579352530E+03  0.27638260893E+02  0.32111103380E+03  0.92385472346E+02 0.  0.
          4    1    3    3  502    0 -0.57539755047E+03 -0.67126036335E+02  0.76446021033E+03  0.95915987146E+03  0.00000000000E+00 0. -1.
         -3    1    3    3    0  502 -0.18853368377E+03  0.23764842841E+01  0.18601471108E+03  0.26486236111E+03  0.00000000000E+00 0.  1.
         13    1    5    5    0    0  0.73115694584E+03  0.36355928738E+03  0.52212584005E+03  0.96921681153E+03  0.00000000000E+00 0. -1.
        -13    1    5    5    0    0  0.15348246196E+02  0.69837899712E+01 -0.25768567815E+01  0.17058199628E+02  0.00000000000E+00 0.  1.
          1    1    6    6  503    0 -0.17244647746E+01 -0.21642344419E+03 -0.21228284558E+02  0.21746889671E+03  0.00000000000E+00 0. -1.
         -1    1    6    6    0  503  0.19150506975E+02 -0.89370081116E+02  0.48866545451E+02  0.10364213709E+03  0.00000000000E+00 0.  1.
<mgrwt>
<rscale>  0 0.20408420E+04</rscale>
<asrwt>0</asrwt>
<pdfrwt beam="1">  1        2 0.30992849E+00 0.20408420E+04</pdfrwt>
<pdfrwt beam="2">  1       -1 0.79518933E-01 0.20408420E+04</pdfrwt>
<totfact> 0.10923290E+01</totfact>
</mgrwt>
</event>
<event>
12    7  0.1857704E-007  0.1876606E+04  0.7818608E-02  0.8666590E-01
         -1   -1    0    0    0  501 -0.00000000000E+00  0.00000000000E+00  0.20457063840E+04  0.20457063840E+04  0.00000000000E+00 0.  1.
          2   -1    0    0  501    0  0.00000000000E+00 -0.00000000000E+00 -0.43037080673E+03  0.43037080673E+03  0.00000000000E+00 0. -1.
         24    2    1    2    0    0 -0.39469585954E+03  0.41944540699E+03  0.11922807743E+04  0.13266622200E+04  0.82340331448E+02 0.  0.
        254    2    1    2    0    0  0.39469585954E+03 -0.41944540699E+03  0.42305480295E+03  0.11494149707E+04  0.90025559572E+03 0.  0.
         23    2    4    4    0    0  0.42099516946E+03 -0.33510206982E+03  0.67444105445E+03  0.86762145447E+03  0.91465416549E+02 0.  0.
         23    2    4    4    0    0 -0.26299309919E+02 -0.84343337179E+02 -0.25138625150E+03  0.28179351625E+03  0.91690163751E+02 0.  0.
          2    1    3    3  502    0 -0.22602101739E+03  0.22295256212E+03  0.56611688469E+03  0.64906214832E+03  0.00000000000E+00 0. -1.
         -1    1    3    3    0  502 -0.16867484216E+03  0.19649284487E+03  0.62616388962E+03  0.67760007167E+03  0.00000000000E+00 0.  1.
         13    1    5    5    0    0  0.21358236292E+03 -0.11217036542E+03  0.29200328256E+03  0.37876844332E+03  0.00000000000E+00 0. -1.
        -13    1    5    5    0    0  0.20741280654E+03 -0.22293170440E+03  0.38243777189E+03  0.48885301115E+03  0.00000000000E+00 0.  1.
          4    1    6    6  503    0 -0.49208071609E+02 -0.89014484980E+02 -0.18092384283E+03  0.20755348649E+03  0.00000000000E+00 0. -1.
         -4    1    6    6    0  503  0.22908761690E+02  0.46711478011E+01 -0.70462408669E+02  0.74240029764E+02  0.00000000000E+00 0.  1.
<mgrwt>
<rscale>  0 0.18766058E+04</rscale>
<asrwt>0</asrwt>
<pdfrwt beam="1">  1        2 0.66210895E-01 0.18766058E+04</pdfrwt>
<pdfrwt beam="2">  1       -1 0.31472405E+00 0.18766058E+04</pdfrwt>
<totfact> 0.20820736E+00</totfact>
</mgrwt>
</event>
<event>
12    7  0.1857704E-007  0.1737847E+04  0.7818608E-02  0.8740069E-01
          2   -1    0    0  501    0  0.00000000000E+00  0.00000000000E+00  0.22763164203E+04  0.22763164203E+04  0.00000000000E+00 0. -1.
         -1   -1    0    0    0  501 -0.00000000000E+00 -0.00000000000E+00 -0.33168844993E+03  0.33168844993E+03  0.00000000000E+00 0.  1.
         24    2    1    2    0    0  0.30330345433E+03  0.19519437323E+03  0.15064921902E+04  0.15511737542E+04  0.80792746899E+02 0.  0.
        254    2    1    2    0    0 -0.30330345433E+03 -0.19519437323E+03  0.43813578020E+03  0.10568311160E+04  0.89153531459E+03 0.  0.
         23    2    4    4    0    0 -0.58002670836E+03  0.36460556338E+02  0.27439611968E+03  0.64923223399E+03  0.91917944772E+02 0.  0.
         23    2    4    4    0    0  0.27672325404E+03 -0.23165492956E+03  0.16373966052E+03  0.40759888204E+03  0.95322644195E+02 0.  0.
          4    1    3    3  502    0  0.23362880104E+03  0.11306771395E+03  0.11406923322E+04  0.11698485891E+04  0.00000000000E+00 0. -1.
         -3    1    3    3    0  502  0.69674653291E+02  0.82126659279E+02  0.36579985798E+03  0.38132516515E+03  0.00000000000E+00 0.  1.
         13    1    5    5    0    0 -0.52313308953E+03  0.38352331452E+02  0.27510617867E+03  0.59230274373E+03  0.00000000000E+00 0. -1.
        -13    1    5    5    0    0 -0.56893618830E+02 -0.18917751130E+01 -0.71005899470E+00  0.56929490253E+02  0.00000000000E+00 0.  1.
          3    1    6    6  503    0  0.10045894621E+03 -0.38772159550E+02  0.20478860516E+02  0.10961142257E+03  0.00000000000E+00 0. -1.
         -3    1    6    6    0  503  0.17626430782E+03 -0.19288277001E+03  0.14326080001E+03  0.29798745947E+03  0.00000000000E+00 0.  1.
<mgrwt>
<rscale>  0 0.17378468E+04</rscale>
<asrwt>0</asrwt>
<pdfrwt beam="1">  1        2 0.35020252E+00 0.17378468E+04</pdfrwt>
<pdfrwt beam="2">  1       -1 0.51028994E-01 0.17378468E+04</pdfrwt>
<totfact> 0.19515790E+01</totfact>
</mgrwt>
</event>
<event>
12    7  0.1857704E-007  0.4495018E+04  0.7818608E-02  0.7911510E-01
         -1   -1    0    0    0  501 -0.00000000000E+00  0.00000000000E+00  0.21940915272E+04  0.21940915272E+04  0.00000000000E+00 0.  1.
          2   -1    0    0  501    0  0.00000000000E+00 -0.00000000000E+00 -0.23022267976E+04  0.23022267976E+04  0.00000000000E+00 0. -1.
         24    2    1    2    0    0 -0.91930594842E+03  0.48893824928E+03 -0.19422560761E+04  0.22052653494E+04  0.81563212397E+02 0.  0.
        254    2    1    2    0    0  0.91930594842E+03 -0.48893824928E+03  0.18341208056E+04  0.22910529754E+04  0.89484108553E+03 0.  0.
         23    2    4    4    0    0  0.63430028923E+03 -0.73355159111E+03  0.14482634093E+04  0.17453772108E+04  0.91868991764E+02 0.  0.
         23    2    4    4    0    0  0.28500565920E+03  0.24461334183E+03  0.38585739629E+03  0.54567576460E+03  0.88386633772E+02 0.  0.
          4    1    3    3  502    0 -0.54744561775E+03  0.32907912923E+03 -0.11432714652E+04  0.13096027721E+04  0.00000000000E+00 0. -1.
         -3    1    3    3    0  502 -0.37186033067E+03  0.15985912005E+03 -0.79898461090E+03  0.89566257723E+03  0.00000000000E+00 0.  1.
         13    1    5    5    0    0  0.14855193378E+03 -0.22575281468E+03  0.36518259630E+03  0.45430203501E+03  0.00000000000E+00 0.  1.
        -13    1    5    5    0    0  0.48574835544E+03 -0.50779877643E+03  0.10830808130E+04  0.12910751758E+04  0.00000000000E+00 0. -1.
          3    1    6    6  503    0  0.73317071876E+02  0.86350300768E+02  0.67360407851E+02  0.13179223049E+03  0.00000000000E+00 0. -1.
         -3    1    6    6    0  503  0.21168858732E+03  0.15826304106E+03  0.31849698844E+03  0.41388353411E+03  0.00000000000E+00 0.  1.
<mgrwt>
<rscale>  0 0.44950178E+04</rscale>
<asrwt>0</asrwt>
<pdfrwt beam="1">  1        2 0.35418874E+00 0.44950178E+04</pdfrwt>
<pdfrwt beam="2">  1       -1 0.33755254E+00 0.44950178E+04</pdfrwt>
<totfact> 0.73192595E-02</totfact>
</mgrwt>
</event>
<event>
12    7  0.1857704E-007  0.1440823E+04  0.7818608E-02  0.8924788E-01
         -1   -1    0    0    0  501 -0.00000000000E+00  0.00000000000E+00  0.29019345268E+03  0.29019345268E+03  0.00000000000E+00 0.  1.
          2   -1    0    0  501    0  0.00000000000E+00 -0.00000000000E+00 -0.17884365440E+04  0.17884365440E+04  0.00000000000E+00 0. -1.
         24    2    1    2    0    0  0.71681632554E+02  0.11454872444E+03  0.13458876829E+03  0.20510759469E+03  0.75467358068E+02 0.  0.
        254    2    1    2    0    0 -0.71681632554E+02 -0.11454872444E+03 -0.16328318596E+04  0.18735224020E+04  0.90867301174E+03 0.  0.
         23    2    4    4    0    0 -0.72373011428E+02  0.37674472063E+03 -0.93818472784E+03  0.10177520898E+04  0.91947242586E+02 0.  0.
         23    2    4    4    0    0  0.69137887389E+00 -0.49129344507E+03 -0.69464713176E+03  0.85577031218E+03  0.91861103752E+02 0.  0.
          2    1    3    3  502    0  0.21861350446E+02  0.75095503544E+02  0.32161336315E+02  0.84567161767E+02  0.00000000000E+00 0. -1.
         -1    1    3    3    0  502  0.49820282108E+02  0.39453220894E+02  0.10242743197E+03  0.12054043292E+03  0.00000000000E+00 0.  1.
         13    1    5    5    0    0 -0.47503105591E+02  0.17231887177E+03 -0.55012670923E+03  0.57843732143E+03  0.00000000000E+00 0. -1.
        -13    1    5    5    0    0 -0.24869905837E+02  0.20442584886E+03 -0.38805801860E+03  0.43931476836E+03  0.00000000000E+00 0.  1.
          3    1    6    6  503    0 -0.32151156501E+01 -0.44453180016E+03 -0.57185994992E+03  0.72432220776E+03  0.00000000000E+00 0. -1.
         -3    1    6    6    0  503  0.39064945240E+01 -0.46761644900E+02 -0.12278718184E+03  0.13144810442E+03  0.00000000000E+00 0.  1.
<mgrwt>
<rscale>  0 0.14408228E+04</rscale>
<asrwt>0</asrwt>
<pdfrwt beam="1">  1        2 0.27514408E+00 0.14408228E+04</pdfrwt>
<pdfrwt beam="2">  1       -1 0.44645147E-01 0.14408228E+04</pdfrwt>
<totfact> 0.48122923E+01</totfact>
</mgrwt>
</event>
<event>
12    7  0.1857704E-007  0.1953609E+04  0.7818608E-02  0.8628622E-01
         -1   -1    0    0    0  501 -0.00000000000E+00  0.00000000000E+00  0.66171120079E+03  0.66171120079E+03  0.00000000000E+00 0.  1.
          2   -1    0    0  501    0  0.00000000000E+00 -0.00000000000E+00 -0.14419389863E+04  0.14419389863E+04  0.00000000000E+00 0. -1.
         24    2    1    2    0    0 -0.74311941652E+03 -0.19086733810E+03 -0.30493122904E+03  0.83003186395E+03  0.85516271993E+02 0.  0.
        254    2    1    2    0    0  0.74311941652E+03  0.19086733810E+03 -0.47529655651E+03  0.12736183232E+04  0.89863229886E+03 0.  0.
         23    2    4    4    0    0  0.40284725387E+03  0.53559583835E+02 -0.71458403816E+03  0.82637981817E+03  0.84372491473E+02 0.  0.
         23    2    4    4    0    0  0.34027216264E+03  0.13730775426E+03  0.23928748165E+03  0.44723850501E+03  0.90139988002E+02 0.  0.
          4    1    3    3  502    0 -0.21758778578E+03 -0.52517286805E+02 -0.48030738290E+02  0.22893112885E+03  0.00000000000E+00 0. -1.
         -3    1    3    3    0  502 -0.52553163073E+03 -0.13835005129E+03 -0.25690049075E+03  0.60110073510E+03  0.00000000000E+00 0.  1.
         13    1    5    5    0    0  0.16344168707E+02 -0.10122591294E+02 -0.14211097867E+02  0.23907195733E+02  0.00000000000E+00 0. -1.
        -13    1    5    5    0    0  0.38650308516E+03  0.63682175128E+02 -0.70037294029E+03  0.80247262244E+03  0.00000000000E+00 0.  1.
          3    1    6    6  503    0  0.35504305344E+02  0.30501361405E+02  0.26568415226E+01  0.46882273328E+02  0.00000000000E+00 0. -1.
         -3    1    6    6    0  503  0.30476785730E+03  0.10680639286E+03  0.23663064013E+03  0.40035623168E+03  0.00000000000E+00 0.  1.
<mgrwt>
<rscale>  0 0.19536092E+04</rscale>
<asrwt>0</asrwt>
<pdfrwt beam="1">  1        2 0.22183676E+00 0.19536092E+04</pdfrwt>
<pdfrwt beam="2">  1       -1 0.10180173E+00 0.19536092E+04</pdfrwt>
<totfact> 0.13311877E+01</totfact>
</mgrwt>
</event>
<event>
12    7  0.1857704E-007  0.4241668E+04  0.7818608E-02  0.7957493E-01
          2   -1    0    0  501    0  0.00000000000E+00  0.00000000000E+00  0.23646212520E+04  0.23646212520E+04  0.00000000000E+00 0. -1.
         -1   -1    0    0    0  501 -0.00000000000E+00 -0.00000000000E+00 -0.19021810618E+04  0.19021810618E+04  0.00000000000E+00 0.  1.
         24    2    1    2    0    0  0.44641379397E+03  0.19739501661E+04  0.26183942068E+03  0.20422799607E+04  0.81135823645E+02 0.  0.
        254    2    1    2    0    0 -0.44641379397E+03 -0.19739501661E+04  0.20060076950E+03  0.22245223530E+04  0.90138476611E+03 0.  0.
         23    2    4    4    0    0 -0.23950353542E+03 -0.27994435022E+02  0.31095516020E+02  0.25813688890E+03  0.86729985748E+02 0.  0.
         23    2    4    4    0    0 -0.20691025855E+03 -0.19459557311E+04  0.16950525348E+03  0.19663854641E+04  0.91565277339E+02 0.  0.
          4    1    3    3  502    0  0.43494155667E+03  0.18475619681E+04  0.23493516913E+03  0.19125516771E+04  0.00000000000E+00 0. -1.
         -3    1    3    3    0  502  0.11472237303E+02  0.12638819802E+03  0.26904251552E+02  0.12972828365E+03  0.00000000000E+00 0.  1.
         13    1    5    5    0    0 -0.21427792123E+03  0.31858906897E+01  0.14689606171E+02  0.21480447378E+03  0.00000000000E+00 0.  1.
        -13    1    5    5    0    0 -0.25225614184E+02 -0.31180325712E+02  0.16405909849E+02  0.43332415123E+02  0.00000000000E+00 0. -1.
          1    1    6    6  503    0 -0.13665327497E+02 -0.26323506440E+02  0.46375709060E+01  0.30019580790E+02  0.00000000000E+00 0. -1.
         -1    1    6    6    0  503 -0.19324493106E+03 -0.19196322247E+04  0.16486768257E+03  0.19363658833E+04  0.00000000000E+00 0.  1.
<mgrwt>
<rscale>  0 0.42416684E+04</rscale>
<asrwt>0</asrwt>
<pdfrwt beam="1">  1        2 0.36378788E+00 0.42416684E+04</pdfrwt>
<pdfrwt beam="2">  1       -1 0.29264324E+00 0.42416684E+04</pdfrwt>
<totfact> 0.13506426E-01</totfact>
</mgrwt>
</event>
<event>
12    7  0.1857704E-007  0.2172296E+04  0.7818608E-02  0.8530049E-01
         -1   -1    0    0    0  501 -0.00000000000E+00  0.00000000000E+00  0.47079175119E+03  0.47079175119E+03  0.00000000000E+00 0.  1.
          2   -1    0    0  501    0  0.00000000000E+00 -0.00000000000E+00 -0.25058151843E+04  0.25058151843E+04  0.00000000000E+00 0. -1.
         24    2    1    2    0    0  0.38189539794E+03  0.24907017996E+03 -0.19070363573E+04  0.19622954746E+04  0.77044220830E+02 0.  0.
        254    2    1    2    0    0 -0.38189539794E+03 -0.24907017996E+03 -0.12798707577E+03  0.10143114609E+04  0.89697658754E+03 0.  0.
         23    2    4    4    0    0 -0.66788150786E+03 -0.16877786083E+03 -0.90293041654E+02  0.70155277299E+03  0.97323096255E+02 0.  0.
         23    2    4    4    0    0  0.28598610992E+03 -0.80292319121E+02 -0.37694034117E+02  0.31275868789E+03  0.90345144117E+02 0.  0.
          2    1    3    3  502    0  0.16584936394E+03  0.73460601084E+02 -0.65303230647E+03  0.67775634613E+03  0.00000000000E+00 0. -1.
         -1    1    3    3    0  502  0.21604603400E+03  0.17560957887E+03 -0.12540040508E+04  0.12845391284E+04  0.00000000000E+00 0.  1.
         13    1    5    5    0    0 -0.46053116620E+03 -0.70409191783E+02 -0.50243600648E+02  0.46858385454E+03  0.00000000000E+00 0. -1.
        -13    1    5    5    0    0 -0.20735034166E+03 -0.98368669051E+02 -0.40049441006E+02  0.23296891845E+03  0.00000000000E+00 0.  1.
          3    1    6    6  503    0  0.26452384126E+03 -0.83319503737E+02 -0.98997196808E+01  0.27751217405E+03  0.00000000000E+00 0. -1.
         -3    1    6    6    0  503  0.21462268663E+02  0.30271846162E+01 -0.27794314436E+02  0.35246513839E+02  0.00000000000E+00 0.  1.
<mgrwt>
<rscale>  0 0.21722957E+04</rscale>
<asrwt>0</asrwt>
<pdfrwt beam="1">  1        2 0.38551003E+00 0.21722957E+04</pdfrwt>
<pdfrwt beam="2">  1       -1 0.72429501E-01 0.21722957E+04</pdfrwt>
<totfact> 0.69254108E+00</totfact>
</mgrwt>
</event>
<event>
12    7  0.1857704E-007  0.1541486E+04  0.7818608E-02  0.8857325E-01
         -1   -1    0    0    0  501 -0.00000000000E+00  0.00000000000E+00  0.81787773508E+03  0.81787773508E+03  0.00000000000E+00 0.  1.
          2   -1    0    0  501    0  0.00000000000E+00 -0.00000000000E+00 -0.72632425372E+03  0.72632425372E+03  0.00000000000E+00 0. -1.
         24    2    1    2    0    0  0.46107913062E+03  0.14153479683E+02 -0.17770445771E+03  0.50054972421E+03  0.78593043160E+02 0.  0.
        254    2    1    2    0    0 -0.46107913062E+03 -0.14153479683E+02  0.26925793908E+03  0.10436522646E+04  0.89661358786E+03 0.  0.
         23    2    4    4    0    0 -0.13621367979E+03 -0.10632884751E+03 -0.31107989453E+03  0.36741592724E+03  0.91453662770E+02 0.  0.
         23    2    4    4    0    0 -0.32486545084E+03  0.92175367824E+02  0.58033783361E+03  0.67623633734E+03  0.80434589811E+02 0.  0.
          2    1    3    3  502    0  0.45433297115E+03  0.14460621386E+02 -0.16049806384E+03  0.48206554195E+03  0.00000000000E+00 0. -1.
         -1    1    3    3    0  502  0.67461594791E+01 -0.30714170296E+00 -0.17206393872E+02  0.18484182260E+02  0.00000000000E+00 0.  1.
         13    1    5    5    0    0 -0.11693541077E+03 -0.60574037231E+02 -0.15376509905E+03  0.20245199422E+03  0.00000000000E+00 0.  1.
        -13    1    5    5    0    0 -0.19278269022E+02 -0.45754810275E+02 -0.15731479549E+03  0.16496393302E+03  0.00000000000E+00 0. -1.
          1    1    6    6  503    0 -0.18455062850E+03  0.47813451846E+02  0.24828075792E+03  0.31303098155E+03  0.00000000000E+00 0. -1.
         -1    1    6    6    0  503 -0.14031482233E+03  0.44361915977E+02  0.33205707570E+03  0.36320535579E+03  0.00000000000E+00 0.  1.
<mgrwt>
<rscale>  0 0.15414856E+04</rscale>
<asrwt>0</asrwt>
<pdfrwt beam="1">  1        2 0.11174219E+00 0.15414856E+04</pdfrwt>
<pdfrwt beam="2">  1       -1 0.12582734E+00 0.15414856E+04</pdfrwt>
<totfact> 0.23674153E+01</totfact>
</mgrwt>
</event>
<event>
12    7  0.1857704E-007  0.2749695E+04  0.7818608E-02  0.8319058E-01
          2   -1    0    0  501    0  0.00000000000E+00  0.00000000000E+00  0.83365212245E+03  0.83365212245E+03  0.00000000000E+00 0. -1.
         -1   -1    0    0    0  501 -0.00000000000E+00 -0.00000000000E+00 -0.22673791884E+04  0.22673791884E+04  0.00000000000E+00 0.  1.
         24    2    1    2    0    0 -0.54783595824E+02 -0.70366925544E+03 -0.17649930389E+04  0.19025755938E+04  0.80260819918E+02 0.  0.
        254    2    1    2    0    0  0.54783595824E+02  0.70366925544E+03  0.33126597297E+03  0.11984557171E+04  0.91016882910E+03 0.  0.
         23    2    4    4    0    0  0.29711576580E+03 -0.41864043808E+02 -0.56174893184E+02  0.31870765412E+03  0.91589157204E+02 0.  0.
         23    2    4    4    0    0 -0.24233216998E+03  0.74553329925E+03  0.38744086616E+03  0.87974806294E+03  0.96444017819E+02 0.  0.
          2    1    3    3  502    0  0.19362249490E+02 -0.24012516060E+03 -0.60237280384E+03  0.64875880284E+03  0.00000000000E+00 0. -1.
         -1    1    3    3    0  502 -0.74145845313E+02 -0.46354409484E+03 -0.11626202351E+04  0.12538167910E+04  0.00000000000E+00 0.  1.
         13    1    5    5    0    0  0.92302115081E+02  0.29377110241E+02 -0.16638916536E+02  0.98283002590E+02  0.00000000000E+00 0. -1.
        -13    1    5    5    0    0  0.20481365072E+03 -0.71241154050E+02 -0.39535976648E+02  0.22042465153E+03  0.00000000000E+00 0.  1.
          4    1    6    6  503    0 -0.94264132373E+02  0.18483539333E+03  0.72217387208E+02  0.21969342342E+03  0.00000000000E+00 0. -1.
         -4    1    6    6    0  503 -0.14806803761E+03  0.56069790592E+03  0.31522347895E+03  0.66005463951E+03  0.00000000000E+00 0.  1.
<mgrwt>
<rscale>  0 0.27496949E+04</rscale>
<asrwt>0</asrwt>
<pdfrwt beam="1">  1        2 0.12825417E+00 0.27496949E+04</pdfrwt>
<pdfrwt beam="2">  1       -1 0.34882756E+00 0.27496949E+04</pdfrwt>
<totfact> 0.51352774E-01</totfact>
</mgrwt>
</event>
<event>
12    7  0.1857704E-007  0.2064423E+04  0.7818608E-02  0.8577079E-01
         -1   -1    0    0    0  501 -0.00000000000E+00  0.00000000000E+00  0.11373942073E+04  0.11373942073E+04  0.00000000000E+00 0.  1.
          2   -1    0    0  501    0  0.00000000000E+00 -0.00000000000E+00 -0.93675541343E+03  0.93675541343E+03  0.00000000000E+00 0. -1.
         24    2    1    2    0    0 -0.35317259243E+03  0.77154475878E+03  0.32951573031E+03  0.91376085418E+03  0.79787763807E+02 0.  0.
        254    2    1    2    0    0  0.35317259243E+03 -0.77154475878E+03 -0.12887693649E+03  0.11603887665E+04  0.78094854493E+03 0.  0.
         23    2    4    4    0    0  0.55712640419E+03 -0.69365179509E+03 -0.11479040073E+02  0.89463653723E+03  0.93274446171E+02 0.  0.
         23    2    4    4    0    0 -0.20395381176E+03 -0.77892963689E+02 -0.11739789641E+03  0.26575222927E+03  0.95799322334E+02 0.  0.
          2    1    3    3  502    0 -0.20447324157E+02  0.67802161722E+02  0.70117601740E+01  0.71164534567E+02  0.00000000000E+00 0. -1.
         -1    1    3    3    0  502 -0.33272526828E+03  0.70374259706E+03  0.32250397013E+03  0.84259631961E+03  0.00000000000E+00 0.  1.
         13    1    5    5    0    0  0.53637084236E+03 -0.67854558641E+03  0.34408810844E+01  0.86494487283E+03  0.00000000000E+00 0. -1.
        -13    1    5    5    0    0  0.20755561827E+02 -0.15106208679E+02 -0.14919921157E+02  0.29691664399E+02  0.00000000000E+00 0.  1.
          4    1    6    6  503    0 -0.17972664159E+03 -0.49243241269E+02 -0.12880867723E+03  0.22653529049E+03  0.00000000000E+00 0. -1.
         -4    1    6    6    0  503 -0.24227170167E+02 -0.28649722420E+02  0.11410780812E+02  0.39216938786E+02  0.00000000000E+00 0.  1.
<mgrwt>
<rscale>  0 0.20644226E+04</rscale>
<asrwt>0</asrwt>
<pdfrwt beam="1">  1        2 0.14411622E+00 0.20644226E+04</pdfrwt>
<pdfrwt beam="2">  1       -1 0.17498372E+00 0.20644226E+04</pdfrwt>
<totfact> 0.66084598E+00</totfact>
</mgrwt>
</event>
<event>
12    7  0.1857704E-007  0.1659398E+04  0.7818608E-02  0.8784866E-01
         -1   -1    0    0    0  501 -0.00000000000E+00  0.00000000000E+00  0.24500694014E+03  0.24500694014E+03  0.00000000000E+00 0.  1.
          2   -1    0    0  501    0  0.00000000000E+00 -0.00000000000E+00 -0.28097165263E+04  0.28097165263E+04  0.00000000000E+00 0. -1.
         24    2    1    2    0    0 -0.35022175635E+03  0.75496068460E+02 -0.66255491183E+02  0.37264955743E+03  0.78249393414E+02 0.  0.
        254    2    1    2    0    0  0.35022175635E+03 -0.75496068460E+02 -0.24984540950E+04  0.26820739090E+04  0.90713430852E+03 0.  0.
         23    2    4    4    0    0  0.57522822454E+02 -0.39183715839E+03 -0.54659102448E+03  0.68145557098E+03  0.93673440102E+02 0.  0.
         23    2    4    4    0    0  0.29269893390E+03  0.31634108993E+03 -0.19518630705E+04  0.20006183380E+04  0.83426239222E+02 0.  0.
          4    1    3    3  502    0 -0.63170274407E+02  0.12180825149E+02  0.18104144133E+02  0.66832747248E+02  0.00000000000E+00 0. -1.
         -3    1    3    3    0  502 -0.28705148194E+03  0.63315243311E+02 -0.84359635316E+02  0.30581681019E+03  0.00000000000E+00 0.  1.
         13    1    5    5    0    0  0.48413494058E+02 -0.75393161390E+02 -0.13878123559E+03  0.16519148447E+03  0.00000000000E+00 0.  1.
        -13    1    5    5    0    0  0.91093283969E+01 -0.31644399700E+03 -0.40780978889E+03  0.51626408651E+03  0.00000000000E+00 0. -1.
          3    1    6    6  503    0  0.27803499108E+03  0.26355722632E+03 -0.16570847167E+04  0.17007926464E+04  0.00000000000E+00 0. -1.
         -3    1    6    6    0  503  0.14663942815E+02  0.52783863607E+02 -0.29477835383E+03  0.29982569163E+03  0.00000000000E+00 0.  1.
<mgrwt>
<rscale>  0 0.16593975E+04</rscale>
<asrwt>0</asrwt>
<pdfrwt beam="1">  1        2 0.43226410E+00 0.16593975E+04</pdfrwt>
<pdfrwt beam="2">  1       -1 0.37693374E-01 0.16593975E+04</pdfrwt>
<totfact> 0.16894200E+01</totfact>
</mgrwt>
</event>
<event>
12    7  0.1857704E-007  0.2756109E+04  0.7818608E-02  0.8317026E-01
          2   -1    0    0  501    0  0.00000000000E+00  0.00000000000E+00  0.11492263785E+04  0.11492263785E+04  0.00000000000E+00 0. -1.
         -1   -1    0    0    0  501 -0.00000000000E+00 -0.00000000000E+00 -0.16524458496E+04  0.16524458496E+04  0.00000000000E+00 0.  1.
         24    2    1    2    0    0 -0.48457646326E+03 -0.35576878662E+03 -0.13153446547E+04  0.14484159353E+04  0.79946124288E+02 0.  0.
        254    2    1    2    0    0  0.48457646326E+03  0.35576878662E+03  0.81212518362E+03  0.13532562928E+04  0.90020525537E+03 0.  0.
         23    2    4    4    0    0  0.18116683408E+03 -0.26467845785E+03  0.80215284631E+02  0.34278310427E+03  0.90496722928E+02 0.  0.
         23    2    4    4    0    0  0.30340962918E+03  0.62044724447E+03  0.73190989899E+03  0.10104731885E+04  0.91388063830E+02 0.  0.
          2    1    3    3  502    0 -0.23397289551E+03 -0.13030237098E+03 -0.53155386601E+03  0.59520713721E+03  0.00000000000E+00 0. -1.
         -1    1    3    3    0  502 -0.25060356774E+03 -0.22546641563E+03 -0.78379078870E+03  0.85320879813E+03  0.00000000000E+00 0.  1.
         13    1    5    5    0    0  0.11552472978E+03 -0.20043455635E+03  0.94367967471E+02  0.24985053102E+03  0.00000000000E+00 0.  1.
        -13    1    5    5    0    0  0.65642104305E+02 -0.64243901505E+02 -0.14152682840E+02  0.92932573244E+02  0.00000000000E+00 0. -1.
          3    1    6    6  503    0  0.13242163151E+03  0.19790354977E+03  0.29450067857E+03  0.37872411223E+03  0.00000000000E+00 0. -1.
         -3    1    6    6    0  503  0.17098799766E+03  0.42254369470E+03  0.43740922042E+03  0.63174907628E+03  0.00000000000E+00 0.  1.
<mgrwt>
<rscale>  0 0.27561091E+04</rscale>
<asrwt>0</asrwt>
<pdfrwt beam="1">  1        2 0.17680406E+00 0.27561091E+04</pdfrwt>
<pdfrwt beam="2">  1       -1 0.25422244E+00 0.27561091E+04</pdfrwt>
<totfact> 0.13233356E+00</totfact>
</mgrwt>
</event>
<event>
12    7  0.1857704E-007  0.1361490E+04  0.7818608E-02  0.8982175E-01
          2   -1    0    0  501    0  0.00000000000E+00  0.00000000000E+00  0.12491255524E+04  0.12491255524E+04  0.00000000000E+00 0. -1.
         -1   -1    0    0    0  501 -0.00000000000E+00 -0.00000000000E+00 -0.37099068857E+03  0.37099068857E+03  0.00000000000E+00 0.  1.
         24    2    1    2    0    0  0.17936835799E+03  0.23497321516E+03  0.45269260339E+01  0.30591390772E+03  0.78596476922E+02 0.  0.
        254    2    1    2    0    0 -0.17936835799E+03 -0.23497321516E+03  0.87360793777E+03  0.13142023332E+04  0.93624330388E+03 0.  0.
         23    2    4    4    0    0  0.32775054698E+03  0.87551240610E+02  0.46083364088E+03  0.57943073363E+03  0.91031256891E+02 0.  0.
         23    2    4    4    0    0 -0.50711890497E+03 -0.32252445577E+03  0.41277429689E+03  0.73477159960E+03  0.91187033440E+02 0.  0.
          4    1    3    3  502    0  0.50653559880E+02  0.73058607896E+02 -0.34612116298E+02  0.95400953406E+02  0.00000000000E+00 0. -1.
         -3    1    3    3    0  502  0.12871479811E+03  0.16191460727E+03  0.39139042332E+02  0.21051295431E+03  0.00000000000E+00 0.  1.
         13    1    5    5    0    0  0.30832903923E+03  0.64790641642E+02  0.38233867349E+03  0.49542656865E+03  0.00000000000E+00 0. -1.
        -13    1    5    5    0    0  0.19421507746E+02  0.22760598969E+02  0.78494967384E+02  0.84004164975E+02  0.00000000000E+00 0.  1.
          4    1    6    6  503    0 -0.41553361698E+03 -0.22101999919E+03  0.33210548080E+03  0.57603131621E+03  0.00000000000E+00 0. -1.
         -4    1    6    6    0  503 -0.91585287986E+02 -0.10150445658E+03  0.80668816093E+02  0.15874028339E+03  0.00000000000E+00 0.  1.
<mgrwt>
<rscale>  0 0.13614903E+04</rscale>
<asrwt>0</asrwt>
<pdfrwt beam="1">  1        2 0.19217316E+00 0.13614903E+04</pdfrwt>
<pdfrwt beam="2">  1       -1 0.57075491E-01 0.13614903E+04</pdfrwt>
<totfact> 0.61236598E+01</totfact>
</mgrwt>
</event>
<event>
12    7  0.1857704E-007  0.1837812E+04  0.7818608E-02  0.8686446E-01
         -1   -1    0    0    0  501 -0.00000000000E+00  0.00000000000E+00  0.12418418623E+04  0.12418418623E+04  0.00000000000E+00 0.  1.
          2   -1    0    0  501    0  0.00000000000E+00 -0.00000000000E+00 -0.67994863253E+03  0.67994863253E+03  0.00000000000E+00 0. -1.
         24    2    1    2    0    0 -0.56682758160E+03 -0.41365617329E+03  0.14813350355E+03  0.72147816462E+03  0.78627413762E+02 0.  0.
        254    2    1    2    0    0  0.56682758160E+03  0.41365617329E+03  0.41375972625E+03  0.12003123302E+04  0.88155977795E+03 0.  0.
         23    2    4    4    0    0 -0.12543811778E+03 -0.10963900179E+03 -0.69229038361E+02  0.20277717934E+03  0.92576955036E+02 0.  0.
         23    2    4    4    0    0  0.69226569938E+03  0.52329517508E+03  0.48298876462E+03  0.99753515089E+03  0.93426932568E+02 0.  0.
          2    1    3    3  502    0 -0.18919376565E+03 -0.14193328860E+03  0.88093339558E+02  0.25238814522E+03  0.00000000000E+00 0. -1.
         -1    1    3    3    0  502 -0.37763381594E+03 -0.27172288469E+03  0.60040163988E+02  0.46909001940E+03  0.00000000000E+00 0.  1.
         13    1    5    5    0    0 -0.12979787610E+03 -0.76630017801E+02 -0.75989978303E+02  0.16880202923E+03  0.00000000000E+00 0.  1.
        -13    1    5    5    0    0  0.43597583170E+01 -0.33008983992E+02  0.67609399416E+01  0.33975150120E+02  0.00000000000E+00 0. -1.
          2    1    6    6  503    0  0.46983024053E+03  0.36988490757E+03  0.37931628497E+03  0.70812156005E+03  0.00000000000E+00 0. -1.
         -2    1    6    6    0  503  0.22243545884E+03  0.15341026750E+03  0.10367247965E+03  0.28941359084E+03  0.00000000000E+00 0.  1.
<mgrwt>
<rscale>  0 0.18378125E+04</rscale>
<asrwt>0</asrwt>
<pdfrwt beam="1">  1        2 0.10460748E+00 0.18378125E+04</pdfrwt>
<pdfrwt beam="2">  1       -1 0.19105259E+00 0.18378125E+04</pdfrwt>
<totfact> 0.79346965E+00</totfact>
</mgrwt>
</event>
<event>
12    7  0.1857704E-007  0.1294069E+04  0.7818608E-02  0.9034282E-01
          2   -1    0    0  501    0  0.00000000000E+00  0.00000000000E+00  0.32388033370E+03  0.32388033370E+03  0.00000000000E+00 0. -1.
         -1   -1    0    0    0  501 -0.00000000000E+00 -0.00000000000E+00 -0.12926179753E+04  0.12926179753E+04  0.00000000000E+00 0.  1.
         24    2    1    2    0    0 -0.18830527842E+03 -0.23778701753E+03 -0.39305747063E+03  0.50290899519E+03  0.80135751296E+02 0.  0.
        254    2    1    2    0    0  0.18830527842E+03  0.23778701753E+03 -0.57568017092E+03  0.11135893138E+04  0.90369904114E+03 0.  0.
         23    2    4    4    0    0  0.12968453600E+03  0.51263072675E+03 -0.61498536573E+03  0.81587253230E+03  0.88502248578E+02 0.  0.
         23    2    4    4    0    0  0.58620742421E+02 -0.27484370923E+03  0.39305194806E+02  0.29771678147E+03  0.90082893432E+02 0.  0.
          4    1    3    3  502    0 -0.10753900428E+03 -0.15862474037E+03 -0.18645968474E+03  0.26738298325E+03  0.00000000000E+00 0. -1.
         -3    1    3    3    0  502 -0.80766274139E+02 -0.79162277162E+02 -0.20659778590E+03  0.23552601194E+03  0.00000000000E+00 0.  1.
         13    1    5    5    0    0  0.47849568656E+02  0.89506353541E+02 -0.15744615846E+03  0.18732394764E+03  0.00000000000E+00 0. -1.
        -13    1    5    5    0    0  0.81834967346E+02  0.42312437321E+03 -0.45753920727E+03  0.62854858466E+03  0.00000000000E+00 0.  1.
          2    1    6    6  503    0 -0.11737858491E+02 -0.74439279728E+02 -0.18496290333E+02  0.77595724395E+02  0.00000000000E+00 0. -1.
         -2    1    6    6    0  503  0.70358600912E+02 -0.20040442950E+03  0.57801485139E+02  0.22012105708E+03  0.00000000000E+00 0.  1.
<mgrwt>
<rscale>  0 0.12940688E+04</rscale>
<asrwt>0</asrwt>
<pdfrwt beam="1">  1        2 0.49827744E-01 0.12940688E+04</pdfrwt>
<pdfrwt beam="2">  1       -1 0.19886430E+00 0.12940688E+04</pdfrwt>
<totfact> 0.17347258E+01</totfact>
</mgrwt>
</event>
<event>
12    7  0.1857704E-007  0.1399519E+04  0.7818608E-02  0.8954167E-01
          2   -1    0    0  501    0  0.00000000000E+00  0.00000000000E+00  0.22310504992E+04  0.22310504992E+04  0.00000000000E+00 0. -1.
         -1   -1    0    0    0  501 -0.00000000000E+00 -0.00000000000E+00 -0.21947666615E+03  0.21947666615E+03  0.00000000000E+00 0.  1.
         24    2    1    2    0    0  0.11067212991E+03  0.50978979213E+02  0.12028390894E+04  0.12117094330E+04  0.81059845657E+02 0.  0.
        254    2    1    2    0    0 -0.11067212991E+03 -0.50978979213E+02  0.80873474370E+03  0.12388177323E+04  0.93046779179E+03 0.  0.
         23    2    4    4    0    0  0.40536114337E+02 -0.44240542068E+03  0.62490710358E+03  0.77244257151E+03  0.93770493000E+02 0.  0.
         23    2    4    4    0    0 -0.15120824425E+03  0.39142644147E+03  0.18382764012E+03  0.46637516080E+03  0.87376181698E+02 0.  0.
          4    1    3    3  502    0  0.58490416599E+02  0.62511826834E+02  0.91134232083E+03  0.91535440299E+03  0.00000000000E+00 0. -1.
         -3    1    3    3    0  502  0.52181713316E+02 -0.11532847621E+02  0.29149676853E+03  0.29635503006E+03  0.00000000000E+00 0.  1.
         13    1    5    5    0    0  0.51275588774E+02 -0.11001092373E+03  0.17451468318E+03  0.21257225593E+03  0.00000000000E+00 0. -1.
        -13    1    5    5    0    0 -0.10739474437E+02 -0.33239449695E+03  0.45039242040E+03  0.55987031558E+03  0.00000000000E+00 0.  1.
          4    1    6    6  503    0 -0.13199261531E+03  0.22516647128E+03  0.11973924346E+03  0.28715758167E+03  0.00000000000E+00 0. -1.
         -4    1    6    6    0  503 -0.19215628937E+02  0.16625997019E+03  0.64088396651E+02  0.17921757912E+03  0.00000000000E+00 0.  1.
<mgrwt>
<rscale>  0 0.13995192E+04</rscale>
<asrwt>0</asrwt>
<pdfrwt beam="1">  1        2 0.34323852E+00 0.13995192E+04</pdfrwt>
<pdfrwt beam="2">  1       -1 0.33765642E-01 0.13995192E+04</pdfrwt>
<totfact> 0.45580797E+01</totfact>
</mgrwt>
</event>
<event>
12    7  0.1857704E-007  0.1577859E+04  0.7818608E-02  0.8834266E-01
         -1   -1    0    0    0  501 -0.00000000000E+00  0.00000000000E+00  0.16902955323E+03  0.16902955323E+03  0.00000000000E+00 0.  1.
          2   -1    0    0  501    0  0.00000000000E+00 -0.00000000000E+00 -0.36822562167E+04  0.36822562167E+04  0.00000000000E+00 0. -1.
         24    2    1    2    0    0 -0.19984380661E+03 -0.13085220326E+03 -0.23420660404E+04  0.23556165391E+04  0.81216349143E+02 0.  0.
        254    2    1    2    0    0  0.19984380661E+03  0.13085220326E+03 -0.11711606230E+04  0.14956692308E+04  0.89908253067E+03 0.  0.
         23    2    4    4    0    0 -0.13513324451E+03 -0.21482866672E+03 -0.89427625573E+03  0.93407278322E+03  0.91376107266E+02 0.  0.
         23    2    4    4    0    0  0.33497705112E+03  0.34568086998E+03 -0.27688436728E+03  0.56159644758E+03  0.83789787266E+02 0.  0.
          4    1    3    3  502    0 -0.47230335664E+02 -0.29692365362E+02 -0.93875456390E+03  0.94041079981E+03  0.00000000000E+00 0. -1.
         -3    1    3    3    0  502 -0.15261347094E+03 -0.10115983790E+03 -0.14033114765E+04  0.14152057393E+04  0.00000000000E+00 0.  1.
         13    1    5    5    0    0 -0.14090617369E+03 -0.21467307522E+03 -0.81294146592E+03  0.85253322869E+03  0.00000000000E+00 0. -1.
        -13    1    5    5    0    0  0.57729291794E+01 -0.15559149909E+00 -0.81334789806E+02  0.81539554529E+02  0.00000000000E+00 0.  1.
          2    1    6    6  503    0  0.11099604242E+03  0.88682709499E+02 -0.43965419460E+02  0.14872021552E+03  0.00000000000E+00 0.  1.
         -2    1    6    6    0  503  0.22398100870E+03  0.25699816048E+03 -0.23291894782E+03  0.41287623206E+03  0.00000000000E+00 0. -1.
<mgrwt>
<rscale>  0 0.15778595E+04</rscale>
<asrwt>0</asrwt>
<pdfrwt beam="1">  1        2 0.56650096E+00 0.15778595E+04</pdfrwt>
<pdfrwt beam="2">  1       -1 0.26004547E-01 0.15778595E+04</pdfrwt>
<totfact> 0.87430745E+00</totfact>
</mgrwt>
</event>
<event>
12    7  0.1857704E-007  0.1240609E+04  0.7818608E-02  0.9078036E-01
          2   -1    0    0  501    0  0.00000000000E+00  0.00000000000E+00  0.27784380171E+04  0.27784380171E+04  0.00000000000E+00 0. -1.
         -3   -1    0    0    0  501 -0.00000000000E+00 -0.00000000000E+00 -0.13848703704E+03  0.13848703704E+03  0.00000000000E+00 0.  1.
         24    2    1    2    0    0 -0.22400876153E+03  0.20163831594E+02  0.10420850511E+04  0.10685550554E+04  0.72678382163E+02 0.  0.
        254    2    1    2    0    0  0.22400876153E+03 -0.20163831594E+02  0.15978659289E+04  0.18483699988E+04  0.90150408770E+03 0.  0.
         23    2    4    4    0    0  0.16519805182E+03 -0.35742205365E+03  0.30551754693E+03  0.50853420468E+03  0.10111945947E+03 0.  0.
         23    2    4    4    0    0  0.58810709708E+02  0.33725822206E+03  0.12923483820E+04  0.13398357941E+04  0.88282539193E+02 0.  0.
          4    1    3    3  502    0 -0.22552676636E+03  0.21792193474E+02  0.10419761816E+04  0.10663262095E+04  0.00000000000E+00 0. -1.
         -3    1    3    3    0  502  0.15180048331E+01 -0.16283618798E+01  0.10886946134E+00  0.22288458099E+01  0.00000000000E+00 0.  1.
         13    1    5    5    0    0  0.12971337009E+03 -0.17818042121E+03  0.13405337889E+03  0.25796148796E+03  0.00000000000E+00 0.  1.
        -13    1    5    5    0    0  0.35484681731E+02 -0.17924163244E+03  0.17146416804E+03  0.25057271671E+03  0.00000000000E+00 0. -1.
          3    1    6    6  503    0  0.10719563353E+02  0.95799241433E+01  0.14304194933E+03  0.14376259337E+03  0.00000000000E+00 0. -1.
         -3    1    6    6    0  503  0.48091146355E+02  0.32767829791E+03  0.11493064327E+04  0.11960732007E+04  0.00000000000E+00 0.  1.
<mgrwt>
<rscale>  0 0.12406090E+04</rscale>
<asrwt>0</asrwt>
<pdfrwt beam="1">  1        2 0.42745196E+00 0.12406090E+04</pdfrwt>
<pdfrwt beam="2">  1       -3 0.21305700E-01 0.12406090E+04</pdfrwt>
<totfact> 0.31601926E+01</totfact>
</mgrwt>
</event>
<event>
12    7  0.1857704E-007  0.1618929E+04  0.7818608E-02  0.8809003E-01
          2   -1    0    0  501    0  0.00000000000E+00  0.00000000000E+00  0.16234632157E+04  0.16234632157E+04  0.00000000000E+00 0. -1.
         -1   -1    0    0    0  501 -0.00000000000E+00 -0.00000000000E+00 -0.40360184288E+03  0.40360184288E+03  0.00000000000E+00 0.  1.
         24    2    1    2    0    0 -0.45479543295E+03  0.24284014682E+03  0.21462151475E+03  0.56479890922E+03  0.84410843607E+02 0.  0.
        254    2    1    2    0    0  0.45479543295E+03 -0.24284014682E+03  0.10052398581E+04  0.14622661494E+04  0.92838833285E+03 0.  0.
         23    2    4    4    0    0  0.61525716428E+03 -0.38494791166E+03  0.98703561602E+03  0.12287768727E+04  0.94482923093E+02 0.  0.
         23    2    4    4    0    0 -0.16046173133E+03  0.14210776484E+03  0.18204242076E+02  0.23348927666E+03  0.90792421706E+02 0.  0.
          4    1    3    3  502    0 -0.15187835916E+03  0.12617879664E+03  0.91557092874E+02  0.21764839985E+03  0.00000000000E+00 0. -1.
         -3    1    3    3    0  502 -0.30291707380E+03  0.11666135018E+03  0.12306442188E+03  0.34715050937E+03  0.00000000000E+00 0.  1.
         13    1    5    5    0    0  0.10035000664E+03 -0.26506580549E+02  0.15968056800E+03  0.19044843513E+03  0.00000000000E+00 0.  1.
        -13    1    5    5    0    0  0.51490715764E+03 -0.35844133111E+03  0.82735504802E+03  0.10383284376E+04  0.00000000000E+00 0. -1.
          3    1    6    6  503    0 -0.13401027112E+03  0.14576339026E+03  0.36203018121E+02  0.20128680341E+03  0.00000000000E+00 0. -1.
         -3    1    6    6    0  503 -0.26451460207E+02 -0.36556254263E+01 -0.17998776045E+02  0.32202473250E+02  0.00000000000E+00 0.  1.
<mgrwt>
<rscale>  0 0.16189290E+04</rscale>
<asrwt>0</asrwt>
<pdfrwt beam="1">  1        2 0.24976357E+00 0.16189290E+04</pdfrwt>
<pdfrwt beam="2">  1       -1 0.62092592E-01 0.16189290E+04</pdfrwt>
<totfact> 0.31051460E+01</totfact>
</mgrwt>
</event>
<event>
12    7  0.1857704E-007  0.2198750E+04  0.7818608E-02  0.8518949E-01
         -1   -1    0    0    0  501 -0.00000000000E+00  0.00000000000E+00  0.69082566226E+03  0.69082566226E+03  0.00000000000E+00 0.  1.
          2   -1    0    0  501    0  0.00000000000E+00 -0.00000000000E+00 -0.17495370053E+04  0.17495370053E+04  0.00000000000E+00 0. -1.
         24    2    1    2    0    0  0.29264833546E+03  0.57801393145E+03 -0.11538375848E+04  0.13257294512E+04  0.80462739002E+02 0.  0.
        254    2    1    2    0    0 -0.29264833546E+03 -0.57801393145E+03  0.95126241750E+02  0.11146332164E+04  0.90200612639E+03 0.  0.
         23    2    4    4    0    0 -0.77094138148E+01 -0.59460393879E+03 -0.25499977451E+03  0.65331996656E+03  0.90492069348E+02 0.  0.
         23    2    4    4    0    0 -0.28493892165E+03  0.16590007337E+02  0.35012601626E+03  0.46131324985E+03  0.93574942249E+02 0.  0.
          2    1    3    3  502    0  0.10595833369E+03  0.22184291925E+03 -0.51832147010E+03  0.57367115638E+03  0.00000000000E+00 0. -1.
         -3    1    3    3    0  502  0.18669000177E+03  0.35617101221E+03 -0.63551611470E+03  0.75205829478E+03  0.00000000000E+00 0.  1.
         13    1    5    5    0    0  0.16047874910E+02 -0.45774960216E+03 -0.16057215428E+03  0.48536135950E+03  0.00000000000E+00 0. -1.
        -13    1    5    5    0    0 -0.23757288725E+02 -0.13685433664E+03 -0.94427620226E+02  0.16795860706E+03  0.00000000000E+00 0.  1.
          4    1    6    6  503    0 -0.22894187867E+03 -0.25408749320E+02  0.26600429445E+03  0.35187820764E+03  0.00000000000E+00 0. -1.
         -4    1    6    6    0  503 -0.55997042979E+02  0.41998756657E+02  0.84121721808E+02  0.10943504221E+03  0.00000000000E+00 0.  1.
<mgrwt>
<rscale>  0 0.21987497E+04</rscale>
<asrwt>0</asrwt>
<pdfrwt beam="1">  1        2 0.26915954E+00 0.21987497E+04</pdfrwt>
<pdfrwt beam="2">  1       -1 0.10628087E+00 0.21987497E+04</pdfrwt>
<totfact> 0.79282143E+00</totfact>
</mgrwt>
</event>
<event>
12    7  0.1857704E-007  0.1792252E+04  0.7818608E-02  0.8710431E-01
         -1   -1    0    0    0  501 -0.00000000000E+00  0.00000000000E+00  0.17940397963E+03  0.17940397963E+03  0.00000000000E+00 0.  1.
          2   -1    0    0  501    0  0.00000000000E+00 -0.00000000000E+00 -0.44761632031E+04  0.44761632031E+04  0.00000000000E+00 0. -1.
         24    2    1    2    0    0 -0.40448557089E+03  0.35899495832E+03 -0.22721806545E+04  0.23369725618E+04  0.78421113106E+02 0.  0.
        254    2    1    2    0    0  0.40448557089E+03 -0.35899495832E+03 -0.20245785690E+04  0.23185946209E+04  0.99220798069E+03 0.  0.
         23    2    4    4    0    0  0.33724612900E+03  0.14679334709E+03 -0.16139889374E+04  0.16578514595E+04  0.90707957891E+02 0.  0.
         23    2    4    4    0    0  0.67239441894E+02 -0.50578830541E+03 -0.41058963164E+03  0.66074316141E+03  0.87491298385E+02 0.  0.
          2    1    3    3  502    0 -0.35332895351E+03  0.31838175888E+03 -0.20900799128E+04  0.21435116831E+04  0.00000000000E+00 0. -1.
         -1    1    3    3    0  502 -0.51156617377E+02  0.40613199443E+02 -0.18210074171E+03  0.19346087873E+03  0.00000000000E+00 0.  1.
         13    1    5    5    0    0  0.61098295324E+02 -0.76718702903E+01 -0.30610271897E+03  0.31223506184E+03  0.00000000000E+00 0. -1.
        -13    1    5    5    0    0  0.27614783367E+03  0.15446521738E+03 -0.13078862184E+04  0.13456163977E+04  0.00000000000E+00 0.  1.
          3    1    6    6  503    0  0.35562883585E+02 -0.53244749426E+02 -0.49828397713E+02  0.81133169844E+02  0.00000000000E+00 0. -1.
         -3    1    6    6    0  503  0.31676558309E+02 -0.45254355599E+03 -0.36076123393E+03  0.57960999156E+03  0.00000000000E+00 0.  1.
<mgrwt>
<rscale>  0 0.17922516E+04</rscale>
<asrwt>0</asrwt>
<pdfrwt beam="1">  1        2 0.68864047E+00 0.17922516E+04</pdfrwt>
<pdfrwt beam="2">  1       -1 0.27600613E-01 0.17922516E+04</pdfrwt>
<totfact> 0.16858428E+00</totfact>
</mgrwt>
</event>
<event>
12    7  0.1857704E-007  0.1438143E+04  0.7818608E-02  0.8926662E-01
          2   -1    0    0  501    0  0.00000000000E+00  0.00000000000E+00  0.15677939615E+04  0.15677939615E+04  0.00000000000E+00 0. -1.
         -1   -1    0    0    0  501 -0.00000000000E+00 -0.00000000000E+00 -0.32980350803E+03  0.32980350803E+03  0.00000000000E+00 0.  1.
         24    2    1    2    0    0 -0.28482403032E+03  0.12020267304E+03  0.79587482631E+03  0.85760397249E+03  0.80587986761E+02 0.  0.
        254    2    1    2    0    0  0.28482403032E+03 -0.12020267304E+03  0.44211562715E+03  0.10399934970E+04  0.88912700739E+03 0.  0.
         23    2    4    4    0    0 -0.16505873387E+03 -0.19688359099E+03 -0.12892916045E+03  0.30320253024E+03  0.96444346148E+02 0.  0.
         23    2    4    4    0    0  0.44988276419E+03  0.76680917945E+02  0.57104478760E+03  0.73679096680E+03  0.92164606124E+02 0.  0.
          2    1    3    3  502    0 -0.21042037283E+03  0.11231320502E+03  0.66977076281E+03  0.71097388422E+03  0.00000000000E+00 0. -1.
         -1    1    3    3    0  502 -0.74403657492E+02  0.78894680241E+01  0.12610406350E+03  0.14663008827E+03  0.00000000000E+00 0.  1.
         13    1    5    5    0    0 -0.14656899649E+03 -0.15774512492E+03 -0.63038285002E+02  0.22436537287E+03  0.00000000000E+00 0.  1.
        -13    1    5    5    0    0 -0.18489737373E+02 -0.39138466070E+02 -0.65890875448E+02  0.78837157368E+02  0.00000000000E+00 0. -1.
          3    1    6    6  503    0  0.27943831616E+03  0.24152526111E+01  0.35380242710E+03  0.45085226339E+03  0.00000000000E+00 0. -1.
         -3    1    6    6    0  503  0.17044444804E+03  0.74265665334E+02  0.21724236050E+03  0.28593870341E+03  0.00000000000E+00 0.  1.
<mgrwt>
<rscale>  0 0.14381432E+04</rscale>
<asrwt>0</asrwt>
<pdfrwt beam="1">  1        2 0.24119907E+00 0.14381432E+04</pdfrwt>
<pdfrwt beam="2">  1       -1 0.50739002E-01 0.14381432E+04</pdfrwt>
<totfact> 0.50174743E+01</totfact>
</mgrwt>
</event>
<event>
12    7  0.1857704E-007  0.1585584E+04  0.7818608E-02  0.8829454E-01
         -1   -1    0    0    0  501 -0.00000000000E+00  0.00000000000E+00  0.29576159921E+03  0.29576159921E+03  0.00000000000E+00 0.  1.
          2   -1    0    0  501    0  0.00000000000E+00 -0.00000000000E+00 -0.21250864142E+04  0.21250864142E+04  0.00000000000E+00 0. -1.
         24    2    1    2    0    0 -0.28125334864E+03  0.26446261042E+02  0.57565523436E+02  0.30782668026E+03  0.10789172696E+03 0.  0.
        254    2    1    2    0    0  0.28125334864E+03 -0.26446261042E+02 -0.18868903384E+04  0.21130213331E+04  0.90813058214E+03 0.  0.
         23    2    4    4    0    0 -0.26329972399E+03  0.16184694527E+03 -0.10083512670E+04  0.10584175521E+04  0.89186649926E+02 0.  0.
         23    2    4    4    0    0  0.54455307263E+03 -0.18829320631E+03 -0.87853907135E+03  0.10546037810E+04  0.91465045545E+02 0.  0.
          4    1    3    3  502    0  0.30635420520E+00 -0.82693493429E+00 -0.15612318135E+02  0.15637204093E+02  0.00000000000E+00 0. -1.
         -3    1    3    3    0  502 -0.28155970285E+03  0.27273195977E+02  0.73177841571E+02  0.29218947617E+03  0.00000000000E+00 0.  1.
         13    1    5    5    0    0 -0.11890171369E+03  0.38423223049E+02 -0.29872657285E+03  0.32380785493E+03  0.00000000000E+00 0. -1.
        -13    1    5    5    0    0 -0.14439801030E+03  0.12342372222E+03 -0.70962469419E+03  0.73460969717E+03  0.00000000000E+00 0.  1.
          4    1    6    6  503    0  0.38304222800E+03 -0.92503740805E+02 -0.63030899529E+03  0.74334898940E+03  0.00000000000E+00 0. -1.
         -4    1    6    6    0  503  0.16151084463E+03 -0.95789465503E+02 -0.24823007606E+03  0.31125479160E+03  0.00000000000E+00 0.  1.
<mgrwt>
<rscale>  0 0.15855837E+04</rscale>
<asrwt>0</asrwt>
<pdfrwt beam="1">  1        2 0.32693637E+00 0.15855837E+04</pdfrwt>
<pdfrwt beam="2">  1       -1 0.45501784E-01 0.15855837E+04</pdfrwt>
<totfact> 0.29854168E+01</totfact>
</mgrwt>
</event>
<event>
12    7  0.1857704E-007  0.1051322E+04  0.7818608E-02  0.9253980E-01
         -1   -1    0    0    0  501 -0.00000000000E+00  0.00000000000E+00  0.57172200919E+03  0.57172200919E+03  0.00000000000E+00 0.  1.
          2   -1    0    0  501    0  0.00000000000E+00 -0.00000000000E+00 -0.48331076359E+03  0.48331076359E+03  0.00000000000E+00 0. -1.
         24    2    1    2    0    0 -0.68547111704E+02  0.23902404795E+02 -0.87126993429E+02  0.13719878582E+03  0.77216334864E+02 0.  0.
        254    2    1    2    0    0  0.68547111704E+02 -0.23902404795E+02  0.17553823903E+03  0.91783398696E+03  0.89796187156E+03 0.  0.
         23    2    4    4    0    0  0.28757856188E+03 -0.67838952257E+02  0.45392322173E+03  0.54931851477E+03  0.91656896883E+02 0.  0.
         23    2    4    4    0    0 -0.21903145017E+03  0.43936547462E+02 -0.27838498271E+03  0.36851547219E+03  0.91652922908E+02 0.  0.
          4    1    3    3  502    0 -0.47130509538E+02  0.50794460466E+02 -0.71059323099E+02  0.99251143785E+02  0.00000000000E+00 0. -1.
         -3    1    3    3    0  502 -0.21416602166E+02 -0.26892055671E+02 -0.16067670330E+02  0.37947642040E+02  0.00000000000E+00 0.  1.
         13    1    5    5    0    0  0.26855200930E+03 -0.42203876161E+02  0.43261045492E+03  0.51093361072E+03  0.00000000000E+00 0. -1.
        -13    1    5    5    0    0  0.19026552574E+02 -0.25635076097E+02  0.21312766818E+02  0.38384904048E+02  0.00000000000E+00 0.  1.
          2    1    6    6  503    0 -0.99868494444E+02  0.63688598338E+02 -0.16282854410E+03  0.20135314379E+03  0.00000000000E+00 0. -1.
         -2    1    6    6    0  503 -0.11916295573E+03 -0.19752050875E+02 -0.11555643861E+03  0.16716232840E+03  0.00000000000E+00 0.  1.
<mgrwt>
<rscale>  0 0.10513218E+04</rscale>
<asrwt>0</asrwt>
<pdfrwt beam="1">  1        2 0.74355502E-01 0.10513218E+04</pdfrwt>
<pdfrwt beam="2">  1       -1 0.87957233E-01 0.10513218E+04</pdfrwt>
<totfact> 0.92741317E+01</totfact>
</mgrwt>
</event>
<event>
12    7  0.1857704E-007  0.2400475E+04  0.7818608E-02  0.8439326E-01
          2   -1    0    0  501    0  0.00000000000E+00  0.00000000000E+00  0.14066285316E+04  0.14066285316E+04  0.00000000000E+00 0. -1.
         -1   -1    0    0    0  501 -0.00000000000E+00 -0.00000000000E+00 -0.10241294384E+04  0.10241294384E+04  0.00000000000E+00 0.  1.
         24    2    1    2    0    0 -0.17062909498E+03  0.42138262565E+03  0.11011116691E+04  0.11938976965E+04  0.79165626776E+02 0.  0.
        254    2    1    2    0    0  0.17062909498E+03 -0.42138262565E+03 -0.71861257596E+03  0.12368602736E+04  0.89818800747E+03 0.  0.
         23    2    4    4    0    0 -0.73950520955E+01 -0.55921873499E+03 -0.80005519959E+03  0.98053481326E+03  0.92627842825E+02 0.  0.
         23    2    4    4    0    0  0.17802414707E+03  0.13783610934E+03  0.81442623631E+02  0.25632546031E+03  0.91533877230E+02 0.  0.
          4    1    3    3  502    0 -0.17393706782E+03  0.41112455882E+03  0.10922218976E+04  0.11799263451E+04  0.00000000000E+00 0. -1.
         -3    1    3    3    0  502  0.33079728436E+01  0.10258066825E+02  0.88897715751E+01  0.13971351330E+02  0.00000000000E+00 0.  1.
         13    1    5    5    0    0  0.37476046324E+02 -0.15021035293E+03 -0.23937950996E+03  0.28507920647E+03  0.00000000000E+00 0.  1.
        -13    1    5    5    0    0 -0.44871098420E+02 -0.40900838206E+03 -0.56067568963E+03  0.69545560679E+03  0.00000000000E+00 0. -1.
          2    1    6    6  503    0  0.40493278134E+02  0.48288052653E+02  0.66365913493E+02  0.91519812482E+02  0.00000000000E+00 0.  1.
         -2    1    6    6    0  503  0.13753086894E+03  0.89548056684E+02  0.15076710138E+02  0.16480564783E+03  0.00000000000E+00 0. -1.
<mgrwt>
<rscale>  0 0.24004747E+04</rscale>
<asrwt>0</asrwt>
<pdfrwt beam="1">  1        2 0.21640439E+00 0.24004747E+04</pdfrwt>
<pdfrwt beam="2">  1       -1 0.15755838E+00 0.24004747E+04</pdfrwt>
<totfact> 0.44826501E+00</totfact>
</mgrwt>
</event>
<event>
12    7  0.1857704E-007  0.1204606E+04  0.7818608E-02  0.9108834E-01
         -1   -1    0    0    0  501 -0.00000000000E+00  0.00000000000E+00  0.15575911462E+04  0.15575911462E+04  0.00000000000E+00 0.  1.
          2   -1    0    0  501    0  0.00000000000E+00 -0.00000000000E+00 -0.23290395312E+03  0.23290395312E+03  0.00000000000E+00 0. -1.
         24    2    1    2    0    0  0.24644629148E+03  0.68782465355E+02  0.25396241683E+03  0.36756053074E+03  0.71673094437E+02 0.  0.
        254    2    1    2    0    0 -0.24644629148E+03 -0.68782465355E+02  0.10707247762E+04  0.14229345686E+04  0.90156776666E+03 0.  0.
         23    2    4    4    0    0  0.63708928071E+01  0.23091494921E+03 -0.29753687570E+02  0.25047284016E+03  0.92136093302E+02 0.  0.
         23    2    4    4    0    0 -0.25281718429E+03 -0.29969741456E+03  0.11004784638E+04  0.11724617284E+04  0.99391077776E+02 0.  0.
          2    1    3    3  502    0  0.24383697824E+03  0.64834934906E+02  0.22452355776E+03  0.33774379155E+03  0.00000000000E+00 0. -1.
         -1    1    3    3    0  502  0.26093132430E+01  0.39475304490E+01  0.29438859072E+02  0.29816739187E+02  0.00000000000E+00 0.  1.
         13    1    5    5    0    0  0.46417221858E+02  0.14433361051E+03 -0.40132004030E+01  0.15166692251E+03  0.00000000000E+00 0. -1.
        -13    1    5    5    0    0 -0.40046329051E+02  0.86581338703E+02 -0.25740487167E+02  0.98805917645E+02  0.00000000000E+00 0.  1.
          3    1    6    6  503    0 -0.21680367096E+03 -0.28120281807E+03  0.10457429178E+04  0.11043808703E+04  0.00000000000E+00 0. -1.
         -3    1    6    6    0  503 -0.36013513325E+02 -0.18494596496E+02  0.54735546032E+02  0.68080858110E+02  0.00000000000E+00 0.  1.
<mgrwt>
<rscale>  0 0.12046064E+04</rscale>
<asrwt>0</asrwt>
<pdfrwt beam="1">  1        2 0.35831378E-01 0.12046064E+04</pdfrwt>
<pdfrwt beam="2">  1       -1 0.23962940E+00 0.12046064E+04</pdfrwt>
<totfact> 0.13465231E+01</totfact>
</mgrwt>
</event>
<event>
12    7  0.1857704E-007  0.2748681E+04  0.7818608E-02  0.8319380E-01
         -3   -1    0    0    0  501 -0.00000000000E+00  0.00000000000E+00  0.10181175050E+04  0.10181175050E+04  0.00000000000E+00 0.  1.
          4   -1    0    0  501    0  0.00000000000E+00 -0.00000000000E+00 -0.18552008560E+04  0.18552008560E+04  0.00000000000E+00 0. -1.
         24    2    1    2    0    0  0.73652819226E+03  0.89944233037E+03  0.14107876639E+03  0.11737068087E+04  0.78830011520E+02 0.  0.
        254    2    1    2    0    0 -0.73652819226E+03 -0.89944233037E+03 -0.97816211745E+03  0.16996115524E+04  0.76184513995E+03 0.  0.
         23    2    4    4    0    0 -0.71946381278E+03 -0.31180950507E+03 -0.63619014819E+03  0.10138665847E+04  0.91291848470E+02 0.  0.
         23    2    4    4    0    0 -0.17064379483E+02 -0.58763282530E+03 -0.34197196925E+03  0.68574496765E+03  0.87737121493E+02 0.  0.
          2    1    3    3  502    0  0.18600780308E+03  0.21268265423E+03  0.16304001465E+01  0.28255171637E+03  0.00000000000E+00 0. -1.
         -1    1    3    3    0  502  0.55052038918E+03  0.68675967614E+03  0.13944836624E+03  0.89115509229E+03  0.00000000000E+00 0.  1.
         13    1    5    5    0    0 -0.35207996007E+03 -0.17788892719E+03 -0.36994844557E+03  0.54080183162E+03  0.00000000000E+00 0. -1.
        -13    1    5    5    0    0 -0.36738385270E+03 -0.13392057788E+03 -0.26624170262E+03  0.47306475310E+03  0.00000000000E+00 0.  1.
          1    1    6    6  503    0 -0.52093687765E+00 -0.34338885732E+03 -0.15034537061E+03  0.37485985271E+03  0.00000000000E+00 0. -1.
         -1    1    6    6    0  503 -0.16543442605E+02 -0.24424396798E+03 -0.19162659864E+03  0.31088511494E+03  0.00000000000E+00 0.  1.
<mgrwt>
<rscale>  0 0.27486815E+04</rscale>
<asrwt>0</asrwt>
<pdfrwt beam="1">  1        4 0.28541552E+00 0.27486815E+04</pdfrwt>
<pdfrwt beam="2">  1       -3 0.15663346E+00 0.27486815E+04</pdfrwt>
<totfact> 0.21744119E-02</totfact>
</mgrwt>
</event>
<event>
12    7  0.1857704E-007  0.1932936E+04  0.7818608E-02  0.8638634E-01
          2   -1    0    0  501    0  0.00000000000E+00  0.00000000000E+00  0.15197448389E+04  0.15197448389E+04  0.00000000000E+00 0. -1.
         -1   -1    0    0    0  501 -0.00000000000E+00 -0.00000000000E+00 -0.61461655091E+03  0.61461655091E+03  0.00000000000E+00 0.  1.
         24    2    1    2    0    0  0.40095648827E+03 -0.60870455749E+03  0.12798808694E+03  0.74437946438E+03  0.80202822848E+02 0.  0.
        254    2    1    2    0    0 -0.40095648827E+03  0.60870455749E+03  0.77714020109E+03  0.13899819255E+04  0.89264523590E+03 0.  0.
         23    2    4    4    0    0 -0.15553385101E+03  0.49088214979E+03  0.92847797963E+03  0.10658600563E+04  0.93969341897E+02 0.  0.
         23    2    4    4    0    0 -0.24542263726E+03  0.11782240770E+03 -0.15133777854E+03  0.32412186914E+03  0.89651950396E+02 0.  0.
          4    1    3    3  502    0  0.38248127266E+03 -0.60206221423E+03  0.12061565265E+03  0.72340788591E+03  0.00000000000E+00 0. -1.
         -3    1    3    3    0  502  0.18475215612E+02 -0.66423432602E+01  0.73724342907E+01  0.20971578464E+02  0.00000000000E+00 0.  1.
         13    1    5    5    0    0 -0.94675567648E+02  0.41744011731E+03  0.76234971383E+03  0.87429789021E+03  0.00000000000E+00 0. -1.
        -13    1    5    5    0    0 -0.60858283360E+02  0.73442032479E+02  0.16612826580E+03  0.19156216611E+03  0.00000000000E+00 0.  1.
          2    1    6    6  503    0 -0.23772428019E+03  0.10361736130E+03 -0.16105560016E+03  0.30526758311E+03  0.00000000000E+00 0. -1.
         -2    1    6    6    0  503 -0.76983570699E+01  0.14205046401E+02  0.97178216233E+01  0.18854286036E+02  0.00000000000E+00 0.  1.
<mgrwt>
<rscale>  0 0.19329359E+04</rscale>
<asrwt>0</asrwt>
<pdfrwt beam="1">  1        2 0.23380690E+00 0.19329359E+04</pdfrwt>
<pdfrwt beam="2">  1       -1 0.94556393E-01 0.19329359E+04</pdfrwt>
<totfact> 0.14248221E+01</totfact>
</mgrwt>
</event>
<event>
12    7  0.1857704E-007  0.1847255E+04  0.7818608E-02  0.8681566E-01
         -1   -1    0    0    0  501 -0.00000000000E+00  0.00000000000E+00  0.42995337401E+03  0.42995337401E+03  0.00000000000E+00 0.  1.
          2   -1    0    0  501    0  0.00000000000E+00 -0.00000000000E+00 -0.19841396721E+04  0.19841396721E+04  0.00000000000E+00 0. -1.
         24    2    1    2    0    0 -0.45200000377E+03 -0.55385580351E+03 -0.42210786627E+03  0.83414233703E+03  0.80982301616E+02 0.  0.
        254    2    1    2    0    0  0.45200000377E+03  0.55385580351E+03 -0.11320784318E+04  0.15799507091E+04  0.83879819554E+03 0.  0.
         23    2    4    4    0    0  0.60960131222E+03  0.15396913759E+03 -0.49245225701E+03  0.80392965665E+03  0.92051139100E+02 0.  0.
         23    2    4    4    0    0 -0.15760130845E+03  0.39988666591E+03 -0.63962617481E+03  0.77602105243E+03  0.91320930306E+02 0.  0.
          4    1    3    3  502    0 -0.16288231753E+03 -0.26186965859E+03 -0.18959333068E+03  0.36201104747E+03  0.00000000000E+00 0. -1.
         -3    1    3    3    0  502 -0.28911768624E+03 -0.29198614492E+03 -0.23251453559E+03  0.47213128956E+03  0.00000000000E+00 0.  1.
         13    1    5    5    0    0  0.13216921153E+02  0.20248708591E+02 -0.16426686506E+02  0.29232400414E+02  0.00000000000E+00 0.  1.
        -13    1    5    5    0    0  0.59638439107E+03  0.13372042900E+03 -0.47602557050E+03  0.77469725623E+03  0.00000000000E+00 0. -1.
          3    1    6    6  503    0 -0.14688371179E+03  0.26469320288E+03 -0.41595629620E+03  0.51444820613E+03  0.00000000000E+00 0. -1.
         -3    1    6    6    0  503 -0.10717596662E+02  0.13519346303E+03 -0.22366987861E+03  0.26157284630E+03  0.00000000000E+00 0.  1.
<mgrwt>
<rscale>  0 0.18472548E+04</rscale>
<asrwt>0</asrwt>
<pdfrwt beam="1">  1        2 0.30525225E+00 0.18472548E+04</pdfrwt>
<pdfrwt beam="2">  1       -1 0.66146674E-01 0.18472548E+04</pdfrwt>
<totfact> 0.16914388E+01</totfact>
</mgrwt>
</event>
<event>
12    7  0.1857704E-007  0.1270058E+04  0.7818608E-02  0.9053653E-01
         -1   -1    0    0    0  501 -0.00000000000E+00  0.00000000000E+00  0.19942987557E+03  0.19942987557E+03  0.00000000000E+00 0.  1.
          2   -1    0    0  501    0  0.00000000000E+00 -0.00000000000E+00 -0.20220719368E+04  0.20220719368E+04  0.00000000000E+00 0. -1.
         24    2    1    2    0    0  0.18684330529E+03 -0.14563269909E+03 -0.81348611289E+03  0.85123047845E+03  0.81941246057E+02 0.  0.
        254    2    1    2    0    0 -0.18684330529E+03  0.14563269909E+03 -0.10091559484E+04  0.13702713340E+04  0.89617436739E+03 0.  0.
         23    2    4    4    0    0 -0.47996569723E+03  0.17785686915E+01 -0.88380224833E+03  0.10097700305E+04  0.90326444120E+02 0.  0.
         23    2    4    4    0    0  0.29312239194E+03  0.14385413039E+03 -0.12535370005E+03  0.36050130347E+03  0.87366424898E+02 0.  0.
          2    1    3    3  502    0  0.11600500383E+03 -0.99836326073E+02 -0.64369816487E+03  0.66164324252E+03  0.00000000000E+00 0. -1.
         -1    1    3    3    0  502  0.70838301462E+02 -0.45796373012E+02 -0.16978794803E+03  0.18958723594E+03  0.00000000000E+00 0.  1.
         13    1    5    5    0    0 -0.13183115503E+03  0.38198656698E+02 -0.28038266202E+03  0.31217467542E+03  0.00000000000E+00 0. -1.
        -13    1    5    5    0    0 -0.34813454220E+03 -0.36420088006E+02 -0.60341958631E+03  0.69759535508E+03  0.00000000000E+00 0.  1.
          4    1    6    6  503    0 -0.13607866211E+01 -0.69321015647E+01 -0.14072906727E+01  0.72032103516E+01  0.00000000000E+00 0. -1.
         -4    1    6    6    0  503  0.29448317856E+03  0.15078623196E+03 -0.12394640938E+03  0.35329809312E+03  0.00000000000E+00 0.  1.
<mgrwt>
<rscale>  0 0.12700576E+04</rscale>
<asrwt>0</asrwt>
<pdfrwt beam="1">  1        2 0.31108800E+00 0.12700576E+04</pdfrwt>
<pdfrwt beam="2">  1       -1 0.30681519E-01 0.12700576E+04</pdfrwt>
<totfact> 0.71350834E+01</totfact>
</mgrwt>
</event>
<event>
12    7  0.1857704E-007  0.1544692E+04  0.7818608E-02  0.8855265E-01
         -1   -1    0    0    0  501 -0.00000000000E+00  0.00000000000E+00  0.15436281209E+04  0.15436281209E+04  0.00000000000E+00 0.  1.
          2   -1    0    0  501    0  0.00000000000E+00 -0.00000000000E+00 -0.38643907377E+03  0.38643907377E+03  0.00000000000E+00 0. -1.
         24    2    1    2    0    0  0.37277784015E+03  0.28177582414E+03  0.14378265953E+03  0.49518020669E+03  0.78543304851E+02 0.  0.
        254    2    1    2    0    0 -0.37277784015E+03 -0.28177582414E+03  0.10134063876E+04  0.14348869880E+04  0.90196852975E+03 0.  0.
         23    2    4    4    0    0 -0.40131574146E+03 -0.11545986047E+03  0.24907184528E+02  0.42801877866E+03  0.90522943632E+02 0.  0.
         23    2    4    4    0    0  0.28537901312E+02 -0.16631596367E+03  0.98849920307E+03  0.10068682093E+04  0.90429557481E+02 0.  0.
          2    1    3    3  502    0  0.13246815460E+03  0.88795654379E+02  0.11820872552E+02  0.15991314282E+03  0.00000000000E+00 0. -1.
         -1    1    3    3    0  502  0.24030968555E+03  0.19298016976E+03  0.13196178697E+03  0.33526706387E+03  0.00000000000E+00 0.  1.
         13    1    5    5    0    0 -0.13227089101E+03 -0.45610146234E+02  0.50801220221E+02  0.14885105987E+03  0.00000000000E+00 0. -1.
        -13    1    5    5    0    0 -0.26904485045E+03 -0.69849714239E+02 -0.25894035693E+02  0.27916771879E+03  0.00000000000E+00 0.  1.
          2    1    6    6  503    0  0.53509525715E+02 -0.87575841657E+02  0.41773148709E+03  0.43015391744E+03  0.00000000000E+00 0. -1.
         -2    1    6    6    0  503 -0.24971624403E+02 -0.78740122012E+02  0.57076771598E+03  0.57671429186E+03  0.00000000000E+00 0.  1.
<mgrwt>
<rscale>  0 0.15446918E+04</rscale>
<asrwt>0</asrwt>
<pdfrwt beam="1">  1        2 0.59452166E-01 0.15446918E+04</pdfrwt>
<pdfrwt beam="2">  1       -1 0.23748125E+00 0.15446918E+04</pdfrwt>
<totfact> 0.76735837E+00</totfact>
</mgrwt>
</event>
<event>
12    7  0.1857704E-007  0.1236023E+04  0.7818608E-02  0.9081897E-01
         -1   -1    0    0    0  501 -0.00000000000E+00  0.00000000000E+00  0.23894219870E+03  0.23894219870E+03  0.00000000000E+00 0.  1.
          4   -1    0    0  501    0  0.00000000000E+00 -0.00000000000E+00 -0.15984536430E+04  0.15984536430E+04  0.00000000000E+00 0. -1.
         24    2    1    2    0    0  0.14281242903E+03  0.20975661785E+03 -0.16091977204E+03  0.31110497915E+03  0.80609592509E+02 0.  0.
        254    2    1    2    0    0 -0.14281242903E+03 -0.20975661785E+03 -0.11985916723E+04  0.15262908626E+04  0.91024643460E+03 0.  0.
         23    2    4    4    0    0 -0.30961246745E+03 -0.47437751776E+02 -0.12276617056E+04  0.12700720433E+04  0.88428002929E+02 0.  0.
         23    2    4    4    0    0  0.16680003842E+03 -0.16231886607E+03  0.29070033280E+02  0.25621881923E+03  0.10311813319E+03 0.  0.
          4    1    3    3  502    0  0.35387449924E+02  0.61916806484E+02 -0.60699901812E+01  0.71573789323E+02  0.00000000000E+00 0. -1.
         -3    1    3    3    0  502  0.10742497911E+03  0.14783981136E+03 -0.15484978186E+03  0.23953118983E+03  0.00000000000E+00 0.  1.
         13    1    5    5    0    0 -0.19367697796E+03 -0.66885970229E+02 -0.69400907038E+03  0.72362496818E+03  0.00000000000E+00 0. -1.
        -13    1    5    5    0    0 -0.11593548949E+03  0.19448218453E+02 -0.53365263518E+03  0.54644707516E+03  0.00000000000E+00 0.  1.
          2    1    6    6  503    0  0.61017244841E+02 -0.32107668714E+01  0.22271447709E+02  0.65034072415E+02  0.00000000000E+00 0. -1.
         -2    1    6    6    0  503  0.10578279358E+03 -0.15910809920E+03  0.67985855701E+01  0.19118474681E+03  0.00000000000E+00 0.  1.
<mgrwt>
<rscale>  0 0.12360227E+04</rscale>
<asrwt>0</asrwt>
<pdfrwt beam="1">  1        4 0.24591595E+00 0.12360227E+04</pdfrwt>
<pdfrwt beam="2">  1       -1 0.36760337E-01 0.12360227E+04</pdfrwt>
<totfact> 0.19041735E+00</totfact>
</mgrwt>
</event>
<event>
12    7  0.1857704E-007  0.1191125E+04  0.7818608E-02  0.9120660E-01
          2   -1    0    0  501    0  0.00000000000E+00  0.00000000000E+00  0.14171976429E+04  0.14171976429E+04  0.00000000000E+00 0. -1.
         -1   -1    0    0    0  501 -0.00000000000E+00 -0.00000000000E+00 -0.25027905597E+03  0.25027905597E+03  0.00000000000E+00 0.  1.
         24    2    1    2    0    0 -0.13579780070E+03 -0.19538680070E+03  0.15872930701E+03  0.29760651797E+03  0.82204635320E+02 0.  0.
        254    2    1    2    0    0  0.13579780070E+03  0.19538680070E+03  0.10081892799E+04  0.13698701809E+04  0.89637137606E+03 0.  0.
         23    2    4    4    0    0 -0.25025764048E+03 -0.47037023532E+02  0.11712961709E+02  0.26999388958E+03  0.88983924024E+02 0.  0.
         23    2    4    4    0    0  0.38605544118E+03  0.24242382423E+03  0.99647631822E+03  0.10998762913E+04  0.94629219828E+02 0.  0.
          2    1    3    3  502    0 -0.10825924617E+02  0.71899993930E+01  0.35725825714E+01  0.13478133451E+02  0.00000000000E+00 0. -1.
         -1    1    3    3    0  502 -0.12497187608E+03 -0.20257680009E+03  0.15515672444E+03  0.28412838452E+03  0.00000000000E+00 0.  1.
         13    1    5    5    0    0 -0.41599251777E+00  0.38698702860E+01 -0.13240325660E+02  0.13800549605E+02  0.00000000000E+00 0. -1.
        -13    1    5    5    0    0 -0.24984164796E+03 -0.50906893818E+02  0.24953287370E+02  0.25619333997E+03  0.00000000000E+00 0.  1.
          4    1    6    6  503    0  0.26026625382E+03  0.11098693190E+03  0.63570500128E+03  0.69582862156E+03  0.00000000000E+00 0. -1.
         -4    1    6    6    0  503  0.12578918736E+03  0.13143689233E+03  0.36077131694E+03  0.40404766977E+03  0.00000000000E+00 0.  1.
<mgrwt>
<rscale>  0 0.11911253E+04</rscale>
<asrwt>0</asrwt>
<pdfrwt beam="1">  1        2 0.21803040E+00 0.11911253E+04</pdfrwt>
<pdfrwt beam="2">  1       -1 0.38504471E-01 0.11911253E+04</pdfrwt>
<totfact> 0.10387190E+02</totfact>
</mgrwt>
</event>
<event>
12    7  0.1857704E-007  0.2057111E+04  0.7818608E-02  0.8580375E-01
         -1   -1    0    0    0  501 -0.00000000000E+00  0.00000000000E+00  0.36536099922E+03  0.36536099922E+03  0.00000000000E+00 0.  1.
          2   -1    0    0  501    0  0.00000000000E+00 -0.00000000000E+00 -0.28955635726E+04  0.28955635726E+04  0.00000000000E+00 0. -1.
         24    2    1    2    0    0 -0.62250869880E+02 -0.81275898976E+03 -0.12601420808E+04  0.15031380645E+04  0.83747423812E+02 0.  0.
        254    2    1    2    0    0  0.62250869880E+02  0.81275898976E+03 -0.12700604926E+04  0.17577865073E+04  0.90128097961E+03 0.  0.
         23    2    4    4    0    0  0.46782890558E+03  0.52460559539E+03 -0.74504752516E+03  0.10284719231E+04  0.92648617290E+02 0.  0.
         23    2    4    4    0    0 -0.40557803570E+03  0.28815339437E+03 -0.52501296747E+03  0.72931458422E+03  0.93462425683E+02 0.  0.
          2    1    3    3  502    0 -0.32353029698E+02 -0.48285446402E+03 -0.67187228905E+03  0.82801420564E+03  0.00000000000E+00 0. -1.
         -1    1    3    3    0  502 -0.29897840182E+02 -0.32990452574E+03 -0.58826979172E+03  0.67512385886E+03  0.00000000000E+00 0.  1.
         13    1    5    5    0    0  0.32641199105E+03  0.40871164264E+03 -0.50845369259E+03  0.72946223496E+03  0.00000000000E+00 0. -1.
        -13    1    5    5    0    0  0.14141691453E+03  0.11589395275E+03 -0.23659383258E+03  0.29900968816E+03  0.00000000000E+00 0.  1.
          4    1    6    6  503    0 -0.17179910656E+03  0.17416902468E+03 -0.22654182632E+03  0.33342312644E+03  0.00000000000E+00 0.  1.
         -4    1    6    6    0  503 -0.23377892914E+03  0.11398436969E+03 -0.29847114115E+03  0.39589145778E+03  0.00000000000E+00 0. -1.
<mgrwt>
<rscale>  0 0.20571106E+04</rscale>
<asrwt>0</asrwt>
<pdfrwt beam="1">  1        2 0.44547131E+00 0.20571106E+04</pdfrwt>
<pdfrwt beam="2">  1       -1 0.56209385E-01 0.20571106E+04</pdfrwt>
<totfact> 0.68255173E+00</totfact>
</mgrwt>
</event>
<event>
12    7  0.1857704E-007  0.1467900E+04  0.7818608E-02  0.8906084E-01
          2   -1    0    0  501    0  0.00000000000E+00  0.00000000000E+00  0.17304529140E+04  0.17304529140E+04  0.00000000000E+00 0. -1.
         -1   -1    0    0    0  501 -0.00000000000E+00 -0.00000000000E+00 -0.31129573769E+03  0.31129573769E+03  0.00000000000E+00 0.  1.
         24    2    1    2    0    0  0.31367179371E+03 -0.24704559640E+03  0.14794569955E+03  0.43529999455E+03  0.90424744216E+02 0.  0.
        254    2    1    2    0    0 -0.31367179371E+03  0.24704559640E+03  0.12712114767E+04  0.16064486571E+04  0.89737235778E+03 0.  0.
         23    2    4    4    0    0  0.10771096844E+03 -0.63604040003E+02 -0.65871672117E+02  0.16764958248E+03  0.90112034113E+02 0.  0.
         23    2    4    4    0    0 -0.42138276215E+03  0.31064963640E+03  0.13370831488E+04  0.14387990746E+04  0.91020884509E+02 0.  0.
          2    1    3    3  502    0  0.16385273474E+02 -0.30515924612E+02 -0.84382983217E+01  0.35649736609E+02  0.00000000000E+00 0. -1.
         -1    1    3    3    0  502  0.29728652024E+03 -0.21652967179E+03  0.15638399787E+03  0.39965025794E+03  0.00000000000E+00 0.  1.
         13    1    5    5    0    0  0.29079680390E+01  0.11914389880E+02  0.11717422179E+02  0.16961926390E+02  0.00000000000E+00 0.  1.
        -13    1    5    5    0    0  0.10480300040E+03 -0.75518429883E+02 -0.77589094295E+02  0.15068765609E+03  0.00000000000E+00 0. -1.
          2    1    6    6  503    0 -0.22609738797E+03  0.19346112266E+03  0.64807647641E+03  0.71312716545E+03  0.00000000000E+00 0. -1.
         -2    1    6    6    0  503 -0.19528537418E+03  0.11718851374E+03  0.68900667243E+03  0.72567190918E+03  0.00000000000E+00 0.  1.
<mgrwt>
<rscale>  0 0.14679000E+04</rscale>
<asrwt>0</asrwt>
<pdfrwt beam="1">  1        2 0.26622352E+00 0.14679000E+04</pdfrwt>
<pdfrwt beam="2">  1       -1 0.47891653E-01 0.14679000E+04</pdfrwt>
<totfact> 0.45330398E+01</totfact>
</mgrwt>
</event>
<event>
12    7  0.1857704E-007  0.1800357E+04  0.7818608E-02  0.8706110E-01
          2   -1    0    0  501    0  0.00000000000E+00  0.00000000000E+00  0.19230439911E+04  0.19230439911E+04  0.00000000000E+00 0. -1.
         -1   -1    0    0    0  501 -0.00000000000E+00 -0.00000000000E+00 -0.42137414791E+03  0.42137414791E+03  0.00000000000E+00 0.  1.
         24    2    1    2    0    0  0.28643664649E+03 -0.43745025569E+03  0.14710180098E+02  0.52993840485E+03  0.84909627746E+02 0.  0.
        254    2    1    2    0    0 -0.28643664649E+03  0.43745025569E+03  0.14869596631E+04  0.18144797342E+04  0.89882088724E+03 0.  0.
         23    2    4    4    0    0  0.77045984350E+02  0.52995891261E+03  0.12522271622E+04  0.13650650637E+04  0.92397129310E+02 0.  0.
         23    2    4    4    0    0 -0.36348263084E+03 -0.92508656921E+02  0.23473250093E+03  0.44941467053E+03  0.78719276962E+02 0.  0.
          4    1    3    3  502    0  0.11991624464E+03 -0.11174367088E+03  0.25167532752E+01  0.16392952070E+03  0.00000000000E+00 0. -1.
         -3    1    3    3    0  502  0.16652040185E+03 -0.32570658481E+03  0.12193426823E+02  0.36600888416E+03  0.00000000000E+00 0.  1.
         13    1    5    5    0    0 -0.52401444149E+01  0.26959551566E+03  0.58660517285E+03  0.64561198099E+03  0.00000000000E+00 0. -1.
        -13    1    5    5    0    0  0.82286128765E+02  0.26036339695E+03  0.66562198935E+03  0.71945308267E+03  0.00000000000E+00 0.  1.
          3    1    6    6  503    0 -0.80392645782E+02 -0.55531369431E+02  0.57044817313E+02  0.11314071623E+03  0.00000000000E+00 0. -1.
         -3    1    6    6    0  503 -0.28308998506E+03 -0.36977287490E+02  0.17768768361E+03  0.33627395430E+03  0.00000000000E+00 0.  1.
<mgrwt>
<rscale>  0 0.18003567E+04</rscale>
<asrwt>0</asrwt>
<pdfrwt beam="1">  1        2 0.29585292E+00 0.18003567E+04</pdfrwt>
<pdfrwt beam="2">  1       -1 0.64826793E-01 0.18003567E+04</pdfrwt>
<totfact> 0.19124653E+01</totfact>
</mgrwt>
</event>
<event>
12    7  0.1857704E-007  0.1813982E+04  0.7818608E-02  0.8698899E-01
         -1   -1    0    0    0  501 -0.00000000000E+00  0.00000000000E+00  0.44454393427E+03  0.44454393427E+03  0.00000000000E+00 0.  1.
          2   -1    0    0  501    0  0.00000000000E+00 -0.00000000000E+00 -0.18505097017E+04  0.18505097017E+04  0.00000000000E+00 0. -1.
         24    2    1    2    0    0  0.26553733482E+03  0.31934242185E+03  0.12999180739E+03  0.44215223739E+03  0.78173348783E+02 0.  0.
        254    2    1    2    0    0 -0.26553733482E+03 -0.31934242185E+03 -0.15359575748E+04  0.18529013986E+04  0.94952001700E+03 0.  0.
         23    2    4    4    0    0  0.33796424589E+03 -0.23225522493E+03 -0.62258148847E+03  0.75091800870E+03  0.90043461692E+02 0.  0.
         23    2    4    4    0    0 -0.60350158070E+03 -0.87087196926E+02 -0.91337608636E+03  0.11019833899E+04  0.91176634658E+02 0.  0.
          2    1    3    3  502    0  0.17862212946E+02  0.63066168367E+02  0.11336706940E+02  0.66520080938E+02  0.00000000000E+00 0. -1.
         -1    1    3    3    0  502  0.24767512187E+03  0.25627625349E+03  0.11865510045E+03  0.37563215645E+03  0.00000000000E+00 0.  1.
         13    1    5    5    0    0  0.27778844530E+03 -0.21462000100E+03 -0.56831933627E+03  0.66799328825E+03  0.00000000000E+00 0.  1.
        -13    1    5    5    0    0  0.60175800591E+02 -0.17635223925E+02 -0.54262152208E+02  0.82924720451E+02  0.00000000000E+00 0. -1.
          4    1    6    6  503    0 -0.33199007830E+03 -0.38423630151E+02 -0.57883243157E+03  0.66838669293E+03  0.00000000000E+00 0.  1.
         -4    1    6    6    0  503 -0.27151150240E+03 -0.48663566775E+02 -0.33454365478E+03  0.43359669697E+03  0.00000000000E+00 0. -1.
<mgrwt>
<rscale>  0 0.18139822E+04</rscale>
<asrwt>0</asrwt>
<pdfrwt beam="1">  1        2 0.28469380E+00 0.18139822E+04</pdfrwt>
<pdfrwt beam="2">  1       -1 0.68391374E-01 0.18139822E+04</pdfrwt>
<totfact> 0.18800135E+01</totfact>
</mgrwt>
</event>
<event>
12    7  0.1857704E-007  0.1701574E+04  0.7818608E-02  0.8760467E-01
         -1   -1    0    0    0  501 -0.00000000000E+00  0.00000000000E+00  0.40246726625E+03  0.40246726625E+03  0.00000000000E+00 0.  1.
          2   -1    0    0  501    0  0.00000000000E+00 -0.00000000000E+00 -0.17985038488E+04  0.17985038488E+04  0.00000000000E+00 0. -1.
         24    2    1    2    0    0  0.58459766938E+03  0.13590703670E+03 -0.38623797431E+03  0.71859094194E+03  0.83474615107E+02 0.  0.
        254    2    1    2    0    0 -0.58459766938E+03 -0.13590703670E+03 -0.10097986082E+04  0.14823801731E+04  0.90417508854E+03 0.  0.
         23    2    4    4    0    0  0.10229666445E+03 -0.89032020808E+02 -0.70481522040E+03  0.72358751870E+03  0.91777415608E+02 0.  0.
         23    2    4    4    0    0 -0.68689433383E+03 -0.46875015892E+02 -0.30498338779E+03  0.75879265437E+03  0.93436248542E+02 0.  0.
          2    1    3    3  502    0  0.45801853490E+03  0.11649462250E+03 -0.26294048919E+03  0.54082314692E+03  0.00000000000E+00 0. -1.
         -1    1    3    3    0  502  0.12657913448E+03  0.19412414196E+02 -0.12329748511E+03  0.17776779502E+03  0.00000000000E+00 0.  1.
         13    1    5    5    0    0  0.80521786047E+02 -0.32741318634E+02 -0.55988035529E+03  0.56658782569E+03  0.00000000000E+00 0. -1.
        -13    1    5    5    0    0  0.21774878402E+02 -0.56290702174E+02 -0.14493486511E+03  0.15699969301E+03  0.00000000000E+00 0.  1.
          4    1    6    6  503    0 -0.28761568220E+03 -0.47374598632E+02 -0.88647865911E+02  0.30467290227E+03  0.00000000000E+00 0. -1.
         -4    1    6    6    0  503 -0.39927865162E+03  0.49958274053E+00 -0.21633552188E+03  0.45411975211E+03  0.00000000000E+00 0.  1.
<mgrwt>
<rscale>  0 0.17015745E+04</rscale>
<asrwt>0</asrwt>
<pdfrwt beam="1">  1        2 0.27669291E+00 0.17015745E+04</pdfrwt>
<pdfrwt beam="2">  1       -1 0.61918040E-01 0.17015745E+04</pdfrwt>
<totfact> 0.24786701E+01</totfact>
</mgrwt>
</event>
<event>
12    7  0.1857704E-007  0.1900888E+04  0.7818608E-02  0.8654415E-01
         -1   -1    0    0    0  501 -0.00000000000E+00  0.00000000000E+00  0.47493356197E+03  0.47493356197E+03  0.00000000000E+00 0.  1.
          2   -1    0    0  501    0  0.00000000000E+00 -0.00000000000E+00 -0.19020415702E+04  0.19020415702E+04  0.00000000000E+00 0. -1.
         24    2    1    2    0    0 -0.68584150224E+01 -0.44232380036E+03 -0.12895058755E+04  0.13655653935E+04  0.79032011206E+02 0.  0.
        254    2    1    2    0    0  0.68584150224E+01  0.44232380036E+03 -0.13760213274E+03  0.10114097387E+04  0.89906503119E+03 0.  0.
         23    2    4    4    0    0  0.73445336477E+02  0.21053634410E+03  0.36965453428E+03  0.44248716463E+03  0.97111515838E+02 0.  0.
         23    2    4    4    0    0 -0.66586921454E+02  0.23178745626E+03 -0.50725666702E+03  0.56892257404E+03  0.90577734759E+02 0.  0.
          4    1    3    3  502    0  0.42469423920E+00 -0.33362060096E+03 -0.85963859288E+03  0.92210704157E+03  0.00000000000E+00 0. -1.
         -3    1    3    3    0  502 -0.72831092616E+01 -0.10870319940E+03 -0.42986728260E+03  0.44345835192E+03  0.00000000000E+00 0.  1.
         13    1    5    5    0    0  0.25988708578E+02  0.49629085899E+02  0.29734498236E+02  0.63423966496E+02  0.00000000000E+00 0.  1.
        -13    1    5    5    0    0  0.47456627898E+02  0.16090725821E+03  0.33992003604E+03  0.37906319813E+03  0.00000000000E+00 0. -1.
          1    1    6    6  503    0 -0.71623365103E+02  0.23811522038E+03 -0.48132033758E+03  0.54175458648E+03  0.00000000000E+00 0. -1.
         -1    1    6    6    0  503  0.50364436486E+01 -0.63277641231E+01 -0.25936329435E+02  0.27167987558E+02  0.00000000000E+00 0.  1.
<mgrwt>
<rscale>  0 0.19008876E+04</rscale>
<asrwt>0</asrwt>
<pdfrwt beam="1">  1        2 0.29262178E+00 0.19008876E+04</pdfrwt>
<pdfrwt beam="2">  1       -1 0.73066701E-01 0.19008876E+04</pdfrwt>
<totfact> 0.15249302E+01</totfact>
</mgrwt>
</event>
<event>
12    7  0.1857704E-007  0.2408922E+04  0.7818608E-02  0.8436171E-01
          2   -1    0    0  501    0  0.00000000000E+00  0.00000000000E+00  0.23832020700E+04  0.23832020700E+04  0.00000000000E+00 0. -1.
         -1   -1    0    0    0  501 -0.00000000000E+00 -0.00000000000E+00 -0.60872994285E+03  0.60872994285E+03  0.00000000000E+00 0.  1.
         24    2    1    2    0    0  0.95049104112E+03 -0.38998518730E+03  0.89133254864E+03  0.13632638473E+04  0.92157145441E+02 0.  0.
        254    2    1    2    0    0 -0.95049104112E+03  0.38998518730E+03  0.88313957855E+03  0.16286681656E+04  0.90393739436E+03 0.  0.
         23    2    4    4    0    0 -0.74579960236E+02 -0.13478492548E+03  0.50503203145E+03  0.53609161169E+03  0.92777781478E+02 0.  0.
         23    2    4    4    0    0 -0.87591108088E+03  0.52477011278E+03  0.37810754710E+03  0.10925765539E+04  0.90301252014E+02 0.  0.
          4    1    3    3  502    0  0.41720914344E+03 -0.16577421192E+03  0.32985706485E+03  0.55709087404E+03  0.00000000000E+00 0. -1.
         -3    1    3    3    0  502  0.53328189768E+03 -0.22421097538E+03  0.56147548379E+03  0.80617297323E+03  0.00000000000E+00 0.  1.
         13    1    5    5    0    0 -0.35282463516E+02 -0.84974865691E+02  0.42021833308E+03  0.43017325287E+03  0.00000000000E+00 0. -1.
        -13    1    5    5    0    0 -0.39297496720E+02 -0.49810059790E+02  0.84813698368E+02  0.10591835882E+03  0.00000000000E+00 0.  1.
          2    1    6    6  503    0 -0.72922548580E+02  0.51972500201E+02  0.60608506798E+02  0.10813061530E+03  0.00000000000E+00 0.  1.
         -2    1    6    6    0  503 -0.80298853230E+03  0.47279761258E+03  0.31749904030E+03  0.98444593862E+03  0.00000000000E+00 0. -1.
<mgrwt>
<rscale>  0 0.24089221E+04</rscale>
<asrwt>0</asrwt>
<pdfrwt beam="1">  1        2 0.36664647E+00 0.24089221E+04</pdfrwt>
<pdfrwt beam="2">  1       -1 0.93650762E-01 0.24089221E+04</pdfrwt>
<totfact> 0.45933683E+00</totfact>
</mgrwt>
</event>
<event>
12    7  0.1857704E-007  0.1304444E+04  0.7818608E-02  0.9026049E-01
          2   -1    0    0  501    0  0.00000000000E+00  0.00000000000E+00  0.12659109689E+04  0.12659109689E+04  0.00000000000E+00 0. -1.
         -1   -1    0    0    0  501 -0.00000000000E+00 -0.00000000000E+00 -0.33603739060E+03  0.33603739060E+03  0.00000000000E+00 0.  1.
         24    2    1    2    0    0 -0.17070126283E+02  0.30778488780E+03  0.39911841457E+03  0.51063237822E+03  0.80168512978E+02 0.  0.
        254    2    1    2    0    0  0.17070126283E+02 -0.30778488780E+03  0.53075516374E+03  0.10913159813E+04  0.90235613855E+03 0.  0.
         23    2    4    4    0    0  0.26450534944E+03  0.16079500424E+03  0.44131598349E+03  0.54660152795E+03  0.90528005609E+02 0.  0.
         23    2    4    4    0    0 -0.24743522316E+03 -0.46857989204E+03  0.89439180243E+02  0.54471445333E+03  0.89012155422E+02 0.  0.
          2    1    3    3  502    0 -0.27999678960E+02  0.27606710441E+03  0.38417516065E+03  0.47390672313E+03  0.00000000000E+00 0. -1.
         -1    1    3    3    0  502  0.10929552677E+02  0.31717783389E+02  0.14943253914E+02  0.36725655098E+02  0.00000000000E+00 0.  1.
         13    1    5    5    0    0  0.26138812229E+03  0.16689717048E+03  0.40744714766E+03  0.51204647653E+03  0.00000000000E+00 0. -1.
        -13    1    5    5    0    0  0.31172271496E+01 -0.61021662438E+01  0.33868835833E+02  0.34555051420E+02  0.00000000000E+00 0.  1.
          3    1    6    6  503    0 -0.25170039727E+03 -0.46176942033E+03  0.79427491095E+02  0.53187669048E+03  0.00000000000E+00 0. -1.
         -3    1    6    6    0  503  0.42651741160E+01 -0.68104717178E+01  0.10011689148E+02  0.12837762844E+02  0.00000000000E+00 0.  1.
<mgrwt>
<rscale>  0 0.13044438E+04</rscale>
<asrwt>0</asrwt>
<pdfrwt beam="1">  1        2 0.19475553E+00 0.13044438E+04</pdfrwt>
<pdfrwt beam="2">  1       -1 0.51698061E-01 0.13044438E+04</pdfrwt>
<totfact> 0.72790222E+01</totfact>
</mgrwt>
</event>
<event>
12    7  0.1857704E-007  0.3954336E+04  0.7818608E-02  0.8013822E-01
         -1   -1    0    0    0  501 -0.00000000000E+00  0.00000000000E+00  0.98163803755E+03  0.98163803755E+03  0.00000000000E+00 0.  1.
          2   -1    0    0  501    0  0.00000000000E+00 -0.00000000000E+00 -0.39823164120E+04  0.39823164120E+04  0.00000000000E+00 0. -1.
         24    2    1    2    0    0 -0.92204093119E+03 -0.54700656392E+03  0.50364958253E+03  0.11873722533E+04  0.82548811392E+02 0.  0.
        254    2    1    2    0    0  0.92204093119E+03  0.54700656392E+03 -0.35043279569E+04  0.37765821962E+04  0.91262423526E+03 0.  0.
         23    2    4    4    0    0 -0.16113724471E+03  0.31717423866E+02 -0.70793997480E+03  0.73240412874E+03  0.90915308159E+02 0.  0.
         23    2    4    4    0    0  0.10831781759E+04  0.51528914005E+03 -0.27963879821E+04  0.30441780674E+04  0.91850426849E+02 0.  0.
          4    1    3    3  502    0 -0.35825145556E+03 -0.24876929095E+03  0.23328618942E+03  0.49462380827E+03  0.00000000000E+00 0. -1.
         -3    1    3    3    0  502 -0.56378947563E+03 -0.29823727297E+03  0.27036339311E+03  0.69274844508E+03  0.00000000000E+00 0.  1.
         13    1    5    5    0    0 -0.56802916484E+02  0.14090383369E+02 -0.44717615073E+03  0.45098960078E+03  0.00000000000E+00 0.  1.
        -13    1    5    5    0    0 -0.10433432823E+03  0.17627040498E+02 -0.26076382407E+03  0.28141452796E+03  0.00000000000E+00 0. -1.
          2    1    6    6  503    0  0.56266827100E+03  0.26373953493E+03 -0.13325914469E+04  0.14703584903E+04  0.00000000000E+00 0.  1.
         -2    1    6    6    0  503  0.52050990491E+03  0.25154960512E+03 -0.14637965352E+04  0.15738195772E+04  0.00000000000E+00 0. -1.
<mgrwt>
<rscale>  0 0.39543360E+04</rscale>
<asrwt>0</asrwt>
<pdfrwt beam="1">  1        2 0.61266406E+00 0.39543360E+04</pdfrwt>
<pdfrwt beam="2">  1       -1 0.15102124E+00 0.39543360E+04</pdfrwt>
<totfact> 0.10840266E-01</totfact>
</mgrwt>
</event>
<event>
12    7  0.1857704E-007  0.1579985E+04  0.7818608E-02  0.8832939E-01
         -1   -1    0    0    0  501 -0.00000000000E+00  0.00000000000E+00  0.32949955306E+03  0.32949955306E+03  0.00000000000E+00 0.  1.
          2   -1    0    0  501    0  0.00000000000E+00 -0.00000000000E+00 -0.18940482455E+04  0.18940482455E+04  0.00000000000E+00 0. -1.
         24    2    1    2    0    0 -0.13135116596E+03 -0.35657555264E+03 -0.10414644427E+04  0.11112300088E+04  0.76057172726E+02 0.  0.
        254    2    1    2    0    0  0.13135116596E+03  0.35657555264E+03 -0.52308424975E+03  0.11123177898E+04  0.90511572717E+03 0.  0.
         23    2    4    4    0    0 -0.42036077997E+02  0.24889203533E+03 -0.74833054416E+03  0.79498179721E+03  0.91011963307E+02 0.  0.
         23    2    4    4    0    0  0.17338724396E+03  0.10768351732E+03  0.22524629441E+03  0.31733599256E+03  0.91144735213E+02 0.  0.
          2    1    3    3  502    0 -0.98493320154E+02 -0.32684893892E+03 -0.88305643104E+03  0.94674168778E+03  0.00000000000E+00 0. -1.
         -1    1    3    3    0  502 -0.32857845810E+02 -0.29726613722E+02 -0.15840801167E+03  0.16448832104E+03  0.00000000000E+00 0.  1.
         13    1    5    5    0    0  0.45129341671E+01  0.69482379976E+01 -0.11677897319E+03  0.11707251243E+03  0.00000000000E+00 0. -1.
        -13    1    5    5    0    0 -0.46549012164E+02  0.24194379733E+03 -0.63155157097E+03  0.67790928478E+03  0.00000000000E+00 0.  1.
          3    1    6    6  503    0  0.51623420988E+02  0.57765641166E+02  0.32644227319E+02  0.84068379734E+02  0.00000000000E+00 0. -1.
         -3    1    6    6    0  503  0.12176382297E+03  0.49917876149E+02  0.19260206710E+03  0.23326761283E+03  0.00000000000E+00 0.  1.
<mgrwt>
<rscale>  0 0.15799849E+04</rscale>
<asrwt>0</asrwt>
<pdfrwt beam="1">  1        2 0.29139204E+00 0.15799849E+04</pdfrwt>
<pdfrwt beam="2">  1       -1 0.50692238E-01 0.15799849E+04</pdfrwt>
<totfact> 0.32730521E+01</totfact>
</mgrwt>
</event>
<event>
12    7  0.1857704E-007  0.3927857E+04  0.7818608E-02  0.8019260E-01
          2   -1    0    0  501    0  0.00000000000E+00  0.00000000000E+00  0.24610038372E+04  0.24610038372E+04  0.00000000000E+00 0. -1.
         -1   -1    0    0    0  501 -0.00000000000E+00 -0.00000000000E+00 -0.15672530207E+04  0.15672530207E+04  0.00000000000E+00 0.  1.
         24    2    1    2    0    0 -0.18165428837E+04 -0.63468266101E+02  0.80253669589E+03  0.19886424968E+04  0.82325955853E+02 0.  0.
        254    2    1    2    0    0  0.18165428837E+04  0.63468266101E+02  0.91214120607E+02  0.20396143612E+04  0.92078795466E+03 0.  0.
         23    2    4    4    0    0  0.74022159458E+02 -0.14511735300E+03 -0.18172382087E+03  0.26072816327E+03  0.91745854479E+02 0.  0.
         23    2    4    4    0    0  0.17425207242E+04  0.20858561910E+03  0.27293794148E+03  0.17788861979E+04  0.10027238089E+03 0.  0.
          4    1    3    3  502    0 -0.16437866314E+04 -0.78006645562E+02  0.71201546268E+03  0.17930659624E+04  0.00000000000E+00 0. -1.
         -3    1    3    3    0  502 -0.17275625226E+03  0.14538379461E+02  0.90521233214E+02  0.19557653447E+03  0.00000000000E+00 0.  1.
         13    1    5    5    0    0 -0.55557678180E+01 -0.56264426860E+02 -0.20419038029E+02  0.60112306560E+02  0.00000000000E+00 0. -1.
        -13    1    5    5    0    0  0.79577927276E+02 -0.88852926142E+02 -0.16130478284E+03  0.20061585671E+03  0.00000000000E+00 0.  1.
          2    1    6    6  503    0  0.88382354203E+03  0.11976465599E+03  0.18743782010E+03  0.91138387229E+03  0.00000000000E+00 0.  1.
         -2    1    6    6    0  503  0.85869718217E+03  0.88820963112E+02  0.85500121377E+02  0.86750232560E+03  0.00000000000E+00 0. -1.
<mgrwt>
<rscale>  0 0.39278573E+04</rscale>
<asrwt>0</asrwt>
<pdfrwt beam="1">  1        2 0.37861598E+00 0.39278573E+04</pdfrwt>
<pdfrwt beam="2">  1       -1 0.24111585E+00 0.39278573E+04</pdfrwt>
<totfact> 0.26363362E-01</totfact>
</mgrwt>
</event>
<event>
12    7  0.1857704E-007  0.2696324E+04  0.7818608E-02  0.8336199E-01
          2   -1    0    0  501    0  0.00000000000E+00  0.00000000000E+00  0.82282301272E+03  0.82282301272E+03  0.00000000000E+00 0. -1.
         -1   -1    0    0    0  501 -0.00000000000E+00 -0.00000000000E+00 -0.22089081496E+04  0.22089081496E+04  0.00000000000E+00 0.  1.
         24    2    1    2    0    0 -0.10625443491E+04 -0.25245756888E+03 -0.11021187060E+04  0.15536153613E+04  0.79496735917E+02 0.  0.
        254    2    1    2    0    0  0.10625443491E+04  0.25245756888E+03 -0.28396643093E+03  0.14781158010E+04  0.95470103667E+03 0.  0.
         23    2    4    4    0    0  0.97130117844E+03 -0.16185244885E+03 -0.62321260461E+02  0.99080756588E+03  0.90517946634E+02 0.  0.
         23    2    4    4    0    0  0.91243170659E+02  0.41431001773E+03 -0.22164517047E+03  0.48730823513E+03  0.91458337227E+02 0.  0.
          2    1    3    3  502    0 -0.24984361263E+03 -0.66517431529E+02 -0.30930797619E+03  0.40313499427E+03  0.00000000000E+00 0. -1.
         -1    1    3    3    0  502 -0.81270073648E+03 -0.18594013735E+03 -0.79281072977E+03  0.11504803671E+04  0.00000000000E+00 0.  1.
         13    1    5    5    0    0  0.58585030338E+03 -0.53336619689E+02 -0.28965723896E+02  0.58898589638E+03  0.00000000000E+00 0.  1.
        -13    1    5    5    0    0  0.38545087506E+03 -0.10851582916E+03 -0.33355536565E+02  0.40182166951E+03  0.00000000000E+00 0. -1.
          4    1    6    6  503    0  0.33542542418E+02  0.60359831549E+02 -0.71211196462E+01  0.69419894566E+02  0.00000000000E+00 0. -1.
         -4    1    6    6    0  503  0.57700628241E+02  0.35395018618E+03 -0.21452405082E+03  0.41788834056E+03  0.00000000000E+00 0.  1.
<mgrwt>
<rscale>  0 0.26963238E+04</rscale>
<asrwt>0</asrwt>
<pdfrwt beam="1">  1        2 0.12658816E+00 0.26963238E+04</pdfrwt>
<pdfrwt beam="2">  1       -1 0.33983202E+00 0.26963238E+04</pdfrwt>
<totfact> 0.60210972E-01</totfact>
</mgrwt>
</event>
<event>
12    7  0.2090545E-007  0.1503441E+04  0.7818608E-02  0.8882168E-01
          2   -1    0    0  501    0  0.00000000000E+00  0.00000000000E+00  0.16029660142E+04  0.16029660142E+04  0.00000000000E+00 0. -1.
         -1   -1    0    0    0  501 -0.00000000000E+00 -0.00000000000E+00 -0.35252369976E+03  0.35252369976E+03  0.00000000000E+00 0.  1.
         24    2    1    2    0    0 -0.19802869248E+03  0.25600400125E+03 -0.58273342710E+02  0.33810901771E+03  0.78539885924E+02 0.  0.
        254    2    1    2    0    0  0.19802869248E+03 -0.25600400125E+03  0.13087156571E+04  0.16173806962E+04  0.89354923404E+03 0.  0.
         23    2    4    4    0    0 -0.16937678976E+03 -0.43805791871E+03  0.43394698317E+03  0.64687775044E+03  0.97762992765E+02 0.  0.
         23    2    4    4    0    0  0.36740548224E+03  0.18205391746E+03  0.87476867396E+03  0.97050294581E+03  0.92332646587E+02 0.  0.
          4    1    3    3  502    0 -0.11208252125E+02  0.23576360232E+02 -0.28146855122E+02  0.38388997522E+02  0.00000000000E+00 0. -1.
         -3    1    3    3    0  502 -0.18682044036E+03  0.23242764102E+03 -0.30126487588E+02  0.29972002019E+03  0.00000000000E+00 0.  1.
         13    1    5    5    0    0 -0.17526946673E+03 -0.38203154888E+03  0.35671903769E+03  0.55128573549E+03  0.00000000000E+00 0. -1.
        -13    1    5    5    0    0  0.58926769669E+01 -0.56026369835E+02  0.77227945485E+02  0.95592014952E+02  0.00000000000E+00 0.  1.
          4    1    6    6  503    0  0.35041135212E+03  0.18857942703E+03  0.79940420303E+03  0.89297110581E+03  0.00000000000E+00 0. -1.
         -4    1    6    6    0  503  0.16994130121E+02 -0.65255095690E+01  0.75364470932E+02  0.77531839992E+02  0.00000000000E+00 0.  1.
<mgrwt>
<rscale>  0 0.15034407E+04</rscale>
<asrwt>0</asrwt>
<pdfrwt beam="1">  1        2 0.24661015E+00 0.15034407E+04</pdfrwt>
<pdfrwt beam="2">  1       -1 0.54234416E-01 0.15034407E+04</pdfrwt>
<totfact> 0.41972866E+01</totfact>
</mgrwt>
</event>
<event>
12    7  0.1857704E-007  0.1985303E+04  0.7818608E-02  0.8613523E-01
          2   -1    0    0  501    0  0.00000000000E+00  0.00000000000E+00  0.58761081449E+03  0.58761081449E+03  0.00000000000E+00 0. -1.
         -1   -1    0    0    0  501 -0.00000000000E+00 -0.00000000000E+00 -0.16768874387E+04  0.16768874387E+04  0.00000000000E+00 0.  1.
         24    2    1    2    0    0  0.48882554915E+03  0.55097104107E+02 -0.11099458523E+04  0.12167560592E+04  0.80804729225E+02 0.  0.
        254    2    1    2    0    0 -0.48882554915E+03 -0.55097104107E+02  0.20669228047E+02  0.10477421940E+04  0.92485154470E+03 0.  0.
         23    2    4    4    0    0 -0.10960971576E+03  0.14461668687E+03  0.41291510059E+03  0.46019935687E+03  0.91412755443E+02 0.  0.
         23    2    4    4    0    0 -0.37921583339E+03 -0.19971379098E+03 -0.39224587254E+03  0.58754283713E+03  0.87518651349E+02 0.  0.
          2    1    3    3  502    0  0.20336206332E+02  0.15467096469E+02 -0.33659003601E+02  0.42257790816E+02  0.00000000000E+00 0. -1.
         -1    1    3    3    0  502  0.46848934281E+03  0.39630007638E+02 -0.10762868487E+04  0.11744982684E+04  0.00000000000E+00 0.  1.
         13    1    5    5    0    0 -0.58789493566E+02  0.41969356482E+02  0.25555947456E+03  0.26557160329E+03  0.00000000000E+00 0. -1.
        -13    1    5    5    0    0 -0.50820222189E+02  0.10264733039E+03  0.15735562603E+03  0.19462775358E+03  0.00000000000E+00 0.  1.
          4    1    6    6  503    0 -0.28879069945E+03 -0.14289182818E+03 -0.34079762989E+03  0.46900017824E+03  0.00000000000E+00 0. -1.
         -4    1    6    6    0  503 -0.90425133939E+02 -0.56821962803E+02 -0.51448242650E+02  0.11854265889E+03  0.00000000000E+00 0.  1.
<mgrwt>
<rscale>  0 0.19853032E+04</rscale>
<asrwt>0</asrwt>
<pdfrwt beam="1">  1        2 0.90401664E-01 0.19853032E+04</pdfrwt>
<pdfrwt beam="2">  1       -1 0.25798268E+00 0.19853032E+04</pdfrwt>
<totfact> 0.33416526E+00</totfact>
</mgrwt>
</event>
<event>
12    7  0.1857704E-007  0.1777286E+04  0.7818608E-02  0.8718473E-01
          2   -1    0    0  501    0  0.00000000000E+00  0.00000000000E+00  0.22962416296E+04  0.22962416296E+04  0.00000000000E+00 0. -1.
         -1   -1    0    0    0  501 -0.00000000000E+00 -0.00000000000E+00 -0.34390375704E+03  0.34390375704E+03  0.00000000000E+00 0.  1.
         24    2    1    2    0    0  0.50860265204E+03 -0.11748621855E+03  0.13296721834E+04  0.14306792658E+04  0.79595081803E+02 0.  0.
        254    2    1    2    0    0 -0.50860265204E+03  0.11748621855E+03  0.62266568920E+03  0.12094661209E+04  0.89588842378E+03 0.  0.
         23    2    4    4    0    0 -0.29945468275E+03 -0.26636533898E+03  0.64305163826E+03  0.76240912709E+03  0.84431432353E+02 0.  0.
         23    2    4    4    0    0 -0.20914796929E+03  0.38385155754E+03 -0.20385949061E+02  0.44705699380E+03  0.91430178307E+02 0.  0.
          2    1    3    3  502    0  0.22463262203E+03 -0.53276550458E+02  0.48274806439E+03  0.53511110938E+03  0.00000000000E+00 0. -1.
         -1    1    3    3    0  502  0.28397003001E+03 -0.64209668095E+02  0.84692411898E+03  0.89556815639E+03  0.00000000000E+00 0.  1.
         13    1    5    5    0    0 -0.15110371309E+03 -0.78837154841E+02  0.26310653018E+03  0.31348472900E+03  0.00000000000E+00 0.  1.
        -13    1    5    5    0    0 -0.14835096966E+03 -0.18752818414E+03  0.37994510808E+03  0.44892439809E+03  0.00000000000E+00 0. -1.
          1    1    6    6  503    0 -0.21855824674E+03  0.36574914782E+03 -0.17333699376E+02  0.42642772363E+03  0.00000000000E+00 0. -1.
         -1    1    6    6    0  503  0.94102774561E+01  0.18102409718E+02 -0.30522496854E+01  0.20629270165E+02  0.00000000000E+00 0.  1.
<mgrwt>
<rscale>  0 0.17772857E+04</rscale>
<asrwt>0</asrwt>
<pdfrwt beam="1">  1        2 0.35326793E+00 0.17772857E+04</pdfrwt>
<pdfrwt beam="2">  1       -1 0.52908272E-01 0.17772857E+04</pdfrwt>
<totfact> 0.17681299E+01</totfact>
</mgrwt>
</event>
<event>
12    7  0.1857704E-007  0.2489792E+04  0.7818608E-02  0.8406631E-01
          2   -1    0    0  501    0  0.00000000000E+00  0.00000000000E+00  0.18682411774E+04  0.18682411774E+04  0.00000000000E+00 0. -1.
         -1   -1    0    0    0  501 -0.00000000000E+00 -0.00000000000E+00 -0.82953213372E+03  0.82953213372E+03  0.00000000000E+00 0.  1.
         24    2    1    2    0    0 -0.14838405160E+03  0.87448763824E+03 -0.21605495122E+03  0.91648547460E+03  0.80742968834E+02 0.  0.
        254    2    1    2    0    0  0.14838405160E+03 -0.87448763824E+03  0.12547639949E+04  0.17812878365E+04  0.90100345025E+03 0.  0.
         23    2    4    4    0    0  0.33259889485E+03 -0.70522714740E+03  0.39030136915E+03  0.87672422432E+03  0.91339216456E+02 0.  0.
         23    2    4    4    0    0 -0.18421484325E+03 -0.16926049083E+03  0.86446262572E+03  0.90456361216E+03  0.91408287025E+02 0.  0.
          2    1    3    3  502    0 -0.65966315624E+02  0.26598633993E+03 -0.34860046715E+02  0.27625262113E+03  0.00000000000E+00 0. -1.
         -1    1    3    3    0  502 -0.82417735974E+02  0.60850129831E+03 -0.18119490450E+03  0.64023285347E+03  0.00000000000E+00 0.  1.
         13    1    5    5    0    0  0.24027903170E+03 -0.59235225350E+03  0.31681033946E+03  0.71343114348E+03  0.00000000000E+00 0.  1.
        -13    1    5    5    0    0  0.92319863147E+02 -0.11287489391E+03  0.73491029682E+02  0.16329308084E+03  0.00000000000E+00 0. -1.
          1    1    6    6  503    0 -0.84390637302E+02 -0.10094461843E+03  0.30493175950E+03  0.33210687076E+03  0.00000000000E+00 0. -1.
         -1    1    6    6    0  503 -0.99824205948E+02 -0.68315872402E+02  0.55953086622E+03  0.57245674140E+03  0.00000000000E+00 0.  1.
<mgrwt>
<rscale>  0 0.24897920E+04</rscale>
<asrwt>0</asrwt>
<pdfrwt beam="1">  1        2 0.28742172E+00 0.24897920E+04</pdfrwt>
<pdfrwt beam="2">  1       -1 0.12762033E+00 0.24897920E+04</pdfrwt>
<totfact> 0.42686192E+00</totfact>
</mgrwt>
</event>
<event>
12    7  0.1857704E-007  0.1384106E+04  0.7818608E-02  0.8965405E-01
         -1   -1    0    0    0  501 -0.00000000000E+00  0.00000000000E+00  0.47628751806E+03  0.47628751806E+03  0.00000000000E+00 0.  1.
          2   -1    0    0  501    0  0.00000000000E+00 -0.00000000000E+00 -0.10055631027E+04  0.10055631027E+04  0.00000000000E+00 0. -1.
         24    2    1    2    0    0  0.12089707668E+03  0.28328162493E+03 -0.42252885644E+03  0.52940970141E+03  0.82942240421E+02 0.  0.
        254    2    1    2    0    0 -0.12089707668E+03 -0.28328162493E+03 -0.10674672823E+03  0.95244091938E+03  0.89492137015E+03 0.  0.
         23    2    4    4    0    0 -0.43761198535E+03 -0.23078390856E+03 -0.28202804416E+03  0.57678478255E+03  0.91517241650E+02 0.  0.
         23    2    4    4    0    0  0.31671490867E+03 -0.52497716370E+02  0.17528131593E+03  0.37565613683E+03  0.85613374128E+02 0.  0.
          4    1    3    3  502    0  0.13318810378E+03  0.25198781702E+03 -0.38502504171E+03  0.47904197484E+03  0.00000000000E+00 0. -1.
         -3    1    3    3    0  502 -0.12291027090E+02  0.31293807907E+02 -0.37503814732E+02  0.50367726569E+02  0.00000000000E+00 0.  1.
         13    1    5    5    0    0 -0.16898124092E+03 -0.12606397547E+03 -0.15526532301E+03  0.26182839079E+03  0.00000000000E+00 0.  1.
        -13    1    5    5    0    0 -0.26863074443E+03 -0.10471993309E+03 -0.12676272115E+03  0.31495639176E+03  0.00000000000E+00 0. -1.
          1    1    6    6  503    0  0.20073625794E+03 -0.68911038726E+02  0.13617870985E+03  0.25216743946E+03  0.00000000000E+00 0. -1.
         -1    1    6    6    0  503  0.11597865073E+03  0.16413322356E+02  0.39102606083E+02  0.12348869737E+03  0.00000000000E+00 0.  1.
<mgrwt>
<rscale>  0 0.13841057E+04</rscale>
<asrwt>0</asrwt>
<pdfrwt beam="1">  1        2 0.15470201E+00 0.13841057E+04</pdfrwt>
<pdfrwt beam="2">  1       -1 0.73275004E-01 0.13841057E+04</pdfrwt>
<totfact> 0.52136225E+01</totfact>
</mgrwt>
</event>
<event>
12    7  0.1857704E-007  0.2045028E+04  0.7818608E-02  0.8585853E-01
          2   -1    0    0  501    0  0.00000000000E+00  0.00000000000E+00  0.16236369321E+04  0.16236369321E+04  0.00000000000E+00 0. -1.
         -1   -1    0    0    0  501 -0.00000000000E+00 -0.00000000000E+00 -0.64394630173E+03  0.64394630173E+03  0.00000000000E+00 0.  1.
         24    2    1    2    0    0  0.23206314909E+03 -0.21610774596E+03 -0.44569441088E+03  0.55291744328E+03  0.80736163935E+02 0.  0.
        254    2    1    2    0    0 -0.23206314909E+03  0.21610774596E+03  0.14253850412E+04  0.17146657905E+04  0.89877716615E+03 0.  0.
         23    2    4    4    0    0 -0.18289463681E+03  0.98283368236E+02 -0.48540659193E+02  0.23239279992E+03  0.92412927732E+02 0.  0.
         23    2    4    4    0    0 -0.49168512281E+02  0.11782437772E+03  0.14739257004E+04  0.14822729906E+04  0.91521154475E+02 0.  0.
          2    1    3    3  502    0  0.17208627884E+02 -0.15697418751E+02 -0.59356788563E+01  0.24037015468E+02  0.00000000000E+00 0. -1.
         -1    1    3    3    0  502  0.21485452121E+03 -0.20041032720E+03 -0.43975873202E+03  0.52888042782E+03  0.00000000000E+00 0.  1.
         13    1    5    5    0    0 -0.23586848225E+02  0.44622612491E+02 -0.39420838524E+02  0.64043106301E+02  0.00000000000E+00 0.  1.
        -13    1    5    5    0    0 -0.15930778859E+03  0.53660755746E+02 -0.91198206687E+01  0.16834969362E+03  0.00000000000E+00 0. -1.
          1    1    6    6  503    0 -0.62222652432E+01  0.10768568363E+03  0.11974055183E+04  0.12022540906E+04  0.00000000000E+00 0. -1.
         -1    1    6    6    0  503 -0.42946247038E+02  0.10138694093E+02  0.27652018213E+03  0.28001890003E+03  0.00000000000E+00 0.  1.
<mgrwt>
<rscale>  0 0.20450281E+04</rscale>
<asrwt>0</asrwt>
<pdfrwt beam="1">  1        2 0.24979030E+00 0.20450281E+04</pdfrwt>
<pdfrwt beam="2">  1       -1 0.99068662E-01 0.20450281E+04</pdfrwt>
<totfact> 0.11106213E+01</totfact>
</mgrwt>
</event>
<event>
12    7  0.1857704E-007  0.1363489E+04  0.7818608E-02  0.8980680E-01
          2   -1    0    0  501    0  0.00000000000E+00  0.00000000000E+00  0.29403957537E+04  0.29403957537E+04  0.00000000000E+00 0. -1.
         -1   -1    0    0    0  501 -0.00000000000E+00 -0.00000000000E+00 -0.15806563579E+03  0.15806563579E+03  0.00000000000E+00 0.  1.
         24    2    1    2    0    0  0.80594901317E+01  0.27663322315E+03  0.14454236727E+04  0.14738259872E+04  0.79514472258E+02 0.  0.
        254    2    1    2    0    0 -0.80594901317E+01 -0.27663322315E+03  0.13369064451E+04  0.16246354023E+04  0.88064206788E+03 0.  0.
         23    2    4    4    0    0 -0.32235972231E+03 -0.41146197456E+03  0.56301308014E+03  0.77356520281E+03  0.90568468644E+02 0.  0.
         23    2    4    4    0    0  0.31430023218E+03  0.13482875141E+03  0.77389336500E+03  0.85107019946E+03  0.91902752179E+02 0.  0.
          4    1    3    3  502    0 -0.20517235531E+02  0.55842876214E+02  0.20003830200E+03  0.20869764265E+03  0.00000000000E+00 0. -1.
         -3    1    3    3    0  502  0.28576725663E+02  0.22079034694E+03  0.12453853707E+04  0.12651283446E+04  0.00000000000E+00 0.  1.
         13    1    5    5    0    0 -0.20714827190E+03 -0.21412233349E+03  0.27073224180E+03  0.40256021538E+03  0.00000000000E+00 0. -1.
        -13    1    5    5    0    0 -0.11521145041E+03 -0.19733964107E+03  0.29228083834E+03  0.37100498744E+03  0.00000000000E+00 0.  1.
          1    1    6    6  503    0  0.31625594231E+03  0.11858771016E+03  0.73976568256E+03  0.81322452689E+03  0.00000000000E+00 0. -1.
         -1    1    6    6    0  503 -0.19557101298E+01  0.16241041255E+02  0.34127682446E+02  0.37845672570E+02  0.00000000000E+00 0.  1.
<mgrwt>
<rscale>  0 0.13634889E+04</rscale>
<asrwt>0</asrwt>
<pdfrwt beam="1">  1        2 0.45236854E+00 0.13634889E+04</pdfrwt>
<pdfrwt beam="2">  1       -1 0.24317792E-01 0.13634889E+04</pdfrwt>
<totfact> 0.31245143E+01</totfact>
</mgrwt>
</event>
<event>
12    7  0.1857704E-007  0.2044257E+04  0.7818608E-02  0.8586204E-01
         -1   -1    0    0    0  501 -0.00000000000E+00  0.00000000000E+00  0.45891497110E+03  0.45891497110E+03  0.00000000000E+00 0.  1.
          2   -1    0    0  501    0  0.00000000000E+00 -0.00000000000E+00 -0.22765583856E+04  0.22765583856E+04  0.00000000000E+00 0. -1.
         24    2    1    2    0    0  0.13763614337E+03  0.67532495610E+02  0.34493815097E+03  0.38586485529E+03  0.80031322799E+02 0.  0.
        254    2    1    2    0    0 -0.13763614337E+03 -0.67532495610E+02 -0.21625815655E+04  0.23496085014E+04  0.90575754847E+03 0.  0.
         23    2    4    4    0    0  0.24799281622E+03  0.94083338894E+01 -0.17595363714E+04  0.17792820796E+04  0.91035831657E+02 0.  0.
         23    2    4    4    0    0 -0.38562895959E+03 -0.76940829499E+02 -0.40304519405E+03  0.57032642184E+03  0.90538463013E+02 0.  0.
          2    1    3    3  502    0  0.71477019313E+02  0.41918867369E+02  0.27104462154E+03  0.28342784372E+03  0.00000000000E+00 0. -1.
         -1    1    3    3    0  502  0.66159124054E+02  0.25613628241E+02  0.73893529432E+02  0.10243701157E+03  0.00000000000E+00 0.  1.
         13    1    5    5    0    0  0.21039423007E+03  0.31139169212E+02 -0.12563777546E+04  0.12742528956E+04  0.00000000000E+00 0. -1.
        -13    1    5    5    0    0  0.37598586153E+02 -0.21730835323E+02 -0.50315861687E+03  0.50502918393E+03  0.00000000000E+00 0.  1.
          4    1    6    6  503    0 -0.94875893940E+02 -0.48320587025E+02 -0.14919748519E+03  0.18329267298E+03  0.00000000000E+00 0. -1.
         -4    1    6    6    0  503 -0.29075306565E+03 -0.28620242474E+02 -0.25384770886E+03  0.38703374886E+03  0.00000000000E+00 0.  1.
<mgrwt>
<rscale>  0 0.20442571E+04</rscale>
<asrwt>0</asrwt>
<pdfrwt beam="1">  1        2 0.35023975E+00 0.20442571E+04</pdfrwt>
<pdfrwt beam="2">  1       -1 0.70602304E-01 0.20442571E+04</pdfrwt>
<totfact> 0.99864887E+00</totfact>
</mgrwt>
</event>
<event>
12    7  0.1857704E-007  0.2327114E+04  0.7818608E-02  0.8467307E-01
         -1   -1    0    0    0  501 -0.00000000000E+00  0.00000000000E+00  0.36494999744E+03  0.36494999744E+03  0.00000000000E+00 0.  1.
          2   -1    0    0  501    0  0.00000000000E+00 -0.00000000000E+00 -0.37097269379E+04  0.37097269379E+04  0.00000000000E+00 0. -1.
         24    2    1    2    0    0  0.50997329869E+03  0.68558534700E+03 -0.55465876970E+03  0.10219965954E+04  0.82040579769E+02 0.  0.
        254    2    1    2    0    0 -0.50997329869E+03 -0.68558534700E+03 -0.27901181707E+04  0.30526803399E+04  0.89665925402E+03 0.  0.
         23    2    4    4    0    0 -0.59326020907E+03 -0.80880816407E+03 -0.19512125625E+04  0.21958813511E+04  0.92391136181E+02 0.  0.
         23    2    4    4    0    0  0.83286910378E+02  0.12322281707E+03 -0.83890560821E+03  0.85679898884E+03  0.90671471246E+02 0.  0.
          4    1    3    3  502    0  0.28426277242E+03  0.36979496039E+03 -0.25466735577E+03  0.53142177092E+03  0.00000000000E+00 0. -1.
         -3    1    3    3    0  502  0.22571052628E+03  0.31579038662E+03 -0.29999141393E+03  0.49057482445E+03  0.00000000000E+00 0.  1.
         13    1    5    5    0    0 -0.51748481977E+03 -0.68708330704E+03 -0.17338467574E+04  0.19354840706E+04  0.00000000000E+00 0.  1.
        -13    1    5    5    0    0 -0.75775389307E+02 -0.12172485704E+03 -0.21736580513E+03  0.26039728049E+03  0.00000000000E+00 0. -1.
          1    1    6    6  503    0  0.41233652573E+02 -0.19977321041E+01 -0.16650094703E+03  0.17154232830E+03  0.00000000000E+00 0. -1.
         -1    1    6    6    0  503  0.42053257805E+02  0.12522054917E+03 -0.67240466119E+03  0.68525666054E+03  0.00000000000E+00 0.  1.
<mgrwt>
<rscale>  0 0.23271140E+04</rscale>
<asrwt>0</asrwt>
<pdfrwt beam="1">  1        2 0.57072722E+00 0.23271140E+04</pdfrwt>
<pdfrwt beam="2">  1       -1 0.56146154E-01 0.23271140E+04</pdfrwt>
<totfact> 0.19030189E+00</totfact>
</mgrwt>
</event>
<event>
12    7  0.1857704E-007  0.2130555E+04  0.7818608E-02  0.8547902E-01
          2   -1    0    0  501    0  0.00000000000E+00  0.00000000000E+00  0.13790598453E+04  0.13790598453E+04  0.00000000000E+00 0. -1.
         -1   -1    0    0    0  501 -0.00000000000E+00 -0.00000000000E+00 -0.82289094650E+03  0.82289094650E+03  0.00000000000E+00 0.  1.
         24    2    1    2    0    0 -0.17169671251E+03  0.71490207326E+03  0.70879627057E+03  0.10244641785E+04  0.81055316454E+02 0.  0.
        254    2    1    2    0    0  0.17169671251E+03 -0.71490207326E+03 -0.15262737181E+03  0.11774866133E+04  0.90698118748E+03 0.  0.
         23    2    4    4    0    0 -0.30269518489E+03 -0.56446858844E+03  0.70056474396E+01  0.64698794388E+03  0.91077758760E+02 0.  0.
         23    2    4    4    0    0  0.47439189739E+03 -0.15043348481E+03 -0.15963301925E+03  0.53049866942E+03  0.90929817744E+02 0.  0.
          2    1    3    3  502    0 -0.16120654802E+03  0.53413540766E+03  0.51586069992E+03  0.75986870350E+03  0.00000000000E+00 0. -1.
         -1    1    3    3    0  502 -0.10490164489E+02  0.18076666560E+03  0.19293557065E+03  0.26459547495E+03  0.00000000000E+00 0.  1.
         13    1    5    5    0    0 -0.25991943700E+03 -0.50401272169E+03 -0.21848003075E+02  0.56750706832E+03  0.00000000000E+00 0. -1.
        -13    1    5    5    0    0 -0.42775747886E+02 -0.60455866756E+02  0.28853650514E+02  0.79480875564E+02  0.00000000000E+00 0.  1.
          2    1    6    6  503    0  0.44711399136E+03 -0.11680980198E+03 -0.13925851431E+03  0.48264726760E+03  0.00000000000E+00 0. -1.
         -2    1    6    6    0  503  0.27277906028E+02 -0.33623682834E+02 -0.20374504938E+02  0.47851401819E+02  0.00000000000E+00 0.  1.
<mgrwt>
<rscale>  0 0.21305547E+04</rscale>
<asrwt>0</asrwt>
<pdfrwt beam="1">  1        2 0.21216305E+00 0.21305547E+04</pdfrwt>
<pdfrwt beam="2">  1       -1 0.12659861E+00 0.21305547E+04</pdfrwt>
<totfact> 0.84494268E+00</totfact>
</mgrwt>
</event>
<event>
12    7  0.1857704E-007  0.1335540E+04  0.7818608E-02  0.9001846E-01
          2   -1    0    0  501    0  0.00000000000E+00  0.00000000000E+00  0.33090979972E+04  0.33090979972E+04  0.00000000000E+00 0. -1.
         -1   -1    0    0    0  501 -0.00000000000E+00 -0.00000000000E+00 -0.13475488033E+03  0.13475488033E+03  0.00000000000E+00 0.  1.
         24    2    1    2    0    0 -0.26892576581E+03  0.12251525886E+03  0.13798303492E+04  0.14132562566E+04  0.77655637721E+02 0.  0.
        254    2    1    2    0    0  0.26892576581E+03 -0.12251525886E+03  0.17945127676E+04  0.20305966209E+04  0.90316970025E+03 0.  0.
         23    2    4    4    0    0  0.24916957329E+03 -0.41562253867E+03  0.15809846108E+04  0.16561328514E+04  0.91848304673E+02 0.  0.
         23    2    4    4    0    0  0.19756192511E+02  0.29310727981E+03  0.21352815688E+03  0.37446376952E+03  0.91250513869E+02 0.  0.
          2    1    3    3  502    0 -0.17778746381E+03  0.85070023115E+02  0.73611427401E+03  0.76204298798E+03  0.00000000000E+00 0. -1.
         -3    1    3    3    0  502 -0.91138301995E+02  0.37445235742E+02  0.64371607522E+03  0.65121326866E+03  0.00000000000E+00 0.  1.
         13    1    5    5    0    0  0.74476066840E+02 -0.20613560185E+03  0.64573507588E+03  0.68191814692E+03  0.00000000000E+00 0.  1.
        -13    1    5    5    0    0  0.17469350645E+03 -0.20948693682E+03  0.93524953488E+03  0.97421470446E+03  0.00000000000E+00 0. -1.
          1    1    6    6  503    0  0.48786827520E+01  0.20124853258E+03  0.91825515845E+02  0.22126160708E+03  0.00000000000E+00 0. -1.
         -1    1    6    6    0  503  0.14877509759E+02  0.91858747237E+02  0.12170264103E+03  0.15320216243E+03  0.00000000000E+00 0.  1.
<mgrwt>
<rscale>  0 0.13355405E+04</rscale>
<asrwt>0</asrwt>
<pdfrwt beam="1">  1        2 0.50909194E+00 0.13355405E+04</pdfrwt>
<pdfrwt beam="2">  1       -1 0.20731523E-01 0.13355405E+04</pdfrwt>
<totfact> 0.23926702E+01</totfact>
</mgrwt>
</event>
<event>
12    7  0.1857704E-007  0.3298011E+04  0.7818608E-02  0.8163402E-01
         -1   -1    0    0    0  501 -0.00000000000E+00  0.00000000000E+00  0.75780374172E+03  0.75780374172E+03  0.00000000000E+00 0.  1.
          2   -1    0    0  501    0  0.00000000000E+00 -0.00000000000E+00 -0.35882891364E+04  0.35882891364E+04  0.00000000000E+00 0. -1.
         24    2    1    2    0    0  0.33781955088E+03  0.13460930573E+04 -0.21525752106E+04  0.25627248192E+04  0.88825074891E+02 0.  0.
        254    2    1    2    0    0 -0.33781955088E+03 -0.13460930573E+04 -0.67791018408E+03  0.17833680589E+04  0.89148799663E+03 0.  0.
         23    2    4    4    0    0 -0.62122115259E+02 -0.28926203959E+03  0.20991678115E+03  0.37302853483E+03  0.86911150224E+02 0.  0.
         23    2    4    4    0    0 -0.27569743562E+03 -0.10568310177E+04 -0.88782696523E+03  0.14103395241E+04  0.88994253350E+02 0.  0.
          2    1    3    3  502    0  0.30196145368E+03  0.12761231663E+04 -0.20485528547E+04  0.24323321840E+04  0.00000000000E+00 0. -1.
         -1    1    3    3    0  502  0.35858097200E+02  0.69969890979E+02 -0.10402235592E+03  0.13039263518E+03  0.00000000000E+00 0.  1.
         13    1    5    5    0    0 -0.18550536513E+02 -0.46713284927E+02  0.79920563216E+02  0.94411597902E+02  0.00000000000E+00 0.  1.
        -13    1    5    5    0    0 -0.43571578747E+02 -0.24254875467E+03  0.12999621793E+03  0.27861693693E+03  0.00000000000E+00 0. -1.
          3    1    6    6  503    0 -0.19821032554E+03 -0.69310039249E+03 -0.63466789732E+03  0.96045761339E+03  0.00000000000E+00 0. -1.
         -3    1    6    6    0  503 -0.77487110075E+02 -0.36373062517E+03 -0.25315906790E+03  0.44988191070E+03  0.00000000000E+00 0.  1.
<mgrwt>
<rscale>  0 0.32980109E+04</rscale>
<asrwt>0</asrwt>
<pdfrwt beam="1">  1        2 0.55204448E+00 0.32980109E+04</pdfrwt>
<pdfrwt beam="2">  1       -1 0.11658519E+00 0.32980109E+04</pdfrwt>
<totfact> 0.44270772E-01</totfact>
</mgrwt>
</event>
<event>
12    7  0.1857704E-007  0.1418502E+04  0.7818608E-02  0.8940534E-01
         -1   -1    0    0    0  501 -0.00000000000E+00  0.00000000000E+00  0.41272918413E+03  0.41272918413E+03  0.00000000000E+00 0.  1.
          2   -1    0    0  501    0  0.00000000000E+00 -0.00000000000E+00 -0.12188067813E+04  0.12188067813E+04  0.00000000000E+00 0. -1.
         24    2    1    2    0    0  0.15774736117E+03 -0.22913424401E+03  0.11915999894E+03  0.31302734812E+03  0.80001772428E+02 0.  0.
        254    2    1    2    0    0 -0.15774736117E+03  0.22913424401E+03 -0.92523759613E+03  0.13185086173E+04  0.89722551955E+03 0.  0.
         23    2    4    4    0    0  0.24047250403E+03  0.25305064558E+03 -0.67255949501E+02  0.36783979508E+03  0.94451562589E+02 0.  0.
         23    2    4    4    0    0 -0.39821986519E+03 -0.23916401574E+02 -0.85798164663E+03  0.95066882225E+03  0.92128433914E+02 0.  0.
          2    1    3    3  502    0  0.11854479461E+02  0.37411565079E+01  0.14178014991E+02  0.18855796043E+02  0.00000000000E+00 0. -1.
         -1    1    3    3    0  502  0.14589288170E+03 -0.23287540052E+03  0.10498198395E+03  0.29417155208E+03  0.00000000000E+00 0.  1.
         13    1    5    5    0    0 -0.46497364736E+01  0.35930420490E+01 -0.12543717594E+02  0.13851889818E+02  0.00000000000E+00 0.  1.
        -13    1    5    5    0    0  0.24512224050E+03  0.24945760353E+03 -0.54712231906E+02  0.35398790526E+03  0.00000000000E+00 0. -1.
          2    1    6    6  503    0 -0.31851466619E+03 -0.46466338123E+02 -0.61816415921E+03  0.69694880794E+03  0.00000000000E+00 0. -1.
         -2    1    6    6    0  503 -0.79705199004E+02  0.22549936549E+02 -0.23981748742E+03  0.25372001431E+03  0.00000000000E+00 0.  1.
<mgrwt>
<rscale>  0 0.14185022E+04</rscale>
<asrwt>0</asrwt>
<pdfrwt beam="1">  1        2 0.18750873E+00 0.14185022E+04</pdfrwt>
<pdfrwt beam="2">  1       -1 0.63496799E-01 0.14185022E+04</pdfrwt>
<totfact> 0.51455905E+01</totfact>
</mgrwt>
</event>
<event>
12    7  0.1857704E-007  0.1911359E+04  0.7818608E-02  0.8649223E-01
          2   -1    0    0  501    0  0.00000000000E+00  0.00000000000E+00  0.13908762613E+04  0.13908762613E+04  0.00000000000E+00 0. -1.
         -1   -1    0    0    0  501 -0.00000000000E+00 -0.00000000000E+00 -0.65665346223E+03  0.65665346223E+03  0.00000000000E+00 0.  1.
         24    2    1    2    0    0 -0.42198385139E+03  0.19442400440E+03 -0.32813114951E+03  0.57478568679E+03  0.82688996481E+02 0.  0.
        254    2    1    2    0    0  0.42198385139E+03 -0.19442400440E+03  0.10623539486E+04  0.14727440367E+04  0.90802424052E+03 0.  0.
         23    2    4    4    0    0 -0.67662652978E+02  0.17729404338E+03 -0.34345914680E+02  0.21257322312E+03  0.89422149981E+02 0.  0.
         23    2    4    4    0    0  0.48964650437E+03 -0.37171804778E+03  0.10966998633E+04  0.12601708136E+04  0.85743122907E+02 0.  0.
          4    1    3    3  502    0 -0.33499621603E+03  0.13900657655E+03 -0.29156520010E+03  0.46535530403E+03  0.00000000000E+00 0. -1.
         -3    1    3    3    0  502 -0.86987635364E+02  0.55417427849E+02 -0.36565949412E+02  0.10943038276E+03  0.00000000000E+00 0.  1.
         13    1    5    5    0    0 -0.87399840014E+02  0.11952298679E+03 -0.16600148815E+02  0.14899678301E+03  0.00000000000E+00 0. -1.
        -13    1    5    5    0    0  0.19737187035E+02  0.57771056592E+02 -0.17745765865E+02  0.63576440117E+02  0.00000000000E+00 0.  1.
          1    1    6    6  503    0  0.27276600468E+03 -0.15348600397E+03  0.56121713869E+03  0.64259156817E+03  0.00000000000E+00 0. -1.
         -1    1    6    6    0  503  0.21688049968E+03 -0.21823204381E+03  0.53548272458E+03  0.61757924545E+03  0.00000000000E+00 0.  1.
<mgrwt>
<rscale>  0 0.19113594E+04</rscale>
<asrwt>0</asrwt>
<pdfrwt beam="1">  1        2 0.21398096E+00 0.19113594E+04</pdfrwt>
<pdfrwt beam="2">  1       -1 0.10102361E+00 0.19113594E+04</pdfrwt>
<totfact> 0.14542862E+01</totfact>
</mgrwt>
</event>
<event>
12    7  0.1857704E-007  0.1426571E+04  0.7818608E-02  0.8934806E-01
          2   -1    0    0  501    0  0.00000000000E+00  0.00000000000E+00  0.18738876212E+04  0.18738876212E+04  0.00000000000E+00 0. -1.
         -1   -1    0    0    0  501 -0.00000000000E+00 -0.00000000000E+00 -0.27150847804E+03  0.27150847804E+03  0.00000000000E+00 0.  1.
         24    2    1    2    0    0 -0.40541854953E+03  0.93064887826E+02  0.48406355910E+03  0.64314742939E+03  0.79346159475E+02 0.  0.
        254    2    1    2    0    0  0.40541854953E+03 -0.93064887826E+02  0.11183155841E+04  0.15022486699E+04  0.91274095278E+03 0.  0.
         23    2    4    4    0    0  0.49325408630E+03 -0.34530364097E+03  0.39491148283E+03  0.72578306777E+03  0.90949348938E+02 0.  0.
         23    2    4    4    0    0 -0.87835536760E+02  0.25223875315E+03  0.72340410124E+03  0.77646560210E+03  0.90806758820E+02 0.  0.
          2    1    3    3  502    0 -0.21401694337E+03  0.22362002279E+02  0.20296709402E+03  0.29580221847E+03  0.00000000000E+00 0. -1.
         -3    1    3    3    0  502 -0.19140160616E+03  0.70702885547E+02  0.28109646508E+03  0.34734521091E+03  0.00000000000E+00 0.  1.
         13    1    5    5    0    0  0.31569899914E+03 -0.27094241050E+03  0.25739691547E+03  0.48921244870E+03  0.00000000000E+00 0.  1.
        -13    1    5    5    0    0  0.17755508715E+03 -0.74361230471E+02  0.13751456736E+03  0.23657061907E+03  0.00000000000E+00 0. -1.
          4    1    6    6  503    0 -0.42575368658E+02  0.49170118375E+02  0.10027463395E+03  0.11952139880E+03  0.00000000000E+00 0. -1.
         -4    1    6    6    0  503 -0.45260168103E+02  0.20306863477E+03  0.62312946729E+03  0.65694420330E+03  0.00000000000E+00 0.  1.
<mgrwt>
<rscale>  0 0.14265712E+04</rscale>
<asrwt>0</asrwt>
<pdfrwt beam="1">  1        2 0.28829040E+00 0.14265712E+04</pdfrwt>
<pdfrwt beam="2">  1       -1 0.41770536E-01 0.14265712E+04</pdfrwt>
<totfact> 0.48876421E+01</totfact>
</mgrwt>
</event>
<event>
12    7  0.1857704E-007  0.1762898E+04  0.7818608E-02  0.8726283E-01
         -1   -1    0    0    0  501 -0.00000000000E+00  0.00000000000E+00  0.17548227327E+04  0.17548227327E+04  0.00000000000E+00 0.  1.
          2   -1    0    0  501    0  0.00000000000E+00 -0.00000000000E+00 -0.44275248042E+03  0.44275248042E+03  0.00000000000E+00 0. -1.
         24    2    1    2    0    0  0.62661474130E+03 -0.15296470357E+03  0.44054910113E+03  0.78531052435E+03  0.81147240188E+02 0.  0.
        254    2    1    2    0    0 -0.62661474130E+03  0.15296470357E+03  0.87152115119E+03  0.14122646888E+04  0.90492994188E+03 0.  0.
         23    2    4    4    0    0 -0.19353193999E+03 -0.16201535619E+03 -0.11091411890E+03  0.28957401901E+03  0.88586586311E+02 0.  0.
         23    2    4    4    0    0 -0.43308280131E+03  0.31498005976E+03  0.98243527009E+03  0.11226906698E+04  0.92098476044E+02 0.  0.
          2    1    3    3  502    0  0.43582607490E+03 -0.12150009838E+03  0.26618400909E+03  0.52493863276E+03  0.00000000000E+00 0. -1.
         -1    1    3    3    0  502  0.19078866641E+03 -0.31464605188E+02  0.17436509204E+03  0.26037189159E+03  0.00000000000E+00 0.  1.
         13    1    5    5    0    0 -0.90211190975E+02 -0.94432355638E+02 -0.11573033577E+02  0.13110859573E+03  0.00000000000E+00 0. -1.
        -13    1    5    5    0    0 -0.10332074902E+03 -0.67583000555E+02 -0.99341085322E+02  0.15846542328E+03  0.00000000000E+00 0.  1.
          1    1    6    6  503    0 -0.24748894827E+03  0.23375257109E+03  0.63538263561E+03  0.72083433439E+03  0.00000000000E+00 0. -1.
         -1    1    6    6    0  503 -0.18559385304E+03  0.81227488673E+02  0.34705263449E+03  0.40185633541E+03  0.00000000000E+00 0.  1.
<mgrwt>
<rscale>  0 0.17628977E+04</rscale>
<asrwt>0</asrwt>
<pdfrwt beam="1">  1        2 0.68115767E-01 0.17628977E+04</pdfrwt>
<pdfrwt beam="2">  1       -1 0.26997272E+00 0.17628977E+04</pdfrwt>
<totfact> 0.39663099E+00</totfact>
</mgrwt>
</event>
<event>
12    7  0.1857704E-007  0.1949612E+04  0.7818608E-02  0.8630548E-01
         -1   -1    0    0    0  501 -0.00000000000E+00  0.00000000000E+00  0.12464198302E+04  0.12464198302E+04  0.00000000000E+00 0.  1.
          2   -1    0    0  501    0  0.00000000000E+00 -0.00000000000E+00 -0.76238059281E+03  0.76238059281E+03  0.00000000000E+00 0. -1.
         24    2    1    2    0    0 -0.11859850891E+03  0.35286331125E+02  0.95574087618E+03  0.96720582077E+03  0.82071589819E+02 0.  0.
        254    2    1    2    0    0  0.11859850891E+03 -0.35286331125E+02 -0.47170163880E+03  0.10415946022E+04  0.92038369601E+03 0.  0.
         23    2    4    4    0    0  0.17369918490E+03  0.11454797459E+03  0.22585711196E+03  0.32016555756E+03  0.90564363345E+02 0.  0.
         23    2    4    4    0    0 -0.55100675991E+02 -0.14983430571E+03 -0.69755875076E+03  0.72142904468E+03  0.91571022114E+02 0.  0.
          2    1    3    3  502    0 -0.89347417887E+02  0.14478610831E+02  0.39161232172E+03  0.40193631558E+03  0.00000000000E+00 0. -1.
         -1    1    3    3    0  502 -0.29251091020E+02  0.20807720294E+02  0.56412855445E+03  0.56526950519E+03  0.00000000000E+00 0.  1.
         13    1    5    5    0    0  0.12213311977E+03  0.69649584143E+02  0.20518828309E+03  0.24873639668E+03  0.00000000000E+00 0. -1.
        -13    1    5    5    0    0  0.51566065130E+02  0.44898390443E+02  0.20668828873E+02  0.71429160882E+02  0.00000000000E+00 0.  1.
          3    1    6    6  503    0 -0.18076256182E+01 -0.12514778427E+03 -0.46104827388E+03  0.47773501679E+03  0.00000000000E+00 0. -1.
         -3    1    6    6    0  503 -0.53293050373E+02 -0.24686521445E+02 -0.23651047687E+03  0.24369402789E+03  0.00000000000E+00 0.  1.
<mgrwt>
<rscale>  0 0.19496115E+04</rscale>
<asrwt>0</asrwt>
<pdfrwt beam="1">  1        2 0.11728932E+00 0.19496115E+04</pdfrwt>
<pdfrwt beam="2">  1       -1 0.19175690E+00 0.19496115E+04</pdfrwt>
<totfact> 0.67126046E+00</totfact>
</mgrwt>
</event>
<event>
12    7  0.1857704E-007  0.1990184E+04  0.7818608E-02  0.8611224E-01
         -1   -1    0    0    0  501 -0.00000000000E+00  0.00000000000E+00  0.95533997594E+03  0.95533997594E+03  0.00000000000E+00 0.  1.
          2   -1    0    0  501    0  0.00000000000E+00 -0.00000000000E+00 -0.10364985984E+04  0.10364985984E+04  0.00000000000E+00 0. -1.
         24    2    1    2    0    0 -0.64064504763E+03  0.30668748739E+03 -0.38174625065E+03  0.81029164252E+03  0.79743677306E+02 0.  0.
        254    2    1    2    0    0  0.64064504763E+03 -0.30668748739E+03  0.30058762821E+03  0.11815469318E+04  0.89510722143E+03 0.  0.
         23    2    4    4    0    0  0.50218339332E+03  0.24572399465E+03  0.16089905859E+03  0.58852664628E+03  0.88919425618E+02 0.  0.
         23    2    4    4    0    0  0.13846165431E+03 -0.55241148205E+03  0.13968856962E+03  0.59302028553E+03  0.88487780821E+02 0.  0.
          2    1    3    3  502    0 -0.40828793361E+03  0.15245808797E+03 -0.22954603508E+03  0.49257881353E+03  0.00000000000E+00 0. -1.
         -1    1    3    3    0  502 -0.23235711402E+03  0.15422939942E+03 -0.15220021557E+03  0.31771282898E+03  0.00000000000E+00 0.  1.
         13    1    5    5    0    0  0.45328961820E+03  0.19080058802E+03  0.12952322650E+03  0.50857900916E+03  0.00000000000E+00 0.  1.
        -13    1    5    5    0    0  0.48893775125E+02  0.54923406635E+02  0.31375832090E+02  0.79947637124E+02  0.00000000000E+00 0. -1.
          3    1    6    6  503    0  0.13943529024E+03 -0.39635494508E+03  0.96746766704E+02  0.43116050320E+03  0.00000000000E+00 0. -1.
         -3    1    6    6    0  503 -0.97363593217E+00 -0.15605653697E+03  0.42941802911E+02  0.16185978233E+03  0.00000000000E+00 0.  1.
<mgrwt>
<rscale>  0 0.19901845E+04</rscale>
<asrwt>0</asrwt>
<pdfrwt beam="1">  1        2 0.15946132E+00 0.19901845E+04</pdfrwt>
<pdfrwt beam="2">  1       -1 0.14697538E+00 0.19901845E+04</pdfrwt>
<totfact> 0.93311129E+00</totfact>
</mgrwt>
</event>
<event>
12    7  0.1857704E-007  0.1292408E+04  0.7818608E-02  0.9035608E-01
          2   -1    0    0  501    0  0.00000000000E+00  0.00000000000E+00  0.64632858871E+03  0.64632858871E+03  0.00000000000E+00 0. -1.
         -1   -1    0    0    0  501 -0.00000000000E+00 -0.00000000000E+00 -0.64607900628E+03  0.64607900628E+03  0.00000000000E+00 0.  1.
         24    2    1    2    0    0  0.49298228170E+02 -0.29984730126E+03  0.10514657904E+03  0.33156225036E+03  0.80864104576E+02 0.  0.
        254    2    1    2    0    0 -0.49298228170E+02  0.29984730126E+03 -0.10489699661E+03  0.96084534463E+03  0.90547317853E+03 0.  0.
         23    2    4    4    0    0  0.10368095461E+03 -0.29963132130E+03 -0.37016733339E+02  0.33184223294E+03  0.90666200771E+02 0.  0.
         23    2    4    4    0    0 -0.15297918278E+03  0.59947862256E+03 -0.67880263272E+02  0.62900311169E+03  0.90884185146E+02 0.  0.
          2    1    3    3  502    0  0.58192531546E+01 -0.16072624884E+03  0.18238946012E+02  0.16186244137E+03  0.00000000000E+00 0. -1.
         -1    1    3    3    0  502  0.43478975016E+02 -0.13912105242E+03  0.86907633030E+02  0.16969980899E+03  0.00000000000E+00 0.  1.
         13    1    5    5    0    0  0.83738525605E+02 -0.11568991413E+03 -0.33959703654E+02  0.14679767837E+03  0.00000000000E+00 0. -1.
        -13    1    5    5    0    0  0.19942429003E+02 -0.18394140717E+03 -0.30570296858E+01  0.18504455457E+03  0.00000000000E+00 0.  1.
          3    1    6    6  503    0 -0.10737517870E+02  0.22610353360E+02 -0.21591979244E+02  0.33056556638E+02  0.00000000000E+00 0. -1.
         -3    1    6    6    0  503 -0.14224166491E+03  0.57686826920E+03 -0.46288284028E+02  0.59594655506E+03  0.00000000000E+00 0.  1.
<mgrwt>
<rscale>  0 0.12924076E+04</rscale>
<asrwt>0</asrwt>
<pdfrwt beam="1">  1        2 0.99435168E-01 0.12924076E+04</pdfrwt>
<pdfrwt beam="2">  1       -1 0.99396770E-01 0.12924076E+04</pdfrwt>
<totfact> 0.49054370E+01</totfact>
</mgrwt>
</event>
<event>
12    7  0.1857704E-007  0.2264189E+04  0.7818608E-02  0.8492176E-01
          2   -1    0    0  501    0  0.00000000000E+00  0.00000000000E+00  0.98042160125E+03  0.98042160125E+03  0.00000000000E+00 0. -1.
         -1   -1    0    0    0  501 -0.00000000000E+00 -0.00000000000E+00 -0.13072319557E+04  0.13072319557E+04  0.00000000000E+00 0.  1.
         24    2    1    2    0    0 -0.81055973582E+03  0.49217733113E+03 -0.48654186930E+02  0.95296192663E+03  0.80768763130E+02 0.  0.
        254    2    1    2    0    0  0.81055973582E+03 -0.49217733113E+03 -0.27815616750E+03  0.13346916303E+04  0.89709825762E+03 0.  0.
         23    2    4    4    0    0  0.23773440946E+03 -0.20008126695E+03  0.31750637674E+03  0.45372673328E+03  0.92236036321E+02 0.  0.
         23    2    4    4    0    0  0.57282532636E+03 -0.29209606418E+03 -0.59566254423E+03  0.88096489701E+03  0.88522979644E+02 0.  0.
          2    1    3    3  502    0 -0.62377914633E+03  0.40278210090E+03 -0.64318392286E+02  0.74529906734E+03  0.00000000000E+00 0. -1.
         -1    1    3    3    0  502 -0.18678058949E+03  0.89395230232E+02  0.15664205356E+02  0.20766285929E+03  0.00000000000E+00 0.  1.
         13    1    5    5    0    0  0.13103018608E+03 -0.90261483247E+02  0.22246198927E+03  0.27350572515E+03  0.00000000000E+00 0. -1.
        -13    1    5    5    0    0  0.10670422338E+03 -0.10981978370E+03  0.95044387466E+02  0.18022100812E+03  0.00000000000E+00 0.  1.
          2    1    6    6  503    0  0.16150014990E+03 -0.11880655817E+03 -0.21920630679E+03  0.29706683022E+03  0.00000000000E+00 0.  1.
         -2    1    6    6    0  503  0.41132517646E+03 -0.17328950601E+03 -0.37645623744E+03  0.58389806679E+03  0.00000000000E+00 0. -1.
<mgrwt>
<rscale>  0 0.22641894E+04</rscale>
<asrwt>0</asrwt>
<pdfrwt beam="1">  1        2 0.15083409E+00 0.22641894E+04</pdfrwt>
<pdfrwt beam="2">  1       -1 0.20111261E+00 0.22641894E+04</pdfrwt>
<totfact> 0.39762573E+00</totfact>
</mgrwt>
</event>
<event>
12    7  0.1857704E-007  0.2127405E+04  0.7818608E-02  0.8549266E-01
          2   -1    0    0  501    0  0.00000000000E+00  0.00000000000E+00  0.13253770648E+04  0.13253770648E+04  0.00000000000E+00 0. -1.
         -1   -1    0    0    0  501 -0.00000000000E+00 -0.00000000000E+00 -0.85369155598E+03  0.85369155598E+03  0.00000000000E+00 0.  1.
         24    2    1    2    0    0 -0.42978604819E+03 -0.73261596127E+03  0.22822786654E+01  0.85449438193E+03  0.93344769655E+02 0.  0.
        254    2    1    2    0    0  0.42978604819E+03  0.73261596127E+03  0.46940323016E+03  0.13245742389E+04  0.90150725336E+03 0.  0.
         23    2    4    4    0    0  0.58540938014E+03  0.34506476988E+03 -0.55673655480E+01  0.68552595648E+03  0.90227510656E+02 0.  0.
         23    2    4    4    0    0 -0.15562333195E+03  0.38755119139E+03  0.47497059571E+03  0.63904828239E+03  0.91493677618E+02 0.  0.
          4    1    3    3  502    0 -0.11178353689E+00 -0.24561855647E+02  0.92265766513E+01  0.26237891781E+02  0.00000000000E+00 0. -1.
         -3    1    3    3    0  502 -0.42967426465E+03 -0.70805410563E+03 -0.69442979860E+01  0.82825649015E+03  0.00000000000E+00 0.  1.
         13    1    5    5    0    0  0.10718322322E+03  0.10604549568E+03  0.34920302718E+01  0.15081805187E+03  0.00000000000E+00 0. -1.
        -13    1    5    5    0    0  0.47822615691E+03  0.23901927420E+03 -0.90593958198E+01  0.53470790461E+03  0.00000000000E+00 0.  1.
          2    1    6    6  503    0 -0.85818201712E+02  0.10233870265E+03  0.16053975810E+03  0.20883243937E+03  0.00000000000E+00 0. -1.
         -2    1    6    6    0  503 -0.69805130237E+02  0.28521248874E+03  0.31443083761E+03  0.43021584302E+03  0.00000000000E+00 0.  1.
<mgrwt>
<rscale>  0 0.21274052E+04</rscale>
<asrwt>0</asrwt>
<pdfrwt beam="1">  1        2 0.20390416E+00 0.21274052E+04</pdfrwt>
<pdfrwt beam="2">  1       -1 0.13133716E+00 0.21274052E+04</pdfrwt>
<totfact> 0.82751237E+00</totfact>
</mgrwt>
</event>
<event>
12    7  0.1857704E-007  0.1536264E+04  0.7818608E-02  0.8860689E-01
         -1   -1    0    0    0  501 -0.00000000000E+00  0.00000000000E+00  0.45023975840E+03  0.45023975840E+03  0.00000000000E+00 0.  1.
          2   -1    0    0  501    0  0.00000000000E+00 -0.00000000000E+00 -0.13104727875E+04  0.13104727875E+04  0.00000000000E+00 0. -1.
         24    2    1    2    0    0 -0.30288125662E+03 -0.80403199849E+02  0.14500909488E+03  0.35406282421E+03  0.78301441433E+02 0.  0.
        254    2    1    2    0    0  0.30288125662E+03  0.80403199849E+02 -0.10052421240E+04  0.14066497217E+04  0.93271109222E+03 0.  0.
         23    2    4    4    0    0 -0.16208172455E+03 -0.29400757865E+02 -0.88748037182E+03  0.90731669010E+03  0.92017801403E+02 0.  0.
         23    2    4    4    0    0  0.46496298118E+03  0.10980395771E+03 -0.11776175218E+03  0.49933303161E+03  0.84959773899E+02 0.  0.
          2    1    3    3  502    0 -0.70479143263E+02  0.14049412423E+01  0.49771147066E+01  0.70668629291E+02  0.00000000000E+00 0. -1.
         -1    1    3    3    0  502 -0.23240211336E+03 -0.81808141091E+02  0.14003198018E+03  0.28339419492E+03  0.00000000000E+00 0.  1.
         13    1    5    5    0    0 -0.13721167513E+03 -0.27473582428E+02 -0.85493419233E+03  0.86631074952E+03  0.00000000000E+00 0. -1.
        -13    1    5    5    0    0 -0.24870049421E+02 -0.19271754376E+01 -0.32546179489E+02  0.41005940578E+02  0.00000000000E+00 0.  1.
          1    1    6    6  503    0  0.34588209643E+03  0.74402369312E+02 -0.12413080068E+03  0.37493811872E+03  0.00000000000E+00 0.  1.
         -1    1    6    6    0  503  0.11908088475E+03  0.35401588402E+02  0.63690485000E+01  0.12439491289E+03  0.00000000000E+00 0. -1.
<mgrwt>
<rscale>  0 0.15362642E+04</rscale>
<asrwt>0</asrwt>
<pdfrwt beam="1">  1        2 0.20161120E+00 0.15362642E+04</pdfrwt>
<pdfrwt beam="2">  1       -1 0.69267654E-01 0.15362642E+04</pdfrwt>
<totfact> 0.37749564E+01</totfact>
</mgrwt>
</event>
<event>
12    7  0.1857704E-007  0.2438969E+04  0.7818608E-02  0.8425057E-01
         -1   -1    0    0    0  501 -0.00000000000E+00  0.00000000000E+00  0.43836821451E+03  0.43836821451E+03  0.00000000000E+00 0.  1.
          2   -1    0    0  501    0  0.00000000000E+00 -0.00000000000E+00 -0.33924499461E+04  0.33924499461E+04  0.00000000000E+00 0. -1.
         24    2    1    2    0    0 -0.24037375556E+03 -0.11952802795E+03 -0.28754298970E+04  0.28890389742E+04  0.79891241371E+02 0.  0.
        254    2    1    2    0    0  0.24037375556E+03  0.11952802795E+03 -0.78651834627E+02  0.94177918638E+03  0.89927494849E+03 0.  0.
         23    2    4    4    0    0  0.55284774138E+03 -0.31190293644E+02  0.42343789196E+02  0.56328664812E+03  0.94262356717E+02 0.  0.
         23    2    4    4    0    0 -0.31247398583E+03  0.15071832159E+03 -0.12099562382E+03  0.37849253826E+03  0.90888152445E+02 0.  0.
          4    1    3    3  502    0 -0.17984084426E+03 -0.71073786697E+02 -0.23467040238E+04  0.23546579343E+04  0.00000000000E+00 0. -1.
         -3    1    3    3    0  502 -0.60532911299E+02 -0.48454241248E+02 -0.52872587320E+03  0.53438103993E+03  0.00000000000E+00 0.  1.
         13    1    5    5    0    0  0.17483198964E+02 -0.18087444741E+02 -0.50883337492E+01  0.25665327655E+02  0.00000000000E+00 0.  1.
        -13    1    5    5    0    0  0.53536454242E+03 -0.13102848903E+02  0.47432122945E+02  0.53762132046E+03  0.00000000000E+00 0. -1.
          4    1    6    6  503    0 -0.27761081981E+03  0.96656574683E+02 -0.10559197649E+03  0.31234584390E+03  0.00000000000E+00 0. -1.
         -4    1    6    6    0  503 -0.34863166016E+02  0.54061746907E+02 -0.15403647330E+02  0.66146694357E+02  0.00000000000E+00 0.  1.
<mgrwt>
<rscale>  0 0.24389688E+04</rscale>
<asrwt>0</asrwt>
<pdfrwt beam="1">  1        2 0.52191540E+00 0.24389688E+04</pdfrwt>
<pdfrwt beam="2">  1       -1 0.67441260E-01 0.24389688E+04</pdfrwt>
<totfact> 0.21930769E+00</totfact>
</mgrwt>
</event>
<event>
12    7  0.1857704E-007  0.1385449E+04  0.7818608E-02  0.8964419E-01
         -3   -1    0    0    0  501 -0.00000000000E+00  0.00000000000E+00  0.25900331501E+03  0.25900331501E+03  0.00000000000E+00 0.  1.
          2   -1    0    0  501    0  0.00000000000E+00 -0.00000000000E+00 -0.18527453934E+04  0.18527453934E+04  0.00000000000E+00 0. -1.
         24    2    1    2    0    0  0.16364097329E+03 -0.97023538561E+02 -0.96960529450E+03  0.99115032442E+03  0.77798478749E+02 0.  0.
        254    2    1    2    0    0 -0.16364097329E+03  0.97023538561E+02 -0.62413678387E+03  0.11205983840E+04  0.91104449837E+03 0.  0.
         23    2    4    4    0    0  0.21791575441E+03  0.38083833849E+03 -0.30498533385E+03  0.54191369908E+03  0.90162560436E+02 0.  0.
         23    2    4    4    0    0 -0.38155672770E+03 -0.28381479993E+03 -0.31915145002E+03  0.57868468489E+03  0.82957455144E+02 0.  0.
          2    1    3    3  502    0  0.94348037880E+02 -0.54430641942E+02 -0.35925508198E+03  0.37540439657E+03  0.00000000000E+00 0. -1.
         -1    1    3    3    0  502  0.69292935414E+02 -0.42592896619E+02 -0.61035021252E+03  0.61574592785E+03  0.00000000000E+00 0.  1.
         13    1    5    5    0    0  0.16213418988E+03  0.23071809076E+03 -0.23527689308E+03  0.36725134357E+03  0.00000000000E+00 0. -1.
        -13    1    5    5    0    0  0.55781564527E+02  0.15012024773E+03 -0.69708440767E+02  0.17466235552E+03  0.00000000000E+00 0.  1.
          1    1    6    6  503    0 -0.29607163503E+03 -0.25931780860E+03 -0.26694351335E+03  0.47556595573E+03  0.00000000000E+00 0. -1.
         -1    1    6    6    0  503 -0.85485092668E+02 -0.24496991329E+02 -0.52207936670E+02  0.10311872916E+03  0.00000000000E+00 0.  1.
<mgrwt>
<rscale>  0 0.13854490E+04</rscale>
<asrwt>0</asrwt>
<pdfrwt beam="1">  1        2 0.28503777E+00 0.13854490E+04</pdfrwt>
<pdfrwt beam="2">  1       -3 0.39846662E-01 0.13854490E+04</pdfrwt>
<totfact> 0.31690078E+01</totfact>
</mgrwt>
</event>
<event>
12    7  0.1857704E-007  0.1431342E+04  0.7818608E-02  0.8931439E-01
         -1   -1    0    0    0  501 -0.00000000000E+00  0.00000000000E+00  0.70865750149E+03  0.70865750149E+03  0.00000000000E+00 0.  1.
          2   -1    0    0  501    0  0.00000000000E+00 -0.00000000000E+00 -0.72275424743E+03  0.72275424743E+03  0.00000000000E+00 0. -1.
         24    2    1    2    0    0  0.27010365608E+03 -0.27401791934E+03 -0.17780545855E+03  0.43110483633E+03  0.78707011546E+02 0.  0.
        254    2    1    2    0    0 -0.27010365608E+03  0.27401791934E+03  0.16370871261E+03  0.10003069126E+04  0.90871974318E+03 0.  0.
         23    2    4    4    0    0 -0.35232379560E+03  0.17472632702E+03  0.49200945337E+03  0.63633375407E+03  0.90476505564E+02 0.  0.
         23    2    4    4    0    0  0.82220139517E+02  0.99291592327E+02 -0.32830074076E+03  0.36397315853E+03  0.89867191410E+02 0.  0.
          2    1    3    3  502    0  0.26583980057E+03 -0.27684972777E+03 -0.16588526149E+03  0.41813214575E+03  0.00000000000E+00 0. -1.
         -1    1    3    3    0  502  0.42638555064E+01  0.28318084230E+01 -0.11920197065E+02  0.12972690576E+02  0.00000000000E+00 0.  1.
         13    1    5    5    0    0 -0.55783489619E+02  0.55065665513E+02  0.59295275418E+02  0.98285069667E+02  0.00000000000E+00 0.  1.
        -13    1    5    5    0    0 -0.29654030598E+03  0.11966066150E+03  0.43271417796E+03  0.53804868440E+03  0.00000000000E+00 0. -1.
          2    1    6    6  503    0  0.57907406572E+02  0.11344352956E+03 -0.24634907610E+03  0.27732754899E+03  0.00000000000E+00 0. -1.
         -2    1    6    6    0  503  0.24312732945E+02 -0.14151937228E+02 -0.81951664661E+02  0.86645609532E+02  0.00000000000E+00 0.  1.
<mgrwt>
<rscale>  0 0.14313423E+04</rscale>
<asrwt>0</asrwt>
<pdfrwt beam="1">  1        2 0.11119296E+00 0.14313423E+04</pdfrwt>
<pdfrwt beam="2">  1       -1 0.10902423E+00 0.14313423E+04</pdfrwt>
<totfact> 0.34016776E+01</totfact>
</mgrwt>
</event>
<event>
12    7  0.1857704E-007  0.1630515E+04  0.7818608E-02  0.8802018E-01
         -3   -1    0    0    0  501 -0.00000000000E+00  0.00000000000E+00  0.84496403999E+03  0.84496403999E+03  0.00000000000E+00 0.  1.
          2   -1    0    0  501    0  0.00000000000E+00 -0.00000000000E+00 -0.78659538174E+03  0.78659538174E+03  0.00000000000E+00 0. -1.
         24    2    1    2    0    0 -0.28544734938E+01  0.50409847485E+03 -0.22581547966E+03  0.55821437735E+03  0.80543403579E+02 0.  0.
        254    2    1    2    0    0  0.28544734938E+01 -0.50409847485E+03  0.28418413792E+03  0.10733450444E+04  0.90398315232E+03 0.  0.
         23    2    4    4    0    0 -0.32266471738E+03 -0.59529421184E+03  0.20108029254E+03  0.71226992130E+03  0.91692083893E+02 0.  0.
         23    2    4    4    0    0  0.32551919087E+03  0.91195736993E+02  0.83103845382E+02  0.36107512308E+03  0.95862345664E+02 0.  0.
          4    1    3    3  502    0  0.28767891487E+02  0.30129005058E+03 -0.16185745366E+03  0.34322167977E+03  0.00000000000E+00 0. -1.
         -3    1    3    3    0  502 -0.31622364981E+02  0.20280842427E+03 -0.63958025996E+02  0.21499269758E+03  0.00000000000E+00 0.  1.
         13    1    5    5    0    0 -0.56239812368E+02 -0.83364055677E+02  0.63687283063E+02  0.11903172812E+03  0.00000000000E+00 0. -1.
        -13    1    5    5    0    0 -0.26642490501E+03 -0.51193015617E+03  0.13739300947E+03  0.59323819319E+03  0.00000000000E+00 0.  1.
          1    1    6    6  503    0  0.24451682485E+03  0.94131013243E+02  0.95913817614E+02  0.27901359411E+03  0.00000000000E+00 0. -1.
         -1    1    6    6    0  503  0.81002366021E+02 -0.29352762497E+01 -0.12809972232E+02  0.82061528966E+02  0.00000000000E+00 0.  1.
<mgrwt>
<rscale>  0 0.16305150E+04</rscale>
<asrwt>0</asrwt>
<pdfrwt beam="1">  1        2 0.12101467E+00 0.16305150E+04</pdfrwt>
<pdfrwt beam="2">  1       -3 0.12999447E+00 0.16305150E+04</pdfrwt>
<totfact> 0.98692058E+00</totfact>
</mgrwt>
</event>
<event>
12    7  0.1857704E-007  0.2168837E+04  0.7818608E-02  0.8531512E-01
          2   -1    0    0  501    0  0.00000000000E+00  0.00000000000E+00  0.37251838919E+04  0.37251838919E+04  0.00000000000E+00 0. -1.
         -1   -1    0    0    0  501 -0.00000000000E+00 -0.00000000000E+00 -0.31567933148E+03  0.31567933148E+03  0.00000000000E+00 0.  1.
         24    2    1    2    0    0 -0.57954995873E+03  0.23083388230E+03  0.26153321988E+04  0.26898258939E+04  0.77707101655E+02 0.  0.
        254    2    1    2    0    0  0.57954995873E+03 -0.23083388230E+03  0.79417236166E+03  0.13510373295E+04  0.89745734705E+03 0.  0.
         23    2    4    4    0    0  0.65021375488E+03 -0.13497869518E+03  0.14604820284E+03  0.68603658848E+03  0.91208267128E+02 0.  0.
         23    2    4    4    0    0 -0.70663796142E+02 -0.95855187116E+02  0.64812415881E+03  0.66500074102E+03  0.89327886646E+02 0.  0.
          4    1    3    3  502    0 -0.38640617019E+03  0.11977252611E+03  0.17679515445E+04  0.18136449074E+04  0.00000000000E+00 0. -1.
         -3    1    3    3    0  502 -0.19314378855E+03  0.11106135619E+03  0.84738065423E+03  0.87618098648E+03  0.00000000000E+00 0.  1.
         13    1    5    5    0    0  0.44068252750E+03 -0.12949862684E+03  0.79668597608E+02  0.46617386224E+03  0.00000000000E+00 0. -1.
        -13    1    5    5    0    0  0.20953122738E+03 -0.54800683480E+01  0.66379605237E+02  0.21986272624E+03  0.00000000000E+00 0.  1.
          4    1    6    6  503    0 -0.54859227483E+01  0.92685631948E+01  0.19502339710E+03  0.19532057503E+03  0.00000000000E+00 0. -1.
         -4    1    6    6    0  503 -0.65177873394E+02 -0.10512375031E+03  0.45310076171E+03  0.46968016599E+03  0.00000000000E+00 0.  1.
<mgrwt>
<rscale>  0 0.21688371E+04</rscale>
<asrwt>0</asrwt>
<pdfrwt beam="1">  1        2 0.57310518E+00 0.21688371E+04</pdfrwt>
<pdfrwt beam="2">  1       -1 0.48566054E-01 0.21688371E+04</pdfrwt>
<totfact> 0.24866822E+00</totfact>
</mgrwt>
</event>
<event>
12    7  0.1857704E-007  0.1459489E+04  0.7818608E-02  0.8911848E-01
         -1   -1    0    0    0  501 -0.00000000000E+00  0.00000000000E+00  0.30536539647E+03  0.30536539647E+03  0.00000000000E+00 0.  1.
          2   -1    0    0  501    0  0.00000000000E+00 -0.00000000000E+00 -0.17439015522E+04  0.17439015522E+04  0.00000000000E+00 0. -1.
         24    2    1    2    0    0 -0.43159189451E+03  0.80763470408E+02 -0.73492919774E+03  0.85996022977E+03  0.81341069217E+02 0.  0.
        254    2    1    2    0    0  0.43159189451E+03 -0.80763470408E+02 -0.70360695798E+03  0.11893067189E+04  0.85240449244E+03 0.  0.
         23    2    4    4    0    0  0.18656432148E+03 -0.45389866948E+03 -0.30368890362E+03  0.58413070941E+03  0.90285587329E+02 0.  0.
         23    2    4    4    0    0  0.24502757302E+03  0.37313519908E+03 -0.39991805436E+03  0.60517600949E+03  0.83875884018E+02 0.  0.
          2    1    3    3  502    0 -0.13840330773E+03  0.49108305324E+02 -0.18761292734E+03  0.23825555974E+03  0.00000000000E+00 0. -1.
         -3    1    3    3    0  502 -0.29318858677E+03  0.31655165084E+02 -0.54731627040E+03  0.62170467003E+03  0.00000000000E+00 0.  1.
         13    1    5    5    0    0  0.58141957983E+02 -0.67202938555E+02 -0.32252822704E+02  0.94535531949E+02  0.00000000000E+00 0.  1.
        -13    1    5    5    0    0  0.12842236350E+03 -0.38669573093E+03 -0.27143608092E+03  0.48959517746E+03  0.00000000000E+00 0. -1.
          4    1    6    6  503    0  0.24240567987E+03  0.32881982885E+03 -0.37347768573E+03  0.55350571381E+03  0.00000000000E+00 0. -1.
         -4    1    6    6    0  503  0.26218931499E+01  0.44315370223E+02 -0.26440368631E+02  0.51670295674E+02  0.00000000000E+00 0.  1.
<mgrwt>
<rscale>  0 0.14594892E+04</rscale>
<asrwt>0</asrwt>
<pdfrwt beam="1">  1        2 0.26829255E+00 0.14594892E+04</pdfrwt>
<pdfrwt beam="2">  1       -1 0.46979292E-01 0.14594892E+04</pdfrwt>
<totfact> 0.46233588E+01</totfact>
</mgrwt>
</event>
<event>
12    7  0.1857704E-007  0.1976028E+04  0.7818608E-02  0.8617911E-01
         -1   -1    0    0    0  501 -0.00000000000E+00  0.00000000000E+00  0.60376190411E+03  0.60376190411E+03  0.00000000000E+00 0.  1.
          2   -1    0    0  501    0  0.00000000000E+00 -0.00000000000E+00 -0.16168154664E+04  0.16168154664E+04  0.00000000000E+00 0. -1.
         24    2    1    2    0    0  0.90233733061E+01 -0.11090878803E+03 -0.12620734572E+04  0.12694825102E+04  0.79838912042E+02 0.  0.
        254    2    1    2    0    0 -0.90233733061E+01  0.11090878803E+03  0.24901989486E+03  0.95109486033E+03  0.91114671968E+03 0.  0.
         23    2    4    4    0    0 -0.40833522375E+03  0.13105108194E+02 -0.66571630799E+02  0.42377574964E+03  0.90800358728E+02 0.  0.
         23    2    4    4    0    0  0.39931185044E+03  0.97803679838E+02  0.31559152566E+03  0.52731911068E+03  0.97220984009E+02 0.  0.
          2    1    3    3  502    0 -0.58148645145E+00 -0.10759164173E+03 -0.12448045601E+04  0.12494457541E+04  0.00000000000E+00 0. -1.
         -1    1    3    3    0  502  0.96048597576E+01 -0.33171463018E+01 -0.17268897091E+02  0.20036756157E+02  0.00000000000E+00 0.  1.
         13    1    5    5    0    0 -0.24342601591E+03  0.52260230186E+02 -0.36465720455E+02  0.25162890464E+03  0.00000000000E+00 0. -1.
        -13    1    5    5    0    0 -0.16490920783E+03 -0.39155121992E+02 -0.30105910344E+02  0.17214684500E+03  0.00000000000E+00 0.  1.
          1    1    6    6  503    0  0.32577217013E+03  0.47338453739E+02  0.27662707597E+03  0.42998950591E+03  0.00000000000E+00 0. -1.
         -1    1    6    6    0  503  0.73539680309E+02  0.50465226099E+02  0.38964449685E+02  0.97329604768E+02  0.00000000000E+00 0.  1.
<mgrwt>
<rscale>  0 0.19760279E+04</rscale>
<asrwt>0</asrwt>
<pdfrwt beam="1">  1        2 0.24874084E+00 0.19760279E+04</pdfrwt>
<pdfrwt beam="2">  1       -1 0.92886449E-01 0.19760279E+04</pdfrwt>
<totfact> 0.13031053E+01</totfact>
</mgrwt>
</event>
<event>
12    7  0.1857704E-007  0.2191124E+04  0.7818608E-02  0.8522131E-01
         -1   -1    0    0    0  501 -0.00000000000E+00  0.00000000000E+00  0.67377174229E+03  0.67377174229E+03  0.00000000000E+00 0.  1.
          2   -1    0    0  501    0  0.00000000000E+00 -0.00000000000E+00 -0.17813991330E+04  0.17813991330E+04  0.00000000000E+00 0. -1.
         24    2    1    2    0    0 -0.67409186816E+03 -0.59718536597E+03 -0.32967851262E+03  0.96255880094E+03  0.82470088691E+02 0.  0.
        254    2    1    2    0    0  0.67409186816E+03  0.59718536597E+03 -0.77794887804E+03  0.14926120743E+04  0.90091960766E+03 0.  0.
         23    2    4    4    0    0  0.79728036463E+03  0.70974049137E+03 -0.58270138406E+03  0.12192953631E+04  0.88049613954E+02 0.  0.
         23    2    4    4    0    0 -0.12318849647E+03 -0.11255512540E+03 -0.19524749398E+03  0.27331671123E+03  0.93468598014E+02 0.  0.
          2    1    3    3  502    0 -0.36593923011E+02 -0.32733966020E+02  0.10492871415E+01  0.49109354875E+02  0.00000000000E+00 0. -1.
         -1    1    3    3    0  502 -0.63749794514E+03 -0.56445139995E+03 -0.33072779976E+03  0.91344944606E+03  0.00000000000E+00 0.  1.
         13    1    5    5    0    0  0.99076998842E+02  0.55473835332E+02 -0.75196923579E+02  0.13619168632E+03  0.00000000000E+00 0. -1.
        -13    1    5    5    0    0  0.69820336579E+03  0.65426665604E+03 -0.50750446048E+03  0.10831036768E+04  0.00000000000E+00 0.  1.
          3    1    6    6  503    0 -0.23639846005E+02  0.16080362499E+02 -0.30353106594E+02  0.41698098963E+02  0.00000000000E+00 0. -1.
         -3    1    6    6    0  503 -0.99548650467E+02 -0.12863548789E+03 -0.16489438739E+03  0.23161861226E+03  0.00000000000E+00 0.  1.
<mgrwt>
<rscale>  0 0.21911243E+04</rscale>
<asrwt>0</asrwt>
<pdfrwt beam="1">  1        2 0.27406140E+00 0.21911243E+04</pdfrwt>
<pdfrwt beam="2">  1       -1 0.10365719E+00 0.21911243E+04</pdfrwt>
<totfact> 0.80731818E+00</totfact>
</mgrwt>
</event>
<event>
12    7  0.1857704E-007  0.1548384E+04  0.7818608E-02  0.8852900E-01
         -1   -1    0    0    0  501 -0.00000000000E+00  0.00000000000E+00  0.58512943123E+03  0.58512943123E+03  0.00000000000E+00 0.  1.
          2   -1    0    0  501    0  0.00000000000E+00 -0.00000000000E+00 -0.10243433178E+04  0.10243433178E+04  0.00000000000E+00 0. -1.
         24    2    1    2    0    0  0.23509359001E+03  0.34884181669E+03  0.17873950463E+03  0.46411031690E+03  0.80566535264E+02 0.  0.
        254    2    1    2    0    0 -0.23509359001E+03 -0.34884181669E+03 -0.61795339121E+03  0.11453624321E+04  0.86777249215E+03 0.  0.
         23    2    4    4    0    0  0.26698533547E+03 -0.81771289825E+02  0.10482430899E+02  0.29275257228E+03  0.87329685799E+02 0.  0.
         23    2    4    4    0    0 -0.50207892548E+03 -0.26707052687E+03 -0.62843582211E+03  0.85260985987E+03  0.92747382208E+02 0.  0.
          4    1    3    3  502    0  0.10417028279E+03  0.13424214599E+03  0.31605381350E+02  0.17283316148E+03  0.00000000000E+00 0. -1.
         -1    1    3    3    0  502  0.13092330722E+03  0.21459967070E+03  0.14713412328E+03  0.29127715542E+03  0.00000000000E+00 0.  1.
         13    1    5    5    0    0  0.87869080441E+02 -0.59429350702E+02  0.32413304212E+02  0.11092089664E+03  0.00000000000E+00 0. -1.
        -13    1    5    5    0    0  0.17911625503E+03 -0.22341939123E+02 -0.21930873312E+02  0.18183167563E+03  0.00000000000E+00 0.  1.
          4    1    6    6  503    0 -0.31184708566E+02 -0.26563523199E+02 -0.17263970911E+02  0.44453925639E+02  0.00000000000E+00 0. -1.
         -4    1    6    6    0  503 -0.47089421691E+03 -0.24050700367E+03 -0.61117185120E+03  0.80815593423E+03  0.00000000000E+00 0.  1.
<mgrwt>
<rscale>  0 0.15483842E+04</rscale>
<asrwt>0</asrwt>
<pdfrwt beam="1">  1        2 0.15759128E+00 0.15483842E+04</pdfrwt>
<pdfrwt beam="2">  1       -1 0.90019912E-01 0.15483842E+04</pdfrwt>
<totfact> 0.32230096E+01</totfact>
</mgrwt>
</event>
<event>
12    7  0.1857704E-007  0.1241742E+04  0.7818608E-02  0.9077085E-01
          2   -1    0    0  501    0  0.00000000000E+00  0.00000000000E+00  0.10093929580E+04  0.10093929580E+04  0.00000000000E+00 0. -1.
         -1   -1    0    0    0  501 -0.00000000000E+00 -0.00000000000E+00 -0.38189346276E+03  0.38189346276E+03  0.00000000000E+00 0.  1.
         24    2    1    2    0    0 -0.27777686199E+03  0.17250048966E+02  0.76270339224E+02  0.29936606760E+03  0.79657570518E+02 0.  0.
        254    2    1    2    0    0  0.27777686199E+03 -0.17250048966E+02  0.55122915597E+03  0.10919203531E+04  0.90054368351E+03 0.  0.
         23    2    4    4    0    0  0.26790218412E+03  0.19367393810E+03  0.72613542275E+03  0.80301385978E+03  0.90980395051E+02 0.  0.
         23    2    4    4    0    0  0.98746778737E+01 -0.21092398706E+03 -0.17490626678E+03  0.28890649333E+03  0.91040222709E+02 0.  0.
          4    1    3    3  502    0 -0.27667374708E+03  0.26230377260E+02  0.80556988354E+02  0.28935414873E+03  0.00000000000E+00 0. -1.
         -3    1    3    3    0  502 -0.11031149106E+01 -0.89803282943E+01 -0.42866491303E+01  0.10011918874E+02  0.00000000000E+00 0.  1.
         13    1    5    5    0    0  0.25463709211E+03  0.16162806463E+03  0.59113719502E+03  0.66363157195E+03  0.00000000000E+00 0.  1.
        -13    1    5    5    0    0  0.13265092010E+02  0.32045873466E+02  0.13499822773E+03  0.13938228783E+03  0.00000000000E+00 0. -1.
          4    1    6    6  503    0  0.25961810862E+02 -0.20990164958E+03 -0.15020706272E+03  0.25941256679E+03  0.00000000000E+00 0.  1.
         -4    1    6    6    0  503 -0.16087132988E+02 -0.10223374830E+01 -0.24699204055E+02  0.29493926539E+02  0.00000000000E+00 0. -1.
<mgrwt>
<rscale>  0 0.12417416E+04</rscale>
<asrwt>0</asrwt>
<pdfrwt beam="1">  1        2 0.15529122E+00 0.12417416E+04</pdfrwt>
<pdfrwt beam="2">  1       -1 0.58752841E-01 0.12417416E+04</pdfrwt>
<totfact> 0.81866342E+01</totfact>
</mgrwt>
</event>
<event>
12    7  0.2331386E-007  0.1967651E+04  0.7818608E-02  0.8621896E-01
          2   -1    0    0  501    0  0.00000000000E+00  0.00000000000E+00  0.10494448050E+04  0.10494448050E+04  0.00000000000E+00 0. -1.
         -1   -1    0    0    0  501 -0.00000000000E+00 -0.00000000000E+00 -0.92230945536E+03  0.92230945536E+03  0.00000000000E+00 0.  1.
         24    2    1    2    0    0  0.25693504329E+03  0.71202782986E+02 -0.68781328311E+03  0.74194979557E+03  0.79479141576E+02 0.  0.
        254    2    1    2    0    0 -0.25693504329E+03 -0.71202782986E+02  0.81494863278E+03  0.12298044648E+04  0.88158510357E+03 0.  0.
         23    2    4    4    0    0 -0.10523059952E+03  0.14335938366E+03  0.91248465654E+03  0.93452234080E+03  0.95280454862E+02 0.  0.
         23    2    4    4    0    0 -0.15170444378E+03 -0.21456216665E+03 -0.97536023759E+02  0.29528212402E+03  0.92882157683E+02 0.  0.
          4    1    3    3  502    0  0.19880604565E+02 -0.15869598571E+02 -0.54608617148E+02  0.60242706310E+02  0.00000000000E+00 0. -1.
         -3    1    3    3    0  502  0.23705443873E+03  0.87072381557E+02 -0.63320466597E+03  0.68170708926E+03  0.00000000000E+00 0.  1.
         13    1    5    5    0    0 -0.86823125205E+02  0.15493483805E+03  0.85016540128E+03  0.86851843311E+03  0.00000000000E+00 0. -1.
        -13    1    5    5    0    0 -0.18407474312E+02 -0.11575454390E+02  0.62319255258E+02  0.66003907694E+02  0.00000000000E+00 0.  1.
          4    1    6    6  503    0 -0.13849545347E+03 -0.15417273905E+03 -0.10618366659E+03  0.23286303946E+03  0.00000000000E+00 0. -1.
         -4    1    6    6    0  503 -0.13208990308E+02 -0.60389427594E+02  0.86476428275E+01  0.62419084554E+02  0.00000000000E+00 0.  1.
<mgrwt>
<rscale>  0 0.19676513E+04</rscale>
<asrwt>0</asrwt>
<pdfrwt beam="1">  1        2 0.16145305E+00 0.19676513E+04</pdfrwt>
<pdfrwt beam="2">  1       -1 0.14189376E+00 0.19676513E+04</pdfrwt>
<totfact> 0.10071991E+01</totfact>
</mgrwt>
</event>
<event>
12    7  0.1857704E-007  0.1694822E+04  0.7818608E-02  0.8764323E-01
         -1   -1    0    0    0  501 -0.00000000000E+00  0.00000000000E+00  0.12017036783E+04  0.12017036783E+04  0.00000000000E+00 0.  1.
          2   -1    0    0  501    0  0.00000000000E+00 -0.00000000000E+00 -0.59757258062E+03  0.59757258062E+03  0.00000000000E+00 0. -1.
         24    2    1    2    0    0 -0.12534529693E+03  0.23092876401E+03 -0.36399333952E+03  0.45929608308E+03  0.97068033921E+02 0.  0.
        254    2    1    2    0    0  0.12534529693E+03 -0.23092876401E+03  0.96812443724E+03  0.13399801759E+04  0.88839316084E+03 0.  0.
         23    2    4    4    0    0 -0.31620706497E+03  0.12396100004E+03  0.37721251041E+03  0.51591748140E+03  0.92348969333E+02 0.  0.
         23    2    4    4    0    0  0.44155236190E+03 -0.35488976405E+03  0.59091192684E+03  0.82406269447E+03  0.94800771158E+02 0.  0.
          4    1    3    3  502    0 -0.85828816759E+02  0.20475062059E+03 -0.24196409786E+03  0.32838396287E+03  0.00000000000E+00 0. -1.
         -3    1    3    3    0  502 -0.39516480167E+02  0.26178143423E+02 -0.12202924166E+03  0.13091212021E+03  0.00000000000E+00 0.  1.
         13    1    5    5    0    0 -0.16236243585E+03  0.24007841040E+02  0.13788001117E+03  0.21435679249E+03  0.00000000000E+00 0. -1.
        -13    1    5    5    0    0 -0.15384462912E+03  0.99953159000E+02  0.23933249924E+03  0.30156068891E+03  0.00000000000E+00 0.  1.
          1    1    6    6  503    0  0.29430498787E+03 -0.17823870239E+03  0.36776604860E+03  0.50362319983E+03  0.00000000000E+00 0. -1.
         -1    1    6    6    0  503  0.14724737403E+03 -0.17665106166E+03  0.22314587824E+03  0.32043949464E+03  0.00000000000E+00 0.  1.
<mgrwt>
<rscale>  0 0.16948217E+04</rscale>
<asrwt>0</asrwt>
<pdfrwt beam="1">  1        2 0.91934243E-01 0.16948217E+04</pdfrwt>
<pdfrwt beam="2">  1       -1 0.18487749E+00 0.16948217E+04</pdfrwt>
<totfact> 0.10408521E+01</totfact>
</mgrwt>
</event>
<event>
12    7  0.1857704E-007  0.1841808E+04  0.7818608E-02  0.8684377E-01
          2   -1    0    0  501    0  0.00000000000E+00  0.00000000000E+00  0.22799795276E+04  0.22799795276E+04  0.00000000000E+00 0. -1.
         -1   -1    0    0    0  501 -0.00000000000E+00 -0.00000000000E+00 -0.37196143500E+03  0.37196143500E+03  0.00000000000E+00 0.  1.
         24    2    1    2    0    0 -0.41417783745E+03 -0.59706253990E+02  0.15301788178E+04  0.15883689018E+04  0.79752340382E+02 0.  0.
        254    2    1    2    0    0  0.41417783745E+03  0.59706253990E+02  0.37783927478E+03  0.10635720608E+04  0.90183972701E+03 0.  0.
         23    2    4    4    0    0 -0.69093196916E+02 -0.33808284114E+03  0.87505346601E+02  0.36749296038E+03  0.91214104798E+02 0.  0.
         23    2    4    4    0    0  0.48327103436E+03  0.39778909513E+03  0.29033392818E+03  0.69607910044E+03  0.91898135789E+02 0.  0.
          4    1    3    3  502    0 -0.38952643630E+03 -0.71688445740E+02  0.14664680918E+04  0.15190124232E+04  0.00000000000E+00 0. -1.
         -3    1    3    3    0  502 -0.24651401143E+02  0.11982191750E+02  0.63710726073E+02  0.69356478531E+02  0.00000000000E+00 0.  1.
         13    1    5    5    0    0 -0.26021934340E+02 -0.22074002824E+03  0.96198825476E+02  0.24219313607E+03  0.00000000000E+00 0.  1.
        -13    1    5    5    0    0 -0.43071262576E+02 -0.11734281290E+03 -0.86934788749E+01  0.12529982431E+03  0.00000000000E+00 0. -1.
          2    1    6    6  503    0  0.26346089821E+03  0.22201631450E+03  0.10937675992E+03  0.36147775091E+03  0.00000000000E+00 0.  1.
         -2    1    6    6    0  503  0.21981013615E+03  0.17577278063E+03  0.18095716826E+03  0.33460134954E+03  0.00000000000E+00 0. -1.
<mgrwt>
<rscale>  0 0.18418083E+04</rscale>
<asrwt>0</asrwt>
<pdfrwt beam="1">  1        2 0.35076607E+00 0.18418083E+04</pdfrwt>
<pdfrwt beam="2">  1       -1 0.57224838E-01 0.18418083E+04</pdfrwt>
<totfact> 0.15423143E+01</totfact>
</mgrwt>
</event>
<event>
12    7  0.1857704E-007  0.1840896E+04  0.7818608E-02  0.8684849E-01
         -1   -1    0    0    0  501 -0.00000000000E+00  0.00000000000E+00  0.33632839073E+03  0.33632839073E+03  0.00000000000E+00 0.  1.
          2   -1    0    0  501    0  0.00000000000E+00 -0.00000000000E+00 -0.25190399179E+04  0.25190399179E+04  0.00000000000E+00 0. -1.
         24    2    1    2    0    0 -0.62867642228E+03  0.34307576476E+03 -0.70511579502E+03  0.10083125948E+04  0.81061583016E+02 0.  0.
        254    2    1    2    0    0  0.62867642228E+03 -0.34307576476E+03 -0.14775957322E+04  0.18470557138E+04  0.84580768371E+03 0.  0.
         23    2    4    4    0    0  0.42444979851E+03  0.11117624239E+03 -0.11747669906E+04  0.12571865683E+04  0.89010094919E+02 0.  0.
         23    2    4    4    0    0  0.20422662378E+03 -0.45425200716E+03 -0.30282874151E+03  0.58986914543E+03  0.90481833443E+02 0.  0.
          4    1    3    3  502    0 -0.28350296657E+02  0.15522825443E+02 -0.11633711198E+02  0.34351719993E+02  0.00000000000E+00 0. -1.
         -3    1    3    3    0  502 -0.60032612563E+03  0.32755293932E+03 -0.69348208382E+03  0.97396087486E+03  0.00000000000E+00 0.  1.
         13    1    5    5    0    0  0.13525147304E+03  0.63370453118E+02 -0.31031434640E+03  0.34438897902E+03  0.00000000000E+00 0. -1.
        -13    1    5    5    0    0  0.28919832547E+03  0.47805789276E+02 -0.86445264425E+03  0.91279758933E+03  0.00000000000E+00 0.  1.
          1    1    6    6  503    0  0.20642346387E+03 -0.39999301952E+03 -0.28480488117E+03  0.53265268463E+03  0.00000000000E+00 0. -1.
         -1    1    6    6    0  503 -0.21968400902E+01 -0.54258987635E+02 -0.18023860337E+02  0.57216460805E+02  0.00000000000E+00 0.  1.
<mgrwt>
<rscale>  0 0.18408961E+04</rscale>
<asrwt>0</asrwt>
<pdfrwt beam="1">  1        2 0.38754459E+00 0.18408961E+04</pdfrwt>
<pdfrwt beam="2">  1       -1 0.51742831E-01 0.18408961E+04</pdfrwt>
<totfact> 0.13682229E+01</totfact>
</mgrwt>
</event>
<event>
12    7  0.1857704E-007  0.1636745E+04  0.7818608E-02  0.8798287E-01
         -1   -1    0    0    0  501 -0.00000000000E+00  0.00000000000E+00  0.65419254830E+03  0.65419254830E+03  0.00000000000E+00 0.  1.
          2   -1    0    0  501    0  0.00000000000E+00 -0.00000000000E+00 -0.10237559689E+04  0.10237559689E+04  0.00000000000E+00 0. -1.
         24    2    1    2    0    0  0.53164994572E+02 -0.47506824200E+03  0.16607722522E+03  0.51141931934E+03  0.73835792509E+02 0.  0.
        254    2    1    2    0    0 -0.53164994572E+02  0.47506824200E+03 -0.53564064583E+03  0.11665291979E+04  0.91943630383E+03 0.  0.
         23    2    4    4    0    0  0.36767984013E+03  0.99861940810E+02 -0.11160989718E+02  0.39144324940E+03  0.89120018792E+02 0.  0.
         23    2    4    4    0    0 -0.42084483470E+03  0.37520630119E+03 -0.52447965611E+03  0.77508594847E+03  0.88256300035E+02 0.  0.
          2    1    3    3  502    0  0.56981906298E+02 -0.25519632615E+03  0.65236695773E+02  0.26949569385E+03  0.00000000000E+00 0. -1.
         -1    1    3    3    0  502 -0.38169117253E+01 -0.21987191584E+03  0.10084052945E+03  0.24192362549E+03  0.00000000000E+00 0.  1.
         13    1    5    5    0    0  0.21628780209E+03  0.81366915452E+02  0.31122475595E+02  0.23317289025E+03  0.00000000000E+00 0. -1.
        -13    1    5    5    0    0  0.15139203804E+03  0.18495025358E+02 -0.42283465313E+02  0.15827035915E+03  0.00000000000E+00 0.  1.
          1    1    6    6  503    0 -0.35296700940E+03  0.26704530061E+03 -0.39501376612E+03  0.59324091036E+03  0.00000000000E+00 0. -1.
         -1    1    6    6    0  503 -0.67877825299E+02  0.10816100057E+03 -0.12946588999E+03  0.18184503810E+03  0.00000000000E+00 0.  1.
<mgrwt>
<rscale>  0 0.16367450E+04</rscale>
<asrwt>0</asrwt>
<pdfrwt beam="1">  1        2 0.15750092E+00 0.16367450E+04</pdfrwt>
<pdfrwt beam="2">  1       -1 0.10064501E+00 0.16367450E+04</pdfrwt>
<totfact> 0.24923282E+01</totfact>
</mgrwt>
</event>
<event>
12    7  0.1857704E-007  0.1783484E+04  0.7818608E-02  0.8715132E-01
          2   -1    0    0  501    0  0.00000000000E+00  0.00000000000E+00  0.26191743539E+04  0.26191743539E+04  0.00000000000E+00 0. -1.
         -1   -1    0    0    0  501 -0.00000000000E+00 -0.00000000000E+00 -0.30360871529E+03  0.30360871529E+03  0.00000000000E+00 0.  1.
         24    2    1    2    0    0 -0.23843640532E+03 -0.60650416779E+03  0.62065885454E+03  0.90356334928E+03  0.80685113329E+02 0.  0.
        254    2    1    2    0    0  0.23843640532E+03  0.60650416779E+03  0.16949067841E+04  0.20192197199E+04  0.88308552565E+03 0.  0.
         23    2    4    4    0    0  0.28795901597E+03  0.79203839879E+02  0.13367432086E+04  0.13726714827E+04  0.90282614937E+02 0.  0.
         23    2    4    4    0    0 -0.49522610658E+02  0.52730032791E+03  0.35816357552E+03  0.64654823724E+03  0.96152750708E+02 0.  0.
          4    1    3    3  502    0  0.54860150362E+01 -0.15187612757E+02  0.87819555503E+01  0.18381585501E+02  0.00000000000E+00 0. -1.
         -3    1    3    3    0  502 -0.24392242035E+03 -0.59131655504E+03  0.61187689898E+03  0.88518176378E+03  0.00000000000E+00 0.  1.
         13    1    5    5    0    0  0.18163273209E+03  0.77064591625E+02  0.10088594137E+04  0.10279721384E+04  0.00000000000E+00 0. -1.
        -13    1    5    5    0    0  0.10632628388E+03  0.21392482543E+01  0.32788379485E+03  0.34469934428E+03  0.00000000000E+00 0.  1.
          3    1    6    6  503    0  0.39783637577E+01 -0.16789991546E+01  0.10335261009E+02  0.11201073006E+02  0.00000000000E+00 0. -1.
         -3    1    6    6    0  503 -0.53500974416E+02  0.52897932707E+03  0.34782831451E+03  0.63534716424E+03  0.00000000000E+00 0.  1.
<mgrwt>
<rscale>  0 0.17834844E+04</rscale>
<asrwt>0</asrwt>
<pdfrwt beam="1">  1        2 0.40294989E+00 0.17834844E+04</pdfrwt>
<pdfrwt beam="2">  1       -1 0.46709035E-01 0.17834844E+04</pdfrwt>
<totfact> 0.14599847E+01</totfact>
</mgrwt>
</event>
<event>
12    7  0.1857704E-007  0.2832039E+04  0.7818608E-02  0.8293390E-01
         -1   -1    0    0    0  501 -0.00000000000E+00  0.00000000000E+00  0.53929150975E+03  0.53929150975E+03  0.00000000000E+00 0.  1.
          2   -1    0    0  501    0  0.00000000000E+00 -0.00000000000E+00 -0.37180459046E+04  0.37180459046E+04  0.00000000000E+00 0. -1.
         24    2    1    2    0    0 -0.72494175401E+03 -0.14091931568E+03 -0.29487920679E+04  0.30409247929E+04  0.80312742069E+02 0.  0.
        254    2    1    2    0    0  0.72494175401E+03  0.14091931568E+03 -0.22996232693E+03  0.12164126214E+04  0.93881744411E+03 0.  0.
         23    2    4    4    0    0  0.83737602273E+03 -0.45480039146E+02 -0.39144288029E+03  0.93004129115E+03  0.92099062454E+02 0.  0.
         23    2    4    4    0    0 -0.11243426872E+03  0.18639935483E+03  0.16148055336E+03  0.28637133022E+03  0.92446662434E+02 0.  0.
          4    1    3    3  502    0 -0.42451284196E+03 -0.70669220730E+02 -0.15598833802E+04  0.16181598968E+04  0.00000000000E+00 0. -1.
         -3    1    3    3    0  502 -0.30042891205E+03 -0.70250094953E+02 -0.13889086876E+04  0.14227648961E+04  0.00000000000E+00 0.  1.
         13    1    5    5    0    0  0.65459023232E+03  0.27463039727E+01 -0.30607923369E+03  0.72262051710E+03  0.00000000000E+00 0. -1.
        -13    1    5    5    0    0  0.18278579041E+03 -0.48226343118E+02 -0.85363646602E+02  0.20742077405E+03  0.00000000000E+00 0.  1.
          1    1    6    6  503    0 -0.11023278225E+03  0.11007230489E+03  0.81568287731E+02  0.17584244127E+03  0.00000000000E+00 0. -1.
         -1    1    6    6    0  503 -0.22014864638E+01  0.76327049938E+02  0.79912265631E+02  0.11052888895E+03  0.00000000000E+00 0.  1.
<mgrwt>
<rscale>  0 0.28320386E+04</rscale>
<asrwt>0</asrwt>
<pdfrwt beam="1">  1        2 0.57200708E+00 0.28320386E+04</pdfrwt>
<pdfrwt beam="2">  1       -1 0.82967923E-01 0.28320386E+04</pdfrwt>
<totfact> 0.80535269E-01</totfact>
</mgrwt>
</event>
<event>
12    7  0.1857704E-007  0.1445617E+04  0.7818608E-02  0.8921445E-01
          2   -1    0    0  501    0  0.00000000000E+00  0.00000000000E+00  0.49510023278E+03  0.49510023278E+03  0.00000000000E+00 0. -1.
         -1   -1    0    0    0  501 -0.00000000000E+00 -0.00000000000E+00 -0.10552446981E+04  0.10552446981E+04  0.00000000000E+00 0.  1.
         24    2    1    2    0    0  0.28601029345E+03  0.22029493230E+03  0.93038813151E+02  0.38141608251E+03  0.80562162890E+02 0.  0.
        254    2    1    2    0    0 -0.28601029345E+03 -0.22029493230E+03 -0.65318327844E+03  0.11689288483E+04  0.89967467015E+03 0.  0.
         23    2    4    4    0    0  0.20193841191E+03  0.16999550454E+03 -0.40137111477E+03  0.48907421550E+03  0.91745423493E+02 0.  0.
         23    2    4    4    0    0 -0.48794870536E+03 -0.39029043683E+03 -0.25181216367E+03  0.67985463284E+03  0.91500775292E+02 0.  0.
          4    1    3    3  502    0  0.27352101872E+03  0.18006172596E+03  0.77502313843E+02  0.33651535104E+03  0.00000000000E+00 0. -1.
         -3    1    3    3    0  502  0.12489274732E+02  0.40233206338E+02  0.15536499308E+02  0.44900731468E+02  0.00000000000E+00 0.  1.
         13    1    5    5    0    0  0.17051258870E+03  0.11457560212E+03 -0.24197707818E+03  0.31741930923E+03  0.00000000000E+00 0.  1.
        -13    1    5    5    0    0  0.31425823207E+02  0.55419902417E+02 -0.15939403658E+03  0.17165490627E+03  0.00000000000E+00 0. -1.
          2    1    6    6  503    0  0.67830968727E+00 -0.15710282806E+02 -0.81143565966E+01  0.17695080470E+02  0.00000000000E+00 0. -1.
         -2    1    6    6    0  503 -0.48862701505E+03 -0.37458015403E+03 -0.24369780707E+03  0.66215955237E+03  0.00000000000E+00 0.  1.
<mgrwt>
<rscale>  0 0.14456167E+04</rscale>
<asrwt>0</asrwt>
<pdfrwt beam="1">  1        2 0.76169267E-01 0.14456167E+04</pdfrwt>
<pdfrwt beam="2">  1       -1 0.16234534E+00 0.14456167E+04</pdfrwt>
<totfact> 0.19383435E+01</totfact>
</mgrwt>
</event>
<event>
12    7  0.1857704E-007  0.1541404E+04  0.7818608E-02  0.8857377E-01
         -1   -1    0    0    0  501 -0.00000000000E+00  0.00000000000E+00  0.30298246085E+03  0.30298246085E+03  0.00000000000E+00 0.  1.
          2   -1    0    0  501    0  0.00000000000E+00 -0.00000000000E+00 -0.19604482858E+04  0.19604482858E+04  0.00000000000E+00 0. -1.
         24    2    1    2    0    0 -0.35948176195E+03  0.21926235644E+03 -0.97216851727E+03  0.10624903138E+04  0.80442046692E+02 0.  0.
        254    2    1    2    0    0  0.35948176195E+03 -0.21926235644E+03 -0.68529730765E+03  0.12009404328E+04  0.89180850250E+03 0.  0.
         23    2    4    4    0    0  0.53972321367E+03 -0.95422075679E+02 -0.93211474948E+02  0.56317567411E+03  0.89843981138E+02 0.  0.
         23    2    4    4    0    0 -0.18024145171E+03 -0.12384028076E+03 -0.59208583270E+03  0.63776475869E+03  0.91404912838E+02 0.  0.
          4    1    3    3  502    0 -0.19478493971E+03  0.88979846411E+02 -0.56789678658E+03  0.60693108835E+03  0.00000000000E+00 0. -1.
         -1    1    3    3    0  502 -0.16469682225E+03  0.13028251003E+03 -0.40427173070E+03  0.45555922548E+03  0.00000000000E+00 0.  1.
         13    1    5    5    0    0  0.51449975995E+02 -0.92946519904E+01 -0.37294737159E+02  0.64221398344E+02  0.00000000000E+00 0. -1.
        -13    1    5    5    0    0  0.48827323767E+03 -0.86127423689E+02 -0.55916737789E+02  0.49895427576E+03  0.00000000000E+00 0.  1.
          3    1    6    6  503    0 -0.93108250059E+02 -0.33559342452E+02 -0.16284726579E+03  0.19056392017E+03  0.00000000000E+00 0. -1.
         -3    1    6    6    0  503 -0.87133201652E+02 -0.90280938308E+02 -0.42923856691E+03  0.44720083852E+03  0.00000000000E+00 0.  1.
<mgrwt>
<rscale>  0 0.15414038E+04</rscale>
<asrwt>0</asrwt>
<pdfrwt beam="1">  1        2 0.30160743E+00 0.15414038E+04</pdfrwt>
<pdfrwt beam="2">  1       -1 0.46612686E-01 0.15414038E+04</pdfrwt>
<totfact> 0.35359089E+01</totfact>
</mgrwt>
</event>
<event>
12    7  0.1857704E-007  0.1227671E+04  0.7818608E-02  0.9088975E-01
          2   -1    0    0  501    0  0.00000000000E+00  0.00000000000E+00  0.13202442023E+03  0.13202442023E+03  0.00000000000E+00 0. -1.
         -1   -1    0    0    0  501 -0.00000000000E+00 -0.00000000000E+00 -0.28539736049E+04  0.28539736049E+04  0.00000000000E+00 0.  1.
         24    2    1    2    0    0  0.21861877100E+03  0.15311352740E+03 -0.57070396288E+03  0.63499003524E+03  0.79192249021E+02 0.  0.
        254    2    1    2    0    0 -0.21861877100E+03 -0.15311352740E+03 -0.21512452218E+04  0.23510079899E+04  0.91002452987E+03 0.  0.
         23    2    4    4    0    0  0.68747989653E+02 -0.48211793156E+03 -0.12668674150E+04  0.13603550277E+04  0.91917180605E+02 0.  0.
         23    2    4    4    0    0 -0.28736676065E+03  0.32900440417E+03 -0.88437780684E+03  0.99065296227E+03  0.91900126996E+02 0.  0.
          4    1    3    3  502    0  0.11927397775E+02  0.24204537297E+02 -0.22618523437E+02  0.35209658418E+02  0.00000000000E+00 0. -1.
         -3    1    3    3    0  502  0.20669137322E+03  0.12890899010E+03 -0.54808543944E+03  0.59978037682E+03  0.00000000000E+00 0.  1.
         13    1    5    5    0    0  0.46659825037E+02 -0.13516827844E+03 -0.46176750621E+03  0.48340131626E+03  0.00000000000E+00 0. -1.
        -13    1    5    5    0    0  0.22088164617E+02 -0.34694965312E+03 -0.80509990879E+03  0.87695371141E+03  0.00000000000E+00 0.  1.
          1    1    6    6  503    0 -0.26763318076E+03  0.25472483849E+03 -0.72567715573E+03  0.81432155635E+03  0.00000000000E+00 0. -1.
         -1    1    6    6    0  503 -0.19733579892E+02  0.74279565675E+02 -0.15870065110E+03  0.17633140592E+03  0.00000000000E+00 0.  1.
<mgrwt>
<rscale>  0 0.12276713E+04</rscale>
<asrwt>0</asrwt>
<pdfrwt beam="1">  1        2 0.20311450E-01 0.12276713E+04</pdfrwt>
<pdfrwt beam="2">  1       -1 0.43907285E+00 0.12276713E+04</pdfrwt>
<totfact> 0.12355341E+00</totfact>
</mgrwt>
</event>
<event>
12    7  0.1857704E-007  0.1673920E+04  0.7818608E-02  0.8776380E-01
          2   -1    0    0  501    0  0.00000000000E+00  0.00000000000E+00  0.62292556457E+03  0.62292556457E+03  0.00000000000E+00 0. -1.
         -1   -1    0    0    0  501 -0.00000000000E+00 -0.00000000000E+00 -0.11245358759E+04  0.11245358759E+04  0.00000000000E+00 0.  1.
         24    2    1    2    0    0  0.50808797852E+03  0.30571929922E+03 -0.23475454134E+03  0.64297269700E+03  0.81771086425E+02 0.  0.
        254    2    1    2    0    0 -0.50808797852E+03 -0.30571929922E+03 -0.26685577001E+03  0.11044887435E+04  0.89278535980E+03 0.  0.
         23    2    4    4    0    0 -0.28219204474E+03 -0.44945988805E+03 -0.50216974473E+03  0.73645239922E+03  0.92418302935E+02 0.  0.
         23    2    4    4    0    0 -0.22589593378E+03  0.14374058883E+03  0.23531397472E+03  0.36803634427E+03  0.91584683374E+02 0.  0.
          2    1    3    3  502    0  0.38692391805E+03  0.20008889565E+03 -0.19577477123E+03  0.47757035667E+03  0.00000000000E+00 0. -1.
         -1    1    3    3    0  502  0.12116406048E+03  0.10563040357E+03 -0.38979770103E+02  0.16540234033E+03  0.00000000000E+00 0.  1.
         13    1    5    5    0    0 -0.24232530303E+03 -0.37119691813E+03 -0.46064735234E+03  0.63930015464E+03  0.00000000000E+00 0. -1.
        -13    1    5    5    0    0 -0.39866741711E+02 -0.78262969926E+02 -0.41522392388E+02  0.97152244575E+02  0.00000000000E+00 0.  1.
          3    1    6    6  503    0 -0.15391944833E+03  0.55250898909E+02  0.17299405667E+03  0.23805630016E+03  0.00000000000E+00 0. -1.
         -3    1    6    6    0  503 -0.71976485457E+02  0.88489689921E+02  0.62319918050E+02  0.12998004411E+03  0.00000000000E+00 0.  1.
<mgrwt>
<rscale>  0 0.16739201E+04</rscale>
<asrwt>0</asrwt>
<pdfrwt beam="1">  1        2 0.95834703E-01 0.16739201E+04</pdfrwt>
<pdfrwt beam="2">  1       -1 0.17300552E+00 0.16739201E+04</pdfrwt>
<totfact> 0.12069906E+01</totfact>
</mgrwt>
</event>
<event>
12    7  0.1857704E-007  0.1625121E+04  0.7818608E-02  0.8805262E-01
         -1   -1    0    0    0  501 -0.00000000000E+00  0.00000000000E+00  0.23610241876E+03  0.23610241876E+03  0.00000000000E+00 0.  1.
          2   -1    0    0  501    0  0.00000000000E+00 -0.00000000000E+00 -0.27964753237E+04  0.27964753237E+04  0.00000000000E+00 0. -1.
         24    2    1    2    0    0  0.96352085369E+02 -0.23935839362E+03  0.36744836832E+02  0.27258610716E+03  0.79855105224E+02 0.  0.
        254    2    1    2    0    0 -0.96352085369E+02  0.23935839362E+03 -0.25971177418E+04  0.27599916353E+04  0.89775113329E+03 0.  0.
         23    2    4    4    0    0 -0.27478684501E+03 -0.11807250065E+03 -0.20634949092E+04  0.20871213082E+04  0.92818044480E+02 0.  0.
         23    2    4    4    0    0  0.17843475964E+03  0.35743089427E+03 -0.53362283261E+03  0.67287032710E+03  0.91680652165E+02 0.  0.
          4    1    3    3  502    0  0.70405150118E+01 -0.11035427234E+02  0.23694423213E+02  0.27069820784E+02  0.00000000000E+00 0. -1.
         -3    1    3    3    0  502  0.89311570357E+02 -0.22832296639E+03  0.13050413618E+02  0.24551628638E+03  0.00000000000E+00 0.  1.
         13    1    5    5    0    0 -0.81472419528E+02 -0.65948512453E+02 -0.50076848874E+03  0.51162099327E+03  0.00000000000E+00 0. -1.
        -13    1    5    5    0    0 -0.19331442548E+03 -0.52123988196E+02 -0.15627264205E+04  0.15755003150E+04  0.00000000000E+00 0.  1.
          4    1    6    6  503    0  0.69891670274E+00  0.69945041481E+02 -0.11788602664E+03  0.13707630207E+03  0.00000000000E+00 0. -1.
         -4    1    6    6    0  503  0.17773584294E+03  0.28748585279E+03 -0.41573680597E+03  0.53579402503E+03  0.00000000000E+00 0.  1.
<mgrwt>
<rscale>  0 0.16251210E+04</rscale>
<asrwt>0</asrwt>
<pdfrwt beam="1">  1        2 0.43022700E+00 0.16251210E+04</pdfrwt>
<pdfrwt beam="2">  1       -1 0.36323447E-01 0.16251210E+04</pdfrwt>
<totfact> 0.18454835E+01</totfact>
</mgrwt>
</event>
<event>
12    7  0.1857704E-007  0.1402718E+04  0.7818608E-02  0.8951853E-01
          2   -1    0    0  501    0  0.00000000000E+00  0.00000000000E+00  0.36781317689E+03  0.36781317689E+03  0.00000000000E+00 0. -1.
         -1   -1    0    0    0  501 -0.00000000000E+00 -0.00000000000E+00 -0.13373766862E+04  0.13373766862E+04  0.00000000000E+00 0.  1.
         24    2    1    2    0    0 -0.19450538494E+03 -0.31983069685E+03 -0.50584991315E+03  0.63359302627E+03  0.73701891957E+02 0.  0.
        254    2    1    2    0    0  0.19450538494E+03  0.31983069685E+03 -0.46371359619E+03  0.10715968369E+04  0.89059837304E+03 0.  0.
         23    2    4    4    0    0 -0.17003990855E+03  0.21975159375E+03 -0.59421360545E+03  0.66209444374E+03  0.89860503453E+02 0.  0.
         23    2    4    4    0    0  0.36454529349E+03  0.10007910310E+03  0.13050000926E+03  0.40950239312E+03  0.88050324647E+02 0.  0.
          2    1    3    3  502    0 -0.42718002389E+02 -0.11560623509E+03 -0.20878745321E+03  0.24244964413E+03  0.00000000000E+00 0. -1.
         -1    1    3    3    0  502 -0.15178738256E+03 -0.20422446176E+03 -0.29706245994E+03  0.39114338214E+03  0.00000000000E+00 0.  1.
         13    1    5    5    0    0 -0.27945705480E+02  0.81760619807E+02 -0.11732822114E+03  0.14571092231E+03  0.00000000000E+00 0.  1.
        -13    1    5    5    0    0 -0.14209420307E+03  0.13799097394E+03 -0.47688538431E+03  0.51638352143E+03  0.00000000000E+00 0. -1.
          3    1    6    6  503    0  0.36030798290E+03  0.10935202208E+03  0.13239178737E+03  0.39913317657E+03  0.00000000000E+00 0. -1.
         -3    1    6    6    0  503  0.42373105893E+01 -0.92729189806E+01 -0.18917781095E+01  0.10369216550E+02  0.00000000000E+00 0.  1.
<mgrwt>
<rscale>  0 0.14027185E+04</rscale>
<asrwt>0</asrwt>
<pdfrwt beam="1">  1        2 0.56586643E-01 0.14027185E+04</pdfrwt>
<pdfrwt beam="2">  1       -1 0.20575026E+00 0.14027185E+04</pdfrwt>
<totfact> 0.13376904E+01</totfact>
</mgrwt>
</event>
<event>
12    7  0.1857704E-007  0.3771253E+04  0.7818608E-02  0.8052352E-01
         -1   -1    0    0    0  501 -0.00000000000E+00  0.00000000000E+00  0.19120894802E+04  0.19120894802E+04  0.00000000000E+00 0.  1.
          2   -1    0    0  501    0  0.00000000000E+00 -0.00000000000E+00 -0.18595299266E+04  0.18595299266E+04  0.00000000000E+00 0. -1.
         24    2    1    2    0    0 -0.38954803678E+03 -0.56990594823E+03 -0.16113955448E+04  0.17548527661E+04  0.79825847474E+02 0.  0.
        254    2    1    2    0    0  0.38954803678E+03  0.56990594823E+03  0.16639550984E+04  0.20167666408E+04  0.90667560416E+03 0.  0.
         23    2    4    4    0    0  0.40622063007E+03  0.62017876711E+03  0.17343974606E+04  0.18884243115E+04  0.91514620348E+02 0.  0.
         23    2    4    4    0    0 -0.16672593288E+02 -0.50272818886E+02 -0.70442362154E+02  0.12834232927E+03  0.93296813507E+02 0.  0.
          2    1    3    3  502    0 -0.12897872126E+03 -0.22287013808E+03 -0.68654988516E+03  0.73325122148E+03  0.00000000000E+00 0. -1.
         -1    1    3    3    0  502 -0.26056931552E+03 -0.34703581015E+03 -0.92484565964E+03  0.10216015446E+04  0.00000000000E+00 0.  1.
         13    1    5    5    0    0  0.26575200232E+03  0.43261120914E+03  0.12834525721E+04  0.13802271877E+04  0.00000000000E+00 0.  1.
        -13    1    5    5    0    0  0.14046862775E+03  0.18756755797E+03  0.45094488850E+03  0.50819712381E+03  0.00000000000E+00 0. -1.
          3    1    6    6  503    0 -0.14629719384E+01  0.87933967209E+01  0.18476833056E+02  0.20514811053E+02  0.00000000000E+00 0. -1.
         -3    1    6    6    0  503 -0.15209621349E+02 -0.59066215607E+02 -0.88919195210E+02  0.10782751822E+03  0.00000000000E+00 0.  1.
<mgrwt>
<rscale>  0 0.37712532E+04</rscale>
<asrwt>0</asrwt>
<pdfrwt beam="1">  1        2 0.28608153E+00 0.37712532E+04</pdfrwt>
<pdfrwt beam="2">  1       -1 0.29416761E+00 0.37712532E+04</pdfrwt>
<totfact> 0.26346934E-01</totfact>
</mgrwt>
</event>
<event>
12    7  0.1857704E-007  0.2280978E+04  0.7818608E-02  0.8485459E-01
          2   -1    0    0  501    0  0.00000000000E+00  0.00000000000E+00  0.18700621408E+04  0.18700621408E+04  0.00000000000E+00 0. -1.
         -1   -1    0    0    0  501 -0.00000000000E+00 -0.00000000000E+00 -0.69554648230E+03  0.69554648230E+03  0.00000000000E+00 0.  1.
         24    2    1    2    0    0  0.59950705896E+03  0.27780073888E+03  0.12798696750E+04  0.14425627186E+04  0.79616880706E+02 0.  0.
        254    2    1    2    0    0 -0.59950705896E+03 -0.27780073888E+03 -0.10535401659E+03  0.11230459045E+04  0.90197043768E+03 0.  0.
         23    2    4    4    0    0 -0.49841602299E+03 -0.17428093572E+03  0.34767698814E+03  0.63884339061E+03  0.91919601373E+02 0.  0.
         23    2    4    4    0    0 -0.10109103598E+03 -0.10351980316E+03 -0.45303100473E+03  0.48420251385E+03  0.90990307044E+02 0.  0.
          2    1    3    3  502    0  0.37722688118E+03  0.19828067343E+03  0.89038952499E+03  0.98712149787E+03  0.00000000000E+00 0. -1.
         -1    1    3    3    0  502  0.22228017779E+03  0.79520065443E+02  0.38948015006E+03  0.45544122072E+03  0.00000000000E+00 0.  1.
         13    1    5    5    0    0 -0.14914584676E+03 -0.58749041958E+02  0.57527693640E+02  0.17030962707E+03  0.00000000000E+00 0. -1.
        -13    1    5    5    0    0 -0.34927017622E+03 -0.11553189376E+03  0.29014929450E+03  0.46853376353E+03  0.00000000000E+00 0.  1.
          2    1    6    6  503    0  0.67308702660E+01 -0.20411343711E+02 -0.15584608631E+03  0.15732110534E+03  0.00000000000E+00 0. -1.
         -2    1    6    6    0  503 -0.10782190624E+03 -0.83108459450E+02 -0.29718491842E+03  0.32688140851E+03  0.00000000000E+00 0.  1.
<mgrwt>
<rscale>  0 0.22809780E+04</rscale>
<asrwt>0</asrwt>
<pdfrwt beam="1">  1        2 0.28770187E+00 0.22809780E+04</pdfrwt>
<pdfrwt beam="2">  1       -1 0.10700715E+00 0.22809780E+04</pdfrwt>
<totfact> 0.66416893E+00</totfact>
</mgrwt>
</event>
<event>
12    7  0.1857704E-007  0.3792465E+04  0.7818608E-02  0.8047774E-01
         -1   -1    0    0    0  501 -0.00000000000E+00  0.00000000000E+00  0.36981200566E+04  0.36981200566E+04  0.00000000000E+00 0.  1.
          2   -1    0    0  501    0  0.00000000000E+00 -0.00000000000E+00 -0.97230440043E+03  0.97230440043E+03  0.00000000000E+00 0. -1.
         24    2    1    2    0    0 -0.24583670685E+03 -0.60635623922E+02 -0.89337234033E+03  0.93192479899E+03  0.79103269062E+02 0.  0.
        254    2    1    2    0    0  0.24583670685E+03  0.60635623922E+02  0.36191879965E+04  0.37384996580E+04  0.90207847434E+03 0.  0.
         23    2    4    4    0    0 -0.29729807166E+03 -0.14835071591E+03  0.14731411690E+04  0.15130217046E+04  0.93250719072E+02 0.  0.
         23    2    4    4    0    0  0.54313477852E+03  0.20898633983E+03  0.21460468275E+04  0.22254779534E+04  0.92544353550E+02 0.  0.
          4    1    3    3  502    0 -0.24745273471E+03 -0.49794960064E+02 -0.82729965588E+03  0.86494919769E+03  0.00000000000E+00 0. -1.
         -3    1    3    3    0  502  0.16160278563E+01 -0.10840663858E+02 -0.66072684448E+02  0.66975601297E+02  0.00000000000E+00 0.  1.
         13    1    5    5    0    0 -0.21655566032E+03 -0.15057756572E+03  0.10899968513E+04  0.11214557919E+04  0.00000000000E+00 0. -1.
        -13    1    5    5    0    0 -0.80742411341E+02  0.22268498143E+01  0.38314431768E+03  0.39156591274E+03  0.00000000000E+00 0.  1.
          4    1    6    6  503    0  0.44431453037E+03  0.18604677878E+03  0.18804803412E+04  0.19411942508E+04  0.00000000000E+00 0. -1.
         -4    1    6    6    0  503  0.98820248141E+02  0.22939561052E+02  0.26556648631E+03  0.28428370259E+03  0.00000000000E+00 0.  1.
<mgrwt>
<rscale>  0 0.37924654E+04</rscale>
<asrwt>0</asrwt>
<pdfrwt beam="1">  1        2 0.14958529E+00 0.37924654E+04</pdfrwt>
<pdfrwt beam="2">  1       -1 0.56894154E+00 0.37924654E+04</pdfrwt>
<totfact> 0.14440201E-02</totfact>
</mgrwt>
</event>
<event>
12    7  0.1857704E-007  0.1649745E+04  0.7818608E-02  0.8790557E-01
          2   -1    0    0  501    0  0.00000000000E+00  0.00000000000E+00  0.43016909337E+03  0.43016909337E+03  0.00000000000E+00 0. -1.
         -3   -1    0    0    0  501 -0.00000000000E+00 -0.00000000000E+00 -0.15817378005E+04  0.15817378005E+04  0.00000000000E+00 0.  1.
         24    2    1    2    0    0  0.32657442341E+03  0.42968030341E+03 -0.25929302481E+03  0.60427262842E+03  0.81464836377E+02 0.  0.
        254    2    1    2    0    0 -0.32657442341E+03 -0.42968030341E+03 -0.89227568228E+03  0.14076342654E+04  0.94551695640E+03 0.  0.
         23    2    4    4    0    0 -0.28572220441E+03  0.24123193403E+03 -0.47403693852E+03  0.61065596928E+03  0.91431229094E+02 0.  0.
         23    2    4    4    0    0 -0.40852219008E+02 -0.67091223744E+03 -0.41823874377E+03  0.79697829615E+03  0.91970775782E+02 0.  0.
          4    1    3    3  502    0  0.12795609080E+03  0.19640811279E+03 -0.72153807858E+02  0.24526532558E+03  0.00000000000E+00 0. -1.
         -3    1    3    3    0  502  0.19861833261E+03  0.23327219063E+03 -0.18713921695E+03  0.35900730284E+03  0.00000000000E+00 0.  1.
         13    1    5    5    0    0 -0.11281339494E+03  0.14076033477E+03 -0.27202192444E+03  0.32639892968E+03  0.00000000000E+00 0. -1.
        -13    1    5    5    0    0 -0.17290880946E+03  0.10047159926E+03 -0.20201501408E+03  0.28425703960E+03  0.00000000000E+00 0.  1.
          2    1    6    6  503    0  0.72220664474E+00  0.30670008962E+01 -0.21869719971E+01  0.38354821668E+01  0.00000000000E+00 0. -1.
         -2    1    6    6    0  503 -0.41574425653E+02 -0.67397923834E+03 -0.41605177177E+03  0.79314281398E+03  0.00000000000E+00 0.  1.
<mgrwt>
<rscale>  0 0.16497451E+04</rscale>
<asrwt>0</asrwt>
<pdfrwt beam="1">  1        2 0.66179860E-01 0.16497451E+04</pdfrwt>
<pdfrwt beam="2">  1       -3 0.24334428E+00 0.16497451E+04</pdfrwt>
<totfact> 0.34907925E+00</totfact>
</mgrwt>
</event>
<event>
12    7  0.1857704E-007  0.3868154E+04  0.7818608E-02  0.8031685E-01
         -1   -1    0    0    0  501 -0.00000000000E+00  0.00000000000E+00  0.28993522469E+04  0.28993522469E+04  0.00000000000E+00 0.  1.
          2   -1    0    0  501    0  0.00000000000E+00 -0.00000000000E+00 -0.12901689515E+04  0.12901689515E+04  0.00000000000E+00 0. -1.
         24    2    1    2    0    0 -0.99005778591E+03  0.59542248556E+03 -0.77425984850E+03  0.13930498198E+04  0.79794309517E+02 0.  0.
        254    2    1    2    0    0  0.99005778591E+03 -0.59542248556E+03  0.23834431439E+04  0.27964713785E+04  0.89705551371E+03 0.  0.
         23    2    4    4    0    0  0.92876600110E+03 -0.79090657863E+03  0.21482874144E+04  0.24720893766E+04  0.89149143654E+02 0.  0.
         23    2    4    4    0    0  0.61291784810E+02  0.19548409307E+03  0.23515572950E+03  0.32438200194E+03  0.89189419422E+02 0.  0.
          2    1    3    3  502    0 -0.94193303849E+03  0.54447233864E+03 -0.72657733425E+03  0.13082823087E+04  0.00000000000E+00 0. -1.
         -1    1    3    3    0  502 -0.48124747417E+02  0.50950146926E+02 -0.47682514250E+02  0.84767511175E+02  0.00000000000E+00 0.  1.
         13    1    5    5    0    0  0.58525299610E+03 -0.48530292695E+03  0.14223598266E+04  0.16128073278E+04  0.00000000000E+00 0.  1.
        -13    1    5    5    0    0  0.34351300500E+03 -0.30560365168E+03  0.72592758785E+03  0.85928204876E+03  0.00000000000E+00 0. -1.
          2    1    6    6  503    0  0.34016141232E+02  0.14603743972E+03  0.21941723396E+03  0.26575920346E+03  0.00000000000E+00 0. -1.
         -2    1    6    6    0  503  0.27275643578E+02  0.49446653348E+02  0.15738495544E+02  0.58622798482E+02  0.00000000000E+00 0.  1.
<mgrwt>
<rscale>  0 0.38681542E+04</rscale>
<asrwt>0</asrwt>
<pdfrwt beam="1">  1        2 0.19848753E+00 0.38681542E+04</pdfrwt>
<pdfrwt beam="2">  1       -1 0.44605419E+00 0.38681542E+04</pdfrwt>
<totfact> 0.52403956E-02</totfact>
</mgrwt>
</event>
<event>
12    7  0.1857704E-007  0.2833300E+04  0.7818608E-02  0.8293004E-01
          2   -1    0    0  501    0  0.00000000000E+00  0.00000000000E+00  0.75812960491E+03  0.75812960491E+03  0.00000000000E+00 0. -1.
         -1   -1    0    0    0  501 -0.00000000000E+00 -0.00000000000E+00 -0.26471682215E+04  0.26471682215E+04  0.00000000000E+00 0.  1.
         24    2    1    2    0    0 -0.27659129129E+03  0.42453945937E+03 -0.22523305621E+04  0.23100918351E+04  0.82430762231E+02 0.  0.
        254    2    1    2    0    0  0.27659129129E+03 -0.42453945937E+03  0.36329194556E+03  0.10952059913E+04  0.90042136284E+03 0.  0.
         23    2    4    4    0    0  0.91940796877E+02 -0.48941156465E+03 -0.15846540503E+03  0.53035827737E+03  0.90508717991E+02 0.  0.
         23    2    4    4    0    0  0.18465049442E+03  0.64872105282E+02  0.52175735059E+03  0.56484771392E+03  0.92293076073E+02 0.  0.
          2    1    3    3  502    0 -0.19514593351E+03  0.22704643338E+03 -0.12727842202E+04  0.13075212004E+04  0.00000000000E+00 0. -1.
         -1    1    3    3    0  502 -0.81445357779E+02  0.19749302599E+03 -0.97954634189E+03  0.10025706347E+04  0.00000000000E+00 0.  1.
         13    1    5    5    0    0  0.39986495414E+02 -0.12964906228E+03 -0.83197160570E+02  0.15915265217E+03  0.00000000000E+00 0.  1.
        -13    1    5    5    0    0  0.51954301463E+02 -0.35976250237E+03 -0.75268244465E+02  0.37120562519E+03  0.00000000000E+00 0. -1.
          2    1    6    6  503    0  0.18191481879E+03  0.81340667946E+02  0.48999340851E+03  0.52896393633E+03  0.00000000000E+00 0. -1.
         -2    1    6    6    0  503  0.27356756291E+01 -0.16468562664E+02  0.31763942081E+02  0.35883777587E+02  0.00000000000E+00 0.  1.
<mgrwt>
<rscale>  0 0.28332996E+04</rscale>
<asrwt>0</asrwt>
<pdfrwt beam="1">  1        2 0.11663532E+00 0.28332996E+04</pdfrwt>
<pdfrwt beam="2">  1       -1 0.40725666E+00 0.28332996E+04</pdfrwt>
<totfact> 0.23329533E-01</totfact>
</mgrwt>
</event>
<event>
12    7  0.1857704E-007  0.1173112E+04  0.7818608E-02  0.9136722E-01
          4   -1    0    0  501    0  0.00000000000E+00  0.00000000000E+00  0.17736748478E+04  0.17736748478E+04  0.00000000000E+00 0. -1.
         -3   -1    0    0    0  501 -0.00000000000E+00 -0.00000000000E+00 -0.19397471744E+03  0.19397471744E+03  0.00000000000E+00 0.  1.
         24    2    1    2    0    0 -0.20070788992E+03  0.43512050543E+02  0.15220545623E+03  0.26908598505E+03  0.84046480129E+02 0.  0.
        254    2    1    2    0    0  0.20070788992E+03 -0.43512050543E+02  0.14274946741E+04  0.16985635802E+04  0.89732950227E+03 0.  0.
         23    2    4    4    0    0  0.37451208044E+03  0.21346598796E+03  0.12598125319E+04  0.13346240352E+04  0.90921248157E+02 0.  0.
         23    2    4    4    0    0 -0.17380419052E+03 -0.25697803850E+03  0.16768214224E+03  0.36393954500E+03  0.89939327754E+02 0.  0.
          4    1    3    3  502    0 -0.12327374364E+03  0.23849767560E+02  0.14035413873E+03  0.18832023668E+03  0.00000000000E+00 0. -1.
         -3    1    3    3    0  502 -0.77434146285E+02  0.19662282982E+02  0.11851317497E+02  0.80765748368E+02  0.00000000000E+00 0.  1.
         13    1    5    5    0    0 -0.98585933724E+00 -0.17565647188E+01  0.44489494775E+02  0.44535071388E+02  0.00000000000E+00 0.  1.
        -13    1    5    5    0    0  0.37549793978E+03  0.21522255267E+03  0.12153230371E+04  0.12900889638E+04  0.00000000000E+00 0. -1.
          1    1    6    6  503    0 -0.90922421439E+02 -0.20133452539E+03  0.95092341113E+02  0.24050993986E+03  0.00000000000E+00 0. -1.
         -1    1    6    6    0  503 -0.82881769082E+02 -0.55643513107E+02  0.72589801123E+02  0.12342960514E+03  0.00000000000E+00 0.  1.
<mgrwt>
<rscale>  0 0.11731122E+04</rscale>
<asrwt>0</asrwt>
<pdfrwt beam="1">  1        4 0.27287304E+00 0.11731122E+04</pdfrwt>
<pdfrwt beam="2">  1       -3 0.29842265E-01 0.11731122E+04</pdfrwt>
<totfact> 0.11371251E+00</totfact>
</mgrwt>
</event>
<event>
12    7  0.2207885E-007  0.1883774E+04  0.7818608E-02  0.8662976E-01
         -1   -1    0    0    0  501 -0.00000000000E+00  0.00000000000E+00  0.42491973388E+03  0.42491973388E+03  0.00000000000E+00 0.  1.
          2   -1    0    0  501    0  0.00000000000E+00 -0.00000000000E+00 -0.20878082582E+04  0.20878082582E+04  0.00000000000E+00 0. -1.
         24    2    1    2    0    0  0.19128649674E+03  0.14251411036E+03  0.26993558732E+03  0.36912785990E+03  0.80556565021E+02 0.  0.
        254    2    1    2    0    0 -0.19128649674E+03 -0.14251411036E+03 -0.19328241117E+04  0.21436001322E+04  0.89571852981E+03 0.  0.
         23    2    4    4    0    0  0.20384366026E+03  0.69178427955E+02 -0.14848713590E+04  0.15031188060E+04  0.90472645587E+02 0.  0.
         23    2    4    4    0    0 -0.39513015700E+03 -0.21169253831E+03 -0.44795275270E+03  0.64048132618E+03  0.92806728156E+02 0.  0.
          2    1    3    3  502    0 -0.30912263135E+01 -0.27323842048E+01 -0.20730859428E+01  0.46172815476E+01  0.00000000000E+00 0. -1.
         -1    1    3    3    0  502  0.19437772305E+03  0.14524649456E+03  0.27200867327E+03  0.36451057836E+03  0.00000000000E+00 0.  1.
         13    1    5    5    0    0  0.10473382512E+03  0.32027030461E+00 -0.88908781918E+03  0.89523540307E+03  0.00000000000E+00 0. -1.
        -13    1    5    5    0    0  0.99109835139E+02  0.68858157650E+02 -0.59578353979E+03  0.60788340295E+03  0.00000000000E+00 0.  1.
          1    1    6    6  503    0 -0.16372803576E+02  0.97240484275E+01 -0.18452424081E+02  0.26516367949E+02  0.00000000000E+00 0. -1.
         -1    1    6    6    0  503 -0.37875735342E+03 -0.22141658674E+03 -0.42950032862E+03  0.61396495823E+03  0.00000000000E+00 0.  1.
<mgrwt>
<rscale>  0 0.18837738E+04</rscale>
<asrwt>0</asrwt>
<pdfrwt beam="1">  1        2 0.32120127E+00 0.18837738E+04</pdfrwt>
<pdfrwt beam="2">  1       -1 0.65372268E-01 0.18837738E+04</pdfrwt>
<totfact> 0.15119662E+01</totfact>
</mgrwt>
</event>
<event>
12    7  0.1857704E-007  0.1195991E+04  0.7818608E-02  0.9116372E-01
         -1   -1    0    0    0  501 -0.00000000000E+00  0.00000000000E+00  0.20518534035E+03  0.20518534035E+03  0.00000000000E+00 0.  1.
          2   -1    0    0  501    0  0.00000000000E+00 -0.00000000000E+00 -0.17428090306E+04  0.17428090306E+04  0.00000000000E+00 0. -1.
         24    2    1    2    0    0 -0.20065103971E+03 -0.63696314571E+01 -0.82557599673E+02  0.23142397474E+03  0.80248905780E+02 0.  0.
        254    2    1    2    0    0  0.20065103971E+03  0.63696314571E+01 -0.14550660906E+04  0.17165703962E+04  0.88831029783E+03 0.  0.
         23    2    4    4    0    0 -0.78892574880E+02  0.39716325523E+03 -0.77293480629E+03  0.87696611452E+03  0.87627972520E+02 0.  0.
         23    2    4    4    0    0  0.27954361459E+03 -0.39079362377E+03 -0.68213128426E+03  0.83960428166E+03  0.93637449660E+02 0.  0.
          4    1    3    3  502    0 -0.68188408818E+01  0.42306376828E+01 -0.28942173351E+02  0.30034052082E+02  0.00000000000E+00 0. -1.
         -3    1    3    3    0  502 -0.19383219882E+03 -0.10600269140E+02 -0.53615426322E+02  0.20138992265E+03  0.00000000000E+00 0.  1.
         13    1    5    5    0    0  0.88094828179E+01  0.63247062769E+02 -0.17809348945E+03  0.18919590091E+03  0.00000000000E+00 0. -1.
        -13    1    5    5    0    0 -0.87702057698E+02  0.33391619246E+03 -0.59484131684E+03  0.68777021361E+03  0.00000000000E+00 0.  1.
          1    1    6    6  503    0  0.38944309212E+02 -0.35911659590E+02 -0.35597376831E+02  0.63823818060E+02  0.00000000000E+00 0. -1.
         -1    1    6    6    0  503  0.24059930537E+03 -0.35488196418E+03 -0.64653390743E+03  0.77578046360E+03  0.00000000000E+00 0.  1.
<mgrwt>
<rscale>  0 0.11959914E+04</rscale>
<asrwt>0</asrwt>
<pdfrwt beam="1">  1        2 0.26812446E+00 0.11959914E+04</pdfrwt>
<pdfrwt beam="2">  1       -1 0.31566976E-01 0.11959914E+04</pdfrwt>
<totfact> 0.97371742E+01</totfact>
</mgrwt>
</event>
<event>
12    7  0.1857704E-007  0.1722384E+04  0.7818608E-02  0.8748700E-01
         -1   -1    0    0    0  501 -0.00000000000E+00  0.00000000000E+00  0.87343242587E+03  0.87343242587E+03  0.00000000000E+00 0.  1.
          2   -1    0    0  501    0  0.00000000000E+00 -0.00000000000E+00 -0.84912307229E+03  0.84912307229E+03  0.00000000000E+00 0. -1.
         24    2    1    2    0    0 -0.32535498484E+02 -0.47066390211E+02 -0.61311578207E+03  0.62095404397E+03  0.79994741987E+02 0.  0.
        254    2    1    2    0    0  0.32535498484E+02  0.47066390211E+02  0.63742513566E+03  0.11016014542E+04  0.89662765771E+03 0.  0.
         23    2    4    4    0    0  0.28027192894E+03 -0.22367384582E+03  0.11119037021E+02  0.37023374447E+03  0.91471575387E+02 0.  0.
         23    2    4    4    0    0 -0.24773643045E+03  0.27074023603E+03  0.62630609863E+03  0.73136770973E+03  0.89251236777E+02 0.  0.
          2    1    3    3  502    0 -0.13328441213E+02 -0.59145984949E+02 -0.25453809876E+03  0.26165920316E+03  0.00000000000E+00 0. -1.
         -1    1    3    3    0  502 -0.19207057271E+02  0.12079594738E+02 -0.35857768332E+03  0.35929484081E+03  0.00000000000E+00 0.  1.
         13    1    5    5    0    0  0.10033467315E+03 -0.13638522598E+03  0.16906842229E+02  0.17015821407E+03  0.00000000000E+00 0. -1.
        -13    1    5    5    0    0  0.17993725579E+03 -0.87288619839E+02 -0.57878052084E+01  0.20007553040E+03  0.00000000000E+00 0.  1.
          3    1    6    6  503    0 -0.19299774774E+03  0.25205691944E+03  0.55681453717E+03  0.64095495167E+03  0.00000000000E+00 0. -1.
         -3    1    6    6    0  503 -0.54738682714E+02  0.18683316583E+02  0.69491561465E+02  0.90412758052E+02  0.00000000000E+00 0.  1.
<mgrwt>
<rscale>  0 0.17223840E+04</rscale>
<asrwt>0</asrwt>
<pdfrwt beam="1">  1        2 0.13063432E+00 0.17223840E+04</pdfrwt>
<pdfrwt beam="2">  1       -1 0.13437422E+00 0.17223840E+04</pdfrwt>
<totfact> 0.16066140E+01</totfact>
</mgrwt>
</event>
<event>
12    7  0.1857704E-007  0.1759965E+04  0.7818608E-02  0.8727884E-01
          2   -1    0    0  501    0  0.00000000000E+00  0.00000000000E+00  0.50668250721E+03  0.50668250721E+03  0.00000000000E+00 0. -1.
         -1   -1    0    0    0  501 -0.00000000000E+00 -0.00000000000E+00 -0.15283129483E+04  0.15283129483E+04  0.00000000000E+00 0.  1.
         24    2    1    2    0    0 -0.27048686485E+03  0.58490935251E+03 -0.60954016296E+03  0.89061047904E+03  0.79785464905E+02 0.  0.
        254    2    1    2    0    0  0.27048686485E+03 -0.58490935251E+03 -0.41209027814E+03  0.11443849765E+04  0.85118533958E+03 0.  0.
         23    2    4    4    0    0 -0.10956307439E+03 -0.16106867469E+03 -0.51583730045E+03  0.55871822759E+03  0.90170682965E+02 0.  0.
         23    2    4    4    0    0  0.38004993924E+03 -0.42384067782E+03  0.10374702231E+03  0.58566674888E+03  0.90350537414E+02 0.  0.
          2    1    3    3  502    0 -0.22858535614E+03  0.54530490314E+03 -0.54604438910E+03  0.80484357319E+03  0.00000000000E+00 0. -1.
         -1    1    3    3    0  502 -0.41901508717E+02  0.39604449369E+02 -0.63495773859E+02  0.85766905859E+02  0.00000000000E+00 0.  1.
         13    1    5    5    0    0 -0.50748037827E+02 -0.38023468182E+02 -0.80248862286E+02  0.10227916393E+03  0.00000000000E+00 0. -1.
        -13    1    5    5    0    0 -0.58815036561E+02 -0.12304520651E+03 -0.43558843816E+03  0.45643906366E+03  0.00000000000E+00 0.  1.
          2    1    6    6  503    0  0.64788985242E+02 -0.12679814712E+03  0.11960411285E+02  0.14289308647E+03  0.00000000000E+00 0. -1.
         -2    1    6    6    0  503  0.31526095400E+03 -0.29704253070E+03  0.91786611023E+02  0.44277366241E+03  0.00000000000E+00 0.  1.
<mgrwt>
<rscale>  0 0.17599653E+04</rscale>
<asrwt>0</asrwt>
<pdfrwt beam="1">  1        2 0.77951157E-01 0.17599653E+04</pdfrwt>
<pdfrwt beam="2">  1       -1 0.23512506E+00 0.17599653E+04</pdfrwt>
<totfact> 0.57287696E+00</totfact>
</mgrwt>
</event>
<event>
12    7  0.1857704E-007  0.1300993E+04  0.7818608E-02  0.9028778E-01
         -1   -1    0    0    0  501 -0.00000000000E+00  0.00000000000E+00  0.39105159419E+03  0.39105159419E+03  0.00000000000E+00 0.  1.
          2   -1    0    0  501    0  0.00000000000E+00 -0.00000000000E+00 -0.10820718978E+04  0.10820718978E+04  0.00000000000E+00 0. -1.
         24    2    1    2    0    0 -0.11811532523E+03 -0.32951828769E+02  0.15698436468E+03  0.21445558553E+03  0.79435850453E+02 0.  0.
        254    2    1    2    0    0  0.11811532523E+03  0.32951828769E+02 -0.84800466829E+03  0.12586679065E+04  0.92200646865E+03 0.  0.
         23    2    4    4    0    0 -0.22485183645E+03  0.35941748194E+03 -0.51236187839E+03  0.67092378459E+03  0.88796146452E+02 0.  0.
         23    2    4    4    0    0  0.34296716168E+03 -0.32646565317E+03 -0.33564278990E+03  0.58774412186E+03  0.92632465630E+02 0.  0.
          2    1    3    3  502    0 -0.52818109666E+02 -0.55839194999E+02  0.79746196959E+02  0.11075750239E+03  0.00000000000E+00 0. -1.
         -1    1    3    3    0  502 -0.65297215562E+02  0.22887366230E+02  0.77238167724E+02  0.10369808314E+03  0.00000000000E+00 0.  1.
         13    1    5    5    0    0 -0.76585222898E+02  0.13545856677E+03 -0.25625848567E+03  0.29980448822E+03  0.00000000000E+00 0. -1.
        -13    1    5    5    0    0 -0.14826661356E+03  0.22395891517E+03 -0.25610339272E+03  0.37111929637E+03  0.00000000000E+00 0.  1.
          1    1    6    6  503    0  0.14777220242E+03 -0.15142490586E+03 -0.95237651142E+02  0.23202658494E+03  0.00000000000E+00 0. -1.
         -1    1    6    6    0  503  0.19519495926E+03 -0.17504074731E+03 -0.24040513875E+03  0.35571753693E+03  0.00000000000E+00 0.  1.
<mgrwt>
<rscale>  0 0.13009934E+04</rscale>
<asrwt>0</asrwt>
<pdfrwt beam="1">  1        2 0.16647260E+00 0.13009934E+04</pdfrwt>
<pdfrwt beam="2">  1       -1 0.60161784E-01 0.13009934E+04</pdfrwt>
<totfact> 0.69993916E+01</totfact>
</mgrwt>
</event>
<event>
12    7  0.1857704E-007  0.1874229E+04  0.7818608E-02  0.8667791E-01
          2   -1    0    0  501    0  0.00000000000E+00  0.00000000000E+00  0.18492278299E+04  0.18492278299E+04  0.00000000000E+00 0. -1.
         -1   -1    0    0    0  501 -0.00000000000E+00 -0.00000000000E+00 -0.47489226848E+03  0.47489226848E+03  0.00000000000E+00 0.  1.
         24    2    1    2    0    0  0.58888223316E+03 -0.33322743313E+03  0.83697822094E+03  0.10792349324E+04  0.79954300717E+02 0.  0.
        254    2    1    2    0    0 -0.58888223316E+03  0.33322743313E+03  0.53735734051E+03  0.12448851660E+04  0.89619381748E+03 0.  0.
         23    2    4    4    0    0 -0.92449228754E+02  0.55390930177E+03  0.23065003622E+03  0.61407248058E+03  0.92321166131E+02 0.  0.
         23    2    4    4    0    0 -0.49643300440E+03 -0.22068186864E+03  0.30670730429E+03  0.63081268545E+03  0.93322337150E+02 0.  0.
          4    1    3    3  502    0  0.50843195188E+03 -0.27797157006E+03  0.66991730633E+03  0.88575416498E+03  0.00000000000E+00 0. -1.
         -3    1    3    3    0  502  0.80450281280E+02 -0.55255863079E+02  0.16706091461E+03  0.19348076740E+03  0.00000000000E+00 0.  1.
         13    1    5    5    0    0 -0.23134309501E+02  0.64254507453E+02  0.60044974305E+02  0.90935344852E+02  0.00000000000E+00 0.  1.
        -13    1    5    5    0    0 -0.69314919253E+02  0.48965479432E+03  0.17060506191E+03  0.52313713573E+03  0.00000000000E+00 0. -1.
          2    1    6    6  503    0 -0.19099423443E+03 -0.13493440138E+03  0.13701736166E+03  0.27103477204E+03  0.00000000000E+00 0. -1.
         -2    1    6    6    0  503 -0.30543876997E+03 -0.85747467262E+02  0.16968994263E+03  0.35977791341E+03  0.00000000000E+00 0.  1.
<mgrwt>
<rscale>  0 0.18742294E+04</rscale>
<asrwt>0</asrwt>
<pdfrwt beam="1">  1        2 0.28449659E+00 0.18742294E+04</pdfrwt>
<pdfrwt beam="2">  1       -1 0.73060350E-01 0.18742294E+04</pdfrwt>
<totfact> 0.16353072E+01</totfact>
</mgrwt>
</event>
<event>
12    7  0.1857704E-007  0.2116817E+04  0.7818608E-02  0.8553871E-01
          2   -1    0    0  501    0  0.00000000000E+00  0.00000000000E+00  0.11880348278E+04  0.11880348278E+04  0.00000000000E+00 0. -1.
         -1   -1    0    0    0  501 -0.00000000000E+00 -0.00000000000E+00 -0.94292582291E+03  0.94292582291E+03  0.00000000000E+00 0.  1.
         24    2    1    2    0    0  0.59313113162E+03  0.31209591730E+03 -0.44336665930E+03  0.80756197351E+03  0.79836993810E+02 0.  0.
        254    2    1    2    0    0 -0.59313113162E+03 -0.31209591730E+03  0.68847566416E+03  0.13233986772E+04  0.91004226148E+03 0.  0.
         23    2    4    4    0    0 -0.73477956642E+03 -0.41389353272E+03  0.32173726110E+03  0.90756386475E+03  0.94596172019E+02 0.  0.
         23    2    4    4    0    0  0.14164843480E+03  0.10179761542E+03  0.36673840307E+03  0.41583481242E+03  0.89411975431E+02 0.  0.
          2    1    3    3  502    0  0.57882937238E+03  0.31678870022E+03 -0.43514275952E+03  0.79040985829E+03  0.00000000000E+00 0. -1.
         -1    1    3    3    0  502  0.14301759243E+02 -0.46927829168E+01 -0.82238997859E+01  0.17152115224E+02  0.00000000000E+00 0.  1.
         13    1    5    5    0    0 -0.24902321623E+03 -0.17476308750E+03  0.79663846425E+02  0.31448533734E+03  0.00000000000E+00 0.  1.
        -13    1    5    5    0    0 -0.48575635019E+03 -0.23913044522E+03  0.24207341467E+03  0.59307852740E+03  0.00000000000E+00 0. -1.
          2    1    6    6  503    0  0.12127054500E+03  0.60934395924E+02  0.19131261929E+03  0.23456356066E+03  0.00000000000E+00 0. -1.
         -2    1    6    6    0  503  0.20377889801E+02  0.40863219497E+02  0.17542578378E+03  0.18127125176E+03  0.00000000000E+00 0.  1.
<mgrwt>
<rscale>  0 0.21168172E+04</rscale>
<asrwt>0</asrwt>
<pdfrwt beam="1">  1        2 0.18277459E+00 0.21168172E+04</pdfrwt>
<pdfrwt beam="2">  1       -1 0.14506551E+00 0.21168172E+04</pdfrwt>
<totfact> 0.77108154E+00</totfact>
</mgrwt>
</event>
<event>
12    7  0.1857704E-007  0.1387699E+04  0.7818608E-02  0.8962771E-01
         -1   -1    0    0    0  501 -0.00000000000E+00  0.00000000000E+00  0.51500951602E+03  0.51500951602E+03  0.00000000000E+00 0.  1.
          2   -1    0    0  501    0  0.00000000000E+00 -0.00000000000E+00 -0.93479249508E+03  0.93479249508E+03  0.00000000000E+00 0. -1.
         24    2    1    2    0    0  0.77490495865E+02  0.57583769159E+02  0.28426836500E+03  0.31060514343E+03  0.79664197485E+02 0.  0.
        254    2    1    2    0    0 -0.77490495865E+02 -0.57583769159E+02 -0.70405134407E+03  0.11391968677E+04  0.89037101301E+03 0.  0.
         23    2    4    4    0    0  0.34426761338E+03 -0.15916761768E+03 -0.12234440036E+03  0.40785374357E+03  0.86729485766E+02 0.  0.
         23    2    4    4    0    0 -0.42175810924E+03  0.10158384852E+03 -0.58170694371E+03  0.73134312411E+03  0.90997889133E+02 0.  0.
          2    1    3    3  502    0  0.87967989128E+00  0.39566332635E+02  0.51879396037E+02  0.65251362040E+02  0.00000000000E+00 0. -1.
         -1    1    3    3    0  502  0.76610815974E+02  0.18017436524E+02  0.23238896897E+03  0.24535378139E+03  0.00000000000E+00 0.  1.
         13    1    5    5    0    0  0.30655492577E+03 -0.12376779874E+03 -0.77884107142E+02  0.33964735339E+03  0.00000000000E+00 0.  1.
        -13    1    5    5    0    0  0.37712687606E+02 -0.35399818942E+02 -0.44460293219E+02  0.68206390174E+02  0.00000000000E+00 0. -1.
          4    1    6    6  503    0 -0.10963879582E+02 -0.11874273011E+02 -0.13409245320E+02  0.21000306547E+02  0.00000000000E+00 0. -1.
         -4    1    6    6    0  503 -0.41079422966E+03  0.11345812154E+03 -0.56829769839E+03  0.71034281756E+03  0.00000000000E+00 0.  1.
<mgrwt>
<rscale>  0 0.13876989E+04</rscale>
<asrwt>0</asrwt>
<pdfrwt beam="1">  1        2 0.14381423E+00 0.13876989E+04</pdfrwt>
<pdfrwt beam="2">  1       -1 0.79232234E-01 0.13876989E+04</pdfrwt>
<totfact> 0.49198448E+01</totfact>
</mgrwt>
</event>
<event>
12    7  0.1857704E-007  0.1734468E+04  0.7818608E-02  0.8741947E-01
          2   -1    0    0  501    0  0.00000000000E+00  0.00000000000E+00  0.18914839086E+04  0.18914839086E+04  0.00000000000E+00 0. -1.
         -1   -1    0    0    0  501 -0.00000000000E+00 -0.00000000000E+00 -0.39762148221E+03  0.39762148221E+03  0.00000000000E+00 0.  1.
         24    2    1    2    0    0  0.46572133499E+03 -0.24790152459E+03  0.10173618066E+04  0.11486273781E+04  0.77254646582E+02 0.  0.
        254    2    1    2    0    0 -0.46572133499E+03  0.24790152459E+03  0.47650061978E+03  0.11404780127E+04  0.89178793951E+03 0.  0.
         23    2    4    4    0    0  0.21037362020E+03  0.26938277583E+03  0.15367373617E+03  0.38579969167E+03  0.91660487185E+02 0.  0.
         23    2    4    4    0    0 -0.67609495520E+03 -0.21481251236E+02  0.32282688361E+03  0.75467832104E+03  0.88070079317E+02 0.  0.
          4    1    3    3  502    0  0.45237426541E+03 -0.24197707874E+03  0.94972126522E+03  0.10794284896E+04  0.00000000000E+00 0. -1.
         -3    1    3    3    0  502  0.13347069586E+02 -0.59244458541E+01  0.67640541374E+02  0.69198888449E+02  0.00000000000E+00 0.  1.
         13    1    5    5    0    0  0.12858867615E+03  0.91274866514E+02  0.74887043765E+02  0.17456866333E+03  0.00000000000E+00 0.  1.
        -13    1    5    5    0    0  0.81784944052E+02  0.17810790931E+03  0.78786692407E+02  0.21123102834E+03  0.00000000000E+00 0. -1.
          4    1    6    6  503    0 -0.23477989388E+02  0.47237420039E+01  0.31343264439E+02  0.39445277916E+02  0.00000000000E+00 0. -1.
         -4    1    6    6    0  503 -0.65261696581E+03 -0.26204993240E+02  0.29148361917E+03  0.71523304313E+03  0.00000000000E+00 0.  1.
<mgrwt>
<rscale>  0 0.17344678E+04</rscale>
<asrwt>0</asrwt>
<pdfrwt beam="1">  1        2 0.29099752E+00 0.17344678E+04</pdfrwt>
<pdfrwt beam="2">  1       -1 0.61172537E-01 0.17344678E+04</pdfrwt>
<totfact> 0.22487870E+01</totfact>
</mgrwt>
</event>
<event>
12    7  0.1857704E-007  0.1435652E+04  0.7818608E-02  0.8928408E-01
         -1   -1    0    0    0  501 -0.00000000000E+00  0.00000000000E+00  0.31853443416E+03  0.31853443416E+03  0.00000000000E+00 0.  1.
          2   -1    0    0  501    0  0.00000000000E+00 -0.00000000000E+00 -0.16176414908E+04  0.16176414908E+04  0.00000000000E+00 0. -1.
         24    2    1    2    0    0 -0.40281202296E+03 -0.82024929289E+02 -0.22040692000E+03  0.47331036195E+03  0.80360895224E+02 0.  0.
        254    2    1    2    0    0  0.40281202296E+03  0.82024929289E+02 -0.10787001366E+04  0.14628655630E+04  0.89855219980E+03 0.  0.
         23    2    4    4    0    0 -0.16747130169E+03  0.23322153527E+03 -0.68404937236E+03  0.74738110444E+03  0.90642429620E+02 0.  0.
         23    2    4    4    0    0  0.57028332465E+03 -0.15119660598E+03 -0.39465076424E+03  0.71548445853E+03  0.89918299879E+02 0.  0.
          2    1    3    3  502    0 -0.40528021045E+03 -0.78642289857E+02 -0.21239877683E+03  0.46427351759E+03  0.00000000000E+00 0. -1.
         -1    1    3    3    0  502  0.24681874884E+01 -0.33826394324E+01 -0.80081431716E+01  0.90368443643E+01  0.00000000000E+00 0.  1.
         13    1    5    5    0    0 -0.75676127699E+01 -0.63000277644E+01 -0.85074814125E+01  0.13012930218E+02  0.00000000000E+00 0. -1.
        -13    1    5    5    0    0 -0.15990368892E+03  0.23952156303E+03 -0.67554189095E+03  0.73436817422E+03  0.00000000000E+00 0.  1.
          3    1    6    6  503    0  0.20719171956E+03 -0.33592484207E+02 -0.18632813171E+03  0.28066890871E+03  0.00000000000E+00 0. -1.
         -3    1    6    6    0  503  0.36309160509E+03 -0.11760412177E+03 -0.20832263253E+03  0.43481554982E+03  0.00000000000E+00 0.  1.
<mgrwt>
<rscale>  0 0.14356525E+04</rscale>
<asrwt>0</asrwt>
<pdfrwt beam="1">  1        2 0.24886792E+00 0.14356525E+04</pdfrwt>
<pdfrwt beam="2">  1       -1 0.49005297E-01 0.14356525E+04</pdfrwt>
<totfact> 0.50279806E+01</totfact>
</mgrwt>
</event>
<event>
12    7  0.1857704E-007  0.1162640E+04  0.7818608E-02  0.9146201E-01
          2   -1    0    0  501    0  0.00000000000E+00  0.00000000000E+00  0.80295470302E+03  0.80295470302E+03  0.00000000000E+00 0. -1.
         -1   -1    0    0    0  501 -0.00000000000E+00 -0.00000000000E+00 -0.42086154449E+03  0.42086154449E+03  0.00000000000E+00 0.  1.
         24    2    1    2    0    0 -0.22279057627E+02 -0.19167559527E+03  0.22318675920E+03  0.30551114326E+03  0.79302200116E+02 0.  0.
        254    2    1    2    0    0  0.22279057627E+02  0.19167559527E+03  0.15890639933E+03  0.91830510426E+03  0.88362725768E+03 0.  0.
         23    2    4    4    0    0 -0.28274660816E+03  0.15094222190E+03 -0.23672752614E+03  0.40887805921E+03  0.91717756695E+02 0.  0.
         23    2    4    4    0    0  0.30502566578E+03  0.40733373369E+02  0.39563392547E+03  0.50942704505E+03  0.91048595533E+02 0.  0.
          4    1    3    3  502    0 -0.21728104023E+02 -0.15169569715E+03  0.11933440684E+03  0.19422769034E+03  0.00000000000E+00 0. -1.
         -3    1    3    3    0  502 -0.55095360437E+00 -0.39979898115E+02  0.10385235236E+03  0.11128345292E+03  0.00000000000E+00 0.  1.
         13    1    5    5    0    0 -0.12595994643E+03  0.90431577308E+02 -0.63600998947E+02  0.16759733096E+03  0.00000000000E+00 0.  1.
        -13    1    5    5    0    0 -0.15678666173E+03  0.60510644588E+02 -0.17312652719E+03  0.24128072825E+03  0.00000000000E+00 0. -1.
          1    1    6    6  503    0  0.19310569298E+03  0.33164292261E+02  0.31616606732E+03  0.37195518690E+03  0.00000000000E+00 0. -1.
         -1    1    6    6    0  503  0.11191997281E+03  0.75690811085E+01  0.79467858157E+02  0.13747185815E+03  0.00000000000E+00 0.  1.
<mgrwt>
<rscale>  0 0.11626397E+04</rscale>
<asrwt>0</asrwt>
<pdfrwt beam="1">  1        2 0.12353149E+00 0.11626397E+04</pdfrwt>
<pdfrwt beam="2">  1       -1 0.64747930E-01 0.11626397E+04</pdfrwt>
<totfact> 0.93625453E+01</totfact>
</mgrwt>
</event>
<event>
12    7  0.1857704E-007  0.3913362E+04  0.7818608E-02  0.8022256E-01
         -1   -1    0    0    0  501 -0.00000000000E+00  0.00000000000E+00  0.29256367370E+04  0.29256367370E+04  0.00000000000E+00 0.  1.
          2   -1    0    0  501    0  0.00000000000E+00 -0.00000000000E+00 -0.13086381684E+04  0.13086381684E+04  0.00000000000E+00 0. -1.
         24    2    1    2    0    0  0.60798995617E+03  0.11350327003E+04  0.22057986353E+04  0.25553285460E+04  0.78773987661E+02 0.  0.
        254    2    1    2    0    0 -0.60798995617E+03 -0.11350327003E+04 -0.58880006666E+03  0.16789463594E+04  0.90234380467E+03 0.  0.
         23    2    4    4    0    0  0.15993893544E+03 -0.48752331070E+03 -0.23092374633E+02  0.52212283436E+03  0.93912485069E+02 0.  0.
         23    2    4    4    0    0 -0.76792889161E+03 -0.64750938956E+03 -0.56570769202E+03  0.11568235250E+04  0.96084770697E+02 0.  0.
          4    1    3    3  502    0  0.12769017045E+03  0.22222448321E+03  0.38084126221E+03  0.45905181360E+03  0.00000000000E+00 0. -1.
         -3    1    3    3    0  502  0.48029978572E+03  0.91280821704E+03  0.18249573731E+04  0.20962767324E+04  0.00000000000E+00 0.  1.
         13    1    5    5    0    0  0.13864566828E+03 -0.27692817410E+03 -0.58302104676E+01  0.30975123292E+03  0.00000000000E+00 0. -1.
        -13    1    5    5    0    0  0.21293267154E+02 -0.21059513660E+03 -0.17262164165E+02  0.21237160144E+03  0.00000000000E+00 0.  1.
          1    1    6    6  503    0 -0.16387463939E+03 -0.19247392236E+03 -0.13912312437E+03  0.28854176814E+03  0.00000000000E+00 0. -1.
         -1    1    6    6    0  503 -0.60405425221E+03 -0.45503546719E+03 -0.42658456765E+03  0.86828175691E+03  0.00000000000E+00 0.  1.
<mgrwt>
<rscale>  0 0.39133617E+04</rscale>
<asrwt>0</asrwt>
<pdfrwt beam="1">  1        2 0.20132895E+00 0.39133617E+04</pdfrwt>
<pdfrwt beam="2">  1       -1 0.45009796E+00 0.39133617E+04</pdfrwt>
<totfact> 0.47769138E-02</totfact>
</mgrwt>
</event>
<event>
12    7  0.1857704E-007  0.1388418E+04  0.7818608E-02  0.8962245E-01
          2   -1    0    0  501    0  0.00000000000E+00  0.00000000000E+00  0.69533359144E+03  0.69533359144E+03  0.00000000000E+00 0. -1.
         -1   -1    0    0    0  501 -0.00000000000E+00 -0.00000000000E+00 -0.69308621047E+03  0.69308621047E+03  0.00000000000E+00 0.  1.
         24    2    1    2    0    0 -0.65234574860E+02 -0.36174032949E+03 -0.15857053586E+03  0.40828778060E+03  0.80266314284E+02 0.  0.
        254    2    1    2    0    0  0.65234574860E+02  0.36174032949E+03  0.16081791682E+03  0.98013202131E+03  0.89425094973E+03 0.  0.
         23    2    4    4    0    0 -0.23271175760E+03  0.45676838764E+03  0.32734934840E+03  0.61484002862E+03  0.89880714413E+02 0.  0.
         23    2    4    4    0    0  0.29794633246E+03 -0.95028058154E+02 -0.16653143158E+03  0.36529199269E+03  0.88899793915E+02 0.  0.
          4    1    3    3  502    0 -0.14481911478E+02 -0.95850903329E+01  0.28322841231E+01  0.17596066324E+02  0.00000000000E+00 0. -1.
         -3    1    3    3    0  502 -0.50752663382E+02 -0.35215523916E+03 -0.16140281998E+03  0.39069171428E+03  0.00000000000E+00 0.  1.
         13    1    5    5    0    0 -0.68602854712E+02  0.13196354142E+03  0.14533874994E+03  0.20795211029E+03  0.00000000000E+00 0.  1.
        -13    1    5    5    0    0 -0.16410890288E+03  0.32480484622E+03  0.18201059847E+03  0.40688791834E+03  0.00000000000E+00 0. -1.
          4    1    6    6  503    0  0.26871169328E+03 -0.77512047445E+02 -0.17534441152E+03  0.33009052433E+03  0.00000000000E+00 0. -1.
         -4    1    6    6    0  503  0.29234639179E+02 -0.17516010709E+02  0.88129799387E+01  0.35201468357E+02  0.00000000000E+00 0.  1.
<mgrwt>
<rscale>  0 0.13884180E+04</rscale>
<asrwt>0</asrwt>
<pdfrwt beam="1">  1        2 0.10697440E+00 0.13884180E+04</pdfrwt>
<pdfrwt beam="2">  1       -1 0.10662865E+00 0.13884180E+04</pdfrwt>
<totfact> 0.37776248E+01</totfact>
</mgrwt>
</event>
<event>
12    7  0.1857704E-007  0.2460812E+04  0.7818608E-02  0.8417081E-01
          2   -1    0    0  501    0  0.00000000000E+00  0.00000000000E+00  0.10017895824E+04  0.10017895824E+04  0.00000000000E+00 0. -1.
         -1   -1    0    0    0  501 -0.00000000000E+00 -0.00000000000E+00 -0.15111941468E+04  0.15111941468E+04  0.00000000000E+00 0.  1.
         24    2    1    2    0    0  0.73362147997E+03 -0.31266672476E+03 -0.94523360855E+03  0.12393564314E+04  0.81097673935E+02 0.  0.
        254    2    1    2    0    0 -0.73362147997E+03  0.31266672476E+03  0.43582904419E+03  0.12736272978E+04  0.89231080977E+03 0.  0.
         23    2    4    4    0    0 -0.53573037227E+03  0.53965762410E+03  0.54484675087E+03  0.93994478636E+03  0.91656076955E+02 0.  0.
         23    2    4    4    0    0 -0.19789110770E+03 -0.22699089934E+03 -0.10901770668E+03  0.33368251142E+03  0.93666424971E+02 0.  0.
          2    1    3    3  502    0  0.31264628656E+03 -0.13459265157E+03 -0.46615762273E+03  0.57720517287E+03  0.00000000000E+00 0. -1.
         -1    1    3    3    0  502  0.42097519341E+03 -0.17807407319E+03 -0.47907598582E+03  0.66215125855E+03  0.00000000000E+00 0.  1.
         13    1    5    5    0    0 -0.25028099003E+03  0.28976941318E+03  0.22780915357E+03  0.44553776185E+03  0.00000000000E+00 0.  1.
        -13    1    5    5    0    0 -0.28544938224E+03  0.24988821092E+03  0.31703759730E+03  0.49440702450E+03  0.00000000000E+00 0. -1.
          3    1    6    6  503    0  0.70239103246E+01 -0.25391558053E+02 -0.18919841722E+02  0.32434964890E+02  0.00000000000E+00 0. -1.
         -3    1    6    6    0  503 -0.20491501803E+03 -0.20159934129E+03 -0.90097864955E+02  0.30124754653E+03  0.00000000000E+00 0.  1.
<mgrwt>
<rscale>  0 0.24608117E+04</rscale>
<asrwt>0</asrwt>
<pdfrwt beam="1">  1        2 0.15412147E+00 0.24608117E+04</pdfrwt>
<pdfrwt beam="2">  1       -1 0.23249141E+00 0.24608117E+04</pdfrwt>
<totfact> 0.23287154E+00</totfact>
</mgrwt>
</event>
<event>
12    7  0.1857704E-007  0.2063411E+04  0.7818608E-02  0.8577535E-01
          2   -1    0    0  501    0  0.00000000000E+00  0.00000000000E+00  0.18958823166E+04  0.18958823166E+04  0.00000000000E+00 0. -1.
         -1   -1    0    0    0  501 -0.00000000000E+00 -0.00000000000E+00 -0.56143560522E+03  0.56143560522E+03  0.00000000000E+00 0.  1.
         24    2    1    2    0    0  0.36320966114E+03 -0.19792193229E+03  0.13882597320E+04  0.14507409051E+04  0.79307886802E+02 0.  0.
        254    2    1    2    0    0 -0.36320966114E+03  0.19792193229E+03 -0.53813020671E+02  0.10065770167E+04  0.91608247453E+03 0.  0.
         23    2    4    4    0    0 -0.15474643203E+03 -0.91795704659E+01  0.41104440691E+03  0.44904513216E+03  0.93023134348E+02 0.  0.
         23    2    4    4    0    0 -0.20846322911E+03  0.20710150276E+03 -0.46485742758E+03  0.55753188454E+03  0.91659281933E+02 0.  0.
          2    1    3    3  502    0  0.27667990440E+03 -0.11062939879E+03  0.95840054357E+03  0.10036544402E+04  0.00000000000E+00 0. -1.
         -1    1    3    3    0  502  0.86529756740E+02 -0.87292533504E+02  0.42985918844E+03  0.44708646489E+03  0.00000000000E+00 0.  1.
         13    1    5    5    0    0 -0.15259689722E+03 -0.26991970296E+02  0.39727395772E+03  0.42642816157E+03  0.00000000000E+00 0. -1.
        -13    1    5    5    0    0 -0.21495348111E+01  0.17812399830E+02  0.13770449194E+02  0.22616970589E+02  0.00000000000E+00 0.  1.
          2    1    6    6  503    0 -0.47798592355E+02  0.10434366410E+03 -0.14235519432E+03  0.18285870780E+03  0.00000000000E+00 0. -1.
         -2    1    6    6    0  503 -0.16066463675E+03  0.10275783866E+03 -0.32250223326E+03  0.37467317674E+03  0.00000000000E+00 0.  1.
<mgrwt>
<rscale>  0 0.20634106E+04</rscale>
<asrwt>0</asrwt>
<pdfrwt beam="1">  1        2 0.29167420E+00 0.20634106E+04</pdfrwt>
<pdfrwt beam="2">  1       -1 0.86374709E-01 0.20634106E+04</pdfrwt>
<totfact> 0.10620338E+01</totfact>
</mgrwt>
</event>
<event>
12    7  0.1857704E-007  0.1252003E+04  0.7818608E-02  0.9068518E-01
          2   -1    0    0  501    0  0.00000000000E+00  0.00000000000E+00  0.10663860020E+04  0.10663860020E+04  0.00000000000E+00 0. -1.
         -1   -1    0    0    0  501 -0.00000000000E+00 -0.00000000000E+00 -0.36748235008E+03  0.36748235008E+03  0.00000000000E+00 0.  1.
         24    2    1    2    0    0  0.95489840543E+02  0.10904667189E+03  0.46551401717E+03  0.49422085523E+03  0.80879337678E+02 0.  0.
        254    2    1    2    0    0 -0.95489840543E+02 -0.10904667189E+03  0.23338963477E+03  0.93964749687E+03  0.89858622873E+03 0.  0.
         23    2    4    4    0    0 -0.41545120040E+03 -0.23974560163E+03 -0.39146135553E+02  0.48986850835E+03  0.91438953039E+02 0.  0.
         23    2    4    4    0    0  0.31996135986E+03  0.13069892973E+03  0.27253577032E+03  0.44977898852E+03  0.92563007562E+02 0.  0.
          2    1    3    3  502    0  0.52085639457E+02  0.97505449780E+02  0.39850016516E+03  0.41354879785E+03  0.00000000000E+00 0. -1.
         -1    1    3    3    0  502  0.43404201086E+02  0.11541222114E+02  0.67013852013E+02  0.80672057377E+02  0.00000000000E+00 0.  1.
         13    1    5    5    0    0 -0.36468924456E+03 -0.24160394522E+03 -0.37135921009E+02  0.43903278701E+03  0.00000000000E+00 0. -1.
        -13    1    5    5    0    0 -0.50761955846E+02  0.18583435890E+01 -0.20102145445E+01  0.50835721346E+02  0.00000000000E+00 0.  1.
          1    1    6    6  503    0  0.31287066267E+03  0.12881833589E+03  0.23603084359E+03  0.41254426956E+03  0.00000000000E+00 0. -1.
         -1    1    6    6    0  503  0.70906971868E+01  0.18805938392E+01  0.36504926732E+02  0.37234718953E+02  0.00000000000E+00 0.  1.
<mgrwt>
<rscale>  0 0.12520032E+04</rscale>
<asrwt>0</asrwt>
<pdfrwt beam="1">  1        2 0.16405938E+00 0.12520032E+04</pdfrwt>
<pdfrwt beam="2">  1       -1 0.56535747E-01 0.12520032E+04</pdfrwt>
<totfact> 0.81176644E+01</totfact>
</mgrwt>
</event>
<event>
12    7  0.1857704E-007  0.2263838E+04  0.7818608E-02  0.8492317E-01
          2   -1    0    0  501    0  0.00000000000E+00  0.00000000000E+00  0.12432316300E+04  0.12432316300E+04  0.00000000000E+00 0. -1.
         -1   -1    0    0    0  501 -0.00000000000E+00 -0.00000000000E+00 -0.10305726051E+04  0.10305726051E+04  0.00000000000E+00 0.  1.
         24    2    1    2    0    0 -0.60794129259E+03  0.49603092243E+03 -0.45048275715E+03  0.90816750276E+03  0.78703286710E+02 0.  0.
        254    2    1    2    0    0  0.60794129259E+03 -0.49603092243E+03  0.66314178211E+03  0.13656367323E+04  0.89975961800E+03 0.  0.
         23    2    4    4    0    0  0.14162434145E+03  0.23700553843E+03  0.41470136177E+02  0.29328984762E+03  0.89833641736E+02 0.  0.
         23    2    4    4    0    0  0.46631695114E+03 -0.73303646085E+03  0.62167164594E+03  0.10723468847E+04  0.93049738675E+02 0.  0.
          2    1    3    3  502    0 -0.23011833981E+03  0.15479119020E+03 -0.19100051929E+03  0.33674316808E+03  0.00000000000E+00 0. -1.
         -1    1    3    3    0  502 -0.37782295278E+03  0.34123973222E+03 -0.25948223786E+03  0.57142433468E+03  0.00000000000E+00 0.  1.
         13    1    5    5    0    0  0.21386033973E+02  0.92343122317E+02 -0.17010358497E+02  0.96301438122E+02  0.00000000000E+00 0. -1.
        -13    1    5    5    0    0  0.12023830748E+03  0.14466241611E+03  0.58480494674E+02  0.19698840950E+03  0.00000000000E+00 0.  1.
          3    1    6    6  503    0  0.15663452920E+03 -0.20045242165E+03  0.14034019739E+03  0.29053557456E+03  0.00000000000E+00 0. -1.
         -3    1    6    6    0  503  0.30968242194E+03 -0.53258403920E+03  0.48133144855E+03  0.78181131012E+03  0.00000000000E+00 0.  1.
<mgrwt>
<rscale>  0 0.22638379E+04</rscale>
<asrwt>0</asrwt>
<pdfrwt beam="1">  1        2 0.19126640E+00 0.22638379E+04</pdfrwt>
<pdfrwt beam="2">  1       -1 0.15854963E+00 0.22638379E+04</pdfrwt>
<totfact> 0.55462441E+00</totfact>
</mgrwt>
</event>
<event>
12    7  0.1857704E-007  0.1387027E+04  0.7818608E-02  0.8963263E-01
         -1   -1    0    0    0  501 -0.00000000000E+00  0.00000000000E+00  0.50693177602E+03  0.50693177602E+03  0.00000000000E+00 0.  1.
          2   -1    0    0  501    0  0.00000000000E+00 -0.00000000000E+00 -0.94876899783E+03  0.94876899783E+03  0.00000000000E+00 0. -1.
         24    2    1    2    0    0 -0.72579225773E+02  0.34763605424E+03 -0.28436845432E+03  0.46200669991E+03  0.80412702563E+02 0.  0.
        254    2    1    2    0    0  0.72579225773E+02 -0.34763605424E+03 -0.15746876749E+03  0.99369407395E+03  0.91461080774E+03 0.  0.
         23    2    4    4    0    0  0.34325321850E+03 -0.49054933982E+03  0.57120873743E+02  0.60772785946E+03  0.87229181713E+02 0.  0.
         23    2    4    4    0    0 -0.27067399272E+03  0.14291328558E+03 -0.21458964123E+03  0.38596621449E+03  0.96086352133E+02 0.  0.
          2    1    3    3  502    0 -0.70750580211E+02  0.31641895217E+03 -0.22420242036E+03  0.39419959816E+03  0.00000000000E+00 0. -1.
         -1    1    3    3    0  502 -0.18286455624E+01  0.31217102063E+02 -0.60166033956E+02  0.67807101750E+02  0.00000000000E+00 0.  1.
         13    1    5    5    0    0  0.23909878568E+03 -0.40115388720E+03  0.57003475519E+02  0.47047004873E+03  0.00000000000E+00 0. -1.
        -13    1    5    5    0    0  0.10415443282E+03 -0.89395452617E+02  0.11739822470E+00  0.13725781073E+03  0.00000000000E+00 0.  1.
          4    1    6    6  503    0 -0.22421340994E+03  0.15156613237E+03 -0.19996186253E+03  0.33649471339E+03  0.00000000000E+00 0. -1.
         -4    1    6    6    0  503 -0.46460582787E+02 -0.86528467851E+01 -0.14627778706E+02  0.49471501092E+02  0.00000000000E+00 0.  1.
<mgrwt>
<rscale>  0 0.13870273E+04</rscale>
<asrwt>0</asrwt>
<pdfrwt beam="1">  1        2 0.14596446E+00 0.13870273E+04</pdfrwt>
<pdfrwt beam="2">  1       -1 0.77989505E-01 0.13870273E+04</pdfrwt>
<totfact> 0.49803435E+01</totfact>
</mgrwt>
</event>
<event>
12    7  0.1857704E-007  0.1496515E+04  0.7818608E-02  0.8886774E-01
          2   -1    0    0  501    0  0.00000000000E+00  0.00000000000E+00  0.31899576473E+03  0.31899576473E+03  0.00000000000E+00 0. -1.
         -1   -1    0    0    0  501 -0.00000000000E+00 -0.00000000000E+00 -0.17551628194E+04  0.17551628194E+04  0.00000000000E+00 0.  1.
         24    2    1    2    0    0 -0.99858213589E+02  0.43451078880E+03 -0.65922740085E+03  0.79993732813E+03  0.80917702003E+02 0.  0.
        254    2    1    2    0    0  0.99858213589E+02 -0.43451078880E+03 -0.77693965377E+03  0.12742212559E+04  0.90621923126E+03 0.  0.
         23    2    4    4    0    0  0.48962331219E+03 -0.31123669058E+03 -0.50767445238E+03  0.77621927304E+03  0.90464052676E+02 0.  0.
         23    2    4    4    0    0 -0.38976509860E+03 -0.12327409822E+03 -0.26926520139E+03  0.49800198291E+03  0.91590888885E+02 0.  0.
          2    1    3    3  502    0 -0.76177268605E+02  0.32517336439E+03 -0.55079271636E+03  0.64413764799E+03  0.00000000000E+00 0. -1.
         -1    1    3    3    0  502 -0.23680944984E+02  0.10933742440E+03 -0.10843468450E+03  0.15579968014E+03  0.00000000000E+00 0.  1.
         13    1    5    5    0    0  0.16338294012E+03 -0.74018457005E+02 -0.11366482587E+03  0.21234973449E+03  0.00000000000E+00 0.  1.
        -13    1    5    5    0    0  0.32624037207E+03 -0.23721823358E+03 -0.39400962652E+03  0.56386953854E+03  0.00000000000E+00 0. -1.
          3    1    6    6  503    0 -0.15918273570E+03 -0.14701225749E+02 -0.70134731860E+02  0.17456846793E+03  0.00000000000E+00 0. -1.
         -3    1    6    6    0  503 -0.23058236290E+03 -0.10857287247E+03 -0.19913046953E+03  0.32343351498E+03  0.00000000000E+00 0.  1.
<mgrwt>
<rscale>  0 0.14965153E+04</rscale>
<asrwt>0</asrwt>
<pdfrwt beam="1">  1        2 0.49076271E-01 0.14965153E+04</pdfrwt>
<pdfrwt beam="2">  1       -1 0.27002505E+00 0.14965153E+04</pdfrwt>
<totfact> 0.58662078E+00</totfact>
</mgrwt>
</event>
<event>
12    7  0.1857704E-007  0.2311091E+04  0.7818608E-02  0.8473561E-01
          2   -1    0    0  501    0  0.00000000000E+00  0.00000000000E+00  0.40914431574E+04  0.40914431574E+04  0.00000000000E+00 0. -1.
         -1   -1    0    0    0  501 -0.00000000000E+00 -0.00000000000E+00 -0.32636035425E+03  0.32636035425E+03  0.00000000000E+00 0.  1.
         24    2    1    2    0    0  0.91444474733E+02 -0.70689705500E+03  0.31921651717E+03  0.78496903859E+03  0.78814138252E+02 0.  0.
        254    2    1    2    0    0 -0.91444474733E+02  0.70689705500E+03  0.34458662860E+04  0.36328344730E+04  0.90300958434E+03 0.  0.
         23    2    4    4    0    0 -0.66595738229E+02  0.88654331607E+03  0.31528511493E+04  0.32771122191E+04  0.92736633625E+02 0.  0.
         23    2    4    4    0    0 -0.24848736504E+02 -0.17964626107E+03  0.29301513670E+03  0.35572225398E+03  0.88262182289E+02 0.  0.
          4    1    3    3  502    0  0.17286005225E+02 -0.67842292868E+02  0.85077689287E+01  0.70524923328E+02  0.00000000000E+00 0. -1.
         -3    1    3    3    0  502  0.74158469508E+02 -0.63905476213E+03  0.31070874824E+03  0.71444411526E+03  0.00000000000E+00 0.  1.
         13    1    5    5    0    0 -0.31037088725E+02  0.24737513380E+03  0.10364509725E+04  0.10660151857E+04  0.00000000000E+00 0. -1.
        -13    1    5    5    0    0 -0.35558649504E+02  0.63916818227E+03  0.21164001767E+04  0.22110970333E+04  0.00000000000E+00 0.  1.
          3    1    6    6  503    0  0.25777444132E+02 -0.23204438444E+02  0.75184553872E+02  0.82798790634E+02  0.00000000000E+00 0. -1.
         -3    1    6    6    0  503 -0.50626180635E+02 -0.15644182263E+03  0.21783058282E+03  0.27292346335E+03  0.00000000000E+00 0.  1.
<mgrwt>
<rscale>  0 0.23110905E+04</rscale>
<asrwt>0</asrwt>
<pdfrwt beam="1">  1        2 0.62945276E+00 0.23110905E+04</pdfrwt>
<pdfrwt beam="2">  1       -1 0.50209288E-01 0.23110905E+04</pdfrwt>
<totfact> 0.11880584E+00</totfact>
</mgrwt>
</event>
<event>
12    7  0.1857704E-007  0.1313011E+04  0.7818608E-02  0.9019310E-01
          2   -1    0    0  501    0  0.00000000000E+00  0.00000000000E+00  0.54277992816E+03  0.54277992816E+03  0.00000000000E+00 0. -1.
         -1   -1    0    0    0  501 -0.00000000000E+00 -0.00000000000E+00 -0.79405962429E+03  0.79405962429E+03  0.00000000000E+00 0.  1.
         24    2    1    2    0    0  0.20127569597E+03 -0.34455273167E+02 -0.31935240974E+03  0.38722127398E+03  0.79090339362E+02 0.  0.
        254    2    1    2    0    0 -0.20127569597E+03  0.34455273167E+02  0.68072713603E+02  0.94961827848E+03  0.92490102651E+03 0.  0.
         23    2    4    4    0    0  0.12101106743E+02  0.24577919231E+03 -0.34311900382E+03  0.43187101746E+03  0.90708747000E+02 0.  0.
         23    2    4    4    0    0 -0.21337680271E+03 -0.21132391914E+03  0.41119171742E+03  0.51774726102E+03  0.93787734175E+02 0.  0.
          4    1    3    3  502    0  0.98642903260E+02 -0.11073070825E+02 -0.86428494945E+02  0.13161656431E+03  0.00000000000E+00 0. -1.
         -1    1    3    3    0  502  0.10263279271E+03 -0.23382202343E+02 -0.23292391479E+03  0.25560470967E+03  0.00000000000E+00 0.  1.
         13    1    5    5    0    0  0.32678606204E+02  0.22674792978E+03 -0.27318048661E+03  0.35652502469E+03  0.00000000000E+00 0. -1.
        -13    1    5    5    0    0 -0.20577499461E+02  0.19031262528E+02 -0.69938517205E+02  0.75345992769E+02  0.00000000000E+00 0.  1.
          3    1    6    6  503    0 -0.19362545102E+03 -0.21979185968E+03  0.37804946043E+03  0.47824750015E+03  0.00000000000E+00 0. -1.
         -3    1    6    6    0  503 -0.19751351692E+02  0.84679405403E+01  0.33142256987E+02  0.39499760870E+02  0.00000000000E+00 0.  1.
<mgrwt>
<rscale>  0 0.13130112E+04</rscale>
<asrwt>0</asrwt>
<pdfrwt beam="1">  1        2 0.83504605E-01 0.13130112E+04</pdfrwt>
<pdfrwt beam="2">  1       -1 0.12216302E+00 0.13130112E+04</pdfrwt>
<totfact> 0.37103367E+01</totfact>
</mgrwt>
</event>
<event>
12    7  0.1857704E-007  0.1207247E+04  0.7818608E-02  0.9106536E-01
         -1   -1    0    0    0  501 -0.00000000000E+00  0.00000000000E+00  0.36520213335E+03  0.36520213335E+03  0.00000000000E+00 0.  1.
          2   -1    0    0  501    0  0.00000000000E+00 -0.00000000000E+00 -0.99769845519E+03  0.99769845519E+03  0.00000000000E+00 0. -1.
         24    2    1    2    0    0 -0.24909939086E+03  0.70031545540E+02 -0.12367563628E+03  0.29790113694E+03  0.80588463695E+02 0.  0.
        254    2    1    2    0    0  0.24909939086E+03 -0.70031545540E+02 -0.50882068556E+03  0.10649994516E+04  0.89909422086E+03 0.  0.
         23    2    4    4    0    0  0.52819975364E+03  0.31988305220E+02 -0.91512066309E+02  0.54469139826E+03  0.91082543019E+02 0.  0.
         23    2    4    4    0    0 -0.27910036278E+03 -0.10201985076E+03 -0.41730861925E+03  0.52030805335E+03  0.90933625362E+02 0.  0.
          2    1    3    3  502    0 -0.12161794588E+03  0.15000895893E+02 -0.97517648284E+02  0.15660665173E+03  0.00000000000E+00 0. -1.
         -1    1    3    3    0  502 -0.12748144498E+03  0.55030649647E+02 -0.26157987993E+02  0.14129448521E+03  0.00000000000E+00 0.  1.
         13    1    5    5    0    0  0.11710718822E+03  0.38176692819E+02 -0.44091074935E+02  0.13082651220E+03  0.00000000000E+00 0. -1.
        -13    1    5    5    0    0  0.41109256543E+03 -0.61883875989E+01 -0.47420991374E+02  0.41386488606E+03  0.00000000000E+00 0.  1.
          3    1    6    6  503    0 -0.57231453900E+02  0.31742378630E+01 -0.13186960006E+03  0.14378840886E+03  0.00000000000E+00 0. -1.
         -3    1    6    6    0  503 -0.22186890888E+03 -0.10519408862E+03 -0.28543901919E+03  0.37651964449E+03  0.00000000000E+00 0.  1.
<mgrwt>
<rscale>  0 0.12072475E+04</rscale>
<asrwt>0</asrwt>
<pdfrwt beam="1">  1        2 0.15349207E+00 0.12072475E+04</pdfrwt>
<pdfrwt beam="2">  1       -1 0.56184944E-01 0.12072475E+04</pdfrwt>
<totfact> 0.91132393E+01</totfact>
</mgrwt>
</event>
<event>
12    7  0.1857704E-007  0.1541891E+04  0.7818608E-02  0.8857064E-01
          4   -1    0    0  501    0  0.00000000000E+00  0.00000000000E+00  0.97948160703E+03  0.97948160703E+03  0.00000000000E+00 0. -1.
         -3   -1    0    0    0  501 -0.00000000000E+00 -0.00000000000E+00 -0.60680783373E+03  0.60680783373E+03  0.00000000000E+00 0.  1.
         24    2    1    2    0    0 -0.13429344158E+03 -0.17800816248E+03  0.59035721482E+03  0.63571252839E+03  0.76727721879E+02 0.  0.
        254    2    1    2    0    0  0.13429344158E+03  0.17800816248E+03 -0.21768344152E+03  0.95057691237E+03  0.89804718765E+03 0.  0.
         23    2    4    4    0    0  0.20010871445E+03  0.53666465692E+02 -0.54113753980E+03  0.58628356790E+03  0.89302843576E+02 0.  0.
         23    2    4    4    0    0 -0.65815272866E+02  0.12434169678E+03  0.32345409828E+03  0.36429334447E+03  0.91074581671E+02 0.  0.
          2    1    3    3  502    0 -0.12615254333E+03 -0.17963069985E+03  0.58710604479E+03  0.62679754335E+03  0.00000000000E+00 0. -1.
         -1    1    3    3    0  502 -0.81408982453E+01  0.16225373762E+01  0.32511700325E+01  0.89149850453E+01  0.00000000000E+00 0.  1.
         13    1    5    5    0    0  0.20807135574E+03  0.51046501903E+02 -0.53362896984E+03  0.57502983565E+03  0.00000000000E+00 0. -1.
        -13    1    5    5    0    0 -0.79626412967E+01  0.26199637892E+01 -0.75085699635E+01  0.11253732251E+02  0.00000000000E+00 0.  1.
          2    1    6    6  503    0 -0.89045864326E+02  0.10076834895E+03  0.26184817328E+03  0.29436013989E+03  0.00000000000E+00 0. -1.
         -2    1    6    6    0  503  0.23230591461E+02  0.23573347838E+02  0.61605925000E+02  0.69933204581E+02  0.00000000000E+00 0.  1.
<mgrwt>
<rscale>  0 0.15418912E+04</rscale>
<asrwt>0</asrwt>
<pdfrwt beam="1">  1        4 0.15068948E+00 0.15418912E+04</pdfrwt>
<pdfrwt beam="2">  1       -3 0.93355051E-01 0.15418912E+04</pdfrwt>
<totfact> 0.66416902E-01</totfact>
</mgrwt>
</event>
<event>
12    7  0.1857704E-007  0.1909202E+04  0.7818608E-02  0.8650290E-01
         -1   -1    0    0    0  501 -0.00000000000E+00  0.00000000000E+00  0.16404908012E+04  0.16404908012E+04  0.00000000000E+00 0.  1.
          2   -1    0    0  501    0  0.00000000000E+00 -0.00000000000E+00 -0.55548176843E+03  0.55548176843E+03  0.00000000000E+00 0. -1.
         24    2    1    2    0    0  0.16673990905E+03 -0.72419847544E+02  0.12444219590E+04  0.12601288427E+04  0.79321224681E+02 0.  0.
        254    2    1    2    0    0 -0.16673990905E+03  0.72419847544E+02 -0.15941292620E+03  0.93584372691E+03  0.90407088691E+03 0.  0.
         23    2    4    4    0    0 -0.13893777040E+03  0.43728530627E+02 -0.52755339584E+03  0.55423756168E+03  0.87468856599E+02 0.  0.
         23    2    4    4    0    0 -0.27802138649E+02  0.28691316918E+02  0.36814046964E+03  0.38160616523E+03  0.92193868402E+02 0.  0.
          4    1    3    3  502    0  0.10114908675E+03 -0.58336760415E+02  0.53782869331E+03  0.55035808227E+03  0.00000000000E+00 0. -1.
         -3    1    3    3    0  502  0.65590822295E+02 -0.14083087129E+02  0.70659326565E+03  0.70977076044E+03  0.00000000000E+00 0.  1.
         13    1    5    5    0    0 -0.10792033466E+03  0.27256029475E+02 -0.24009635136E+03  0.26464305718E+03  0.00000000000E+00 0.  1.
        -13    1    5    5    0    0 -0.31017435740E+02  0.16472501152E+02 -0.28745704448E+03  0.28959450450E+03  0.00000000000E+00 0. -1.
          2    1    6    6  503    0 -0.47318437826E+02 -0.13352238423E+02  0.24815227927E+03  0.25297602759E+03  0.00000000000E+00 0. -1.
         -2    1    6    6    0  503  0.19516299177E+02  0.42043555341E+02  0.11998819038E+03  0.12863013764E+03  0.00000000000E+00 0.  1.
<mgrwt>
<rscale>  0 0.19092016E+04</rscale>
<asrwt>0</asrwt>
<pdfrwt beam="1">  1        2 0.85458734E-01 0.19092016E+04</pdfrwt>
<pdfrwt beam="2">  1       -1 0.25238320E+00 0.19092016E+04</pdfrwt>
<totfact> 0.39125283E+00</totfact>
</mgrwt>
</event>
<event>
12    7  0.1857704E-007  0.1631837E+04  0.7818608E-02  0.8801225E-01
         -1   -1    0    0    0  501 -0.00000000000E+00  0.00000000000E+00  0.15301795372E+04  0.15301795372E+04  0.00000000000E+00 0.  1.
          2   -1    0    0  501    0  0.00000000000E+00 -0.00000000000E+00 -0.43506198217E+03  0.43506198217E+03  0.00000000000E+00 0. -1.
         24    2    1    2    0    0  0.10591357602E+03 -0.49937159783E+03  0.65441775440E+03  0.83385611930E+03  0.80397463302E+02 0.  0.
        254    2    1    2    0    0 -0.10591357602E+03  0.49937159783E+03  0.44069980062E+03  0.11313854001E+04  0.90842001898E+03 0.  0.
         23    2    4    4    0    0  0.32876366557E+03  0.42623504820E+03  0.40515880870E+03  0.67992994390E+03  0.91592599179E+02 0.  0.
         23    2    4    4    0    0 -0.43467724159E+03  0.73136549630E+02  0.35540991915E+02  0.45145545616E+03  0.90860373857E+02 0.  0.
          2    1    3    3  502    0  0.98814472010E+02 -0.33150274103E+03  0.39827422423E+03  0.52752319843E+03  0.00000000000E+00 0. -1.
         -1    1    3    3    0  502  0.70991040101E+01 -0.16786885680E+03  0.25614353017E+03  0.30633292087E+03  0.00000000000E+00 0.  1.
         13    1    5    5    0    0  0.82900102300E+02  0.76022379309E+02  0.12659595001E+03  0.16934687383E+03  0.00000000000E+00 0. -1.
        -13    1    5    5    0    0  0.24586356327E+03  0.35021266890E+03  0.27856285870E+03  0.51058307007E+03  0.00000000000E+00 0.  1.
          3    1    6    6  503    0 -0.26760695361E+03  0.83578118697E+02  0.13004388650E+00  0.28035477605E+03  0.00000000000E+00 0. -1.
         -3    1    6    6    0  503 -0.16707028798E+03 -0.10441569067E+02  0.35410948028E+02  0.17110068010E+03  0.00000000000E+00 0.  1.
<mgrwt>
<rscale>  0 0.16318369E+04</rscale>
<asrwt>0</asrwt>
<pdfrwt beam="1">  1        2 0.66932613E-01 0.16318369E+04</pdfrwt>
<pdfrwt beam="2">  1       -1 0.23541223E+00 0.16318369E+04</pdfrwt>
<totfact> 0.68731652E+00</totfact>
</mgrwt>
</event>
<event>
12    7  0.1857704E-007  0.1915832E+04  0.7818608E-02  0.8647016E-01
          2   -1    0    0  501    0  0.00000000000E+00  0.00000000000E+00  0.11893308018E+04  0.11893308018E+04  0.00000000000E+00 0. -1.
         -1   -1    0    0    0  501 -0.00000000000E+00 -0.00000000000E+00 -0.77152851148E+03  0.77152851148E+03  0.00000000000E+00 0.  1.
         24    2    1    2    0    0 -0.23120453453E+03  0.59205045421E+03 -0.24415398559E+03  0.68562705836E+03  0.80585466259E+02 0.  0.
        254    2    1    2    0    0  0.23120453453E+03 -0.59205045421E+03  0.66195627590E+03  0.12752322549E+04  0.88546706073E+03 0.  0.
         23    2    4    4    0    0 -0.15662643163E+03 -0.41913798301E+03  0.70337717264E+03  0.83861454900E+03  0.91249257103E+02 0.  0.
         23    2    4    4    0    0  0.38783096616E+03 -0.17291247120E+03 -0.41420896739E+02  0.43661770591E+03  0.92777957600E+02 0.  0.
          4    1    3    3  502    0 -0.10111069047E+02  0.72369370344E+01 -0.15601775211E+02  0.19950497855E+02  0.00000000000E+00 0. -1.
         -3    1    3    3    0  502 -0.22109346548E+03  0.58481351717E+03 -0.22855221038E+03  0.66567656051E+03  0.00000000000E+00 0.  1.
         13    1    5    5    0    0 -0.15401867456E+02 -0.20089364182E+02  0.88993573091E+02  0.92523813831E+02  0.00000000000E+00 0. -1.
        -13    1    5    5    0    0 -0.14122456418E+03 -0.39904861883E+03  0.61438359955E+03  0.74609073517E+03  0.00000000000E+00 0.  1.
          4    1    6    6  503    0  0.16216964899E+03 -0.12088480083E+03 -0.61094847904E+01  0.20235971914E+03  0.00000000000E+00 0. -1.
         -4    1    6    6    0  503  0.22566131717E+03 -0.52027670366E+02 -0.35311411949E+02  0.23425798677E+03  0.00000000000E+00 0.  1.
<mgrwt>
<rscale>  0 0.19158315E+04</rscale>
<asrwt>0</asrwt>
<pdfrwt beam="1">  1        2 0.18297397E+00 0.19158315E+04</pdfrwt>
<pdfrwt beam="2">  1       -1 0.11869669E+00 0.19158315E+04</pdfrwt>
<totfact> 0.13037183E+01</totfact>
</mgrwt>
</event>
<event>
12    7  0.1857704E-007  0.1225500E+04  0.7818608E-02  0.9090825E-01
          2   -1    0    0  501    0  0.00000000000E+00  0.00000000000E+00  0.68855340913E+03  0.68855340913E+03  0.00000000000E+00 0. -1.
         -1   -1    0    0    0  501 -0.00000000000E+00 -0.00000000000E+00 -0.54529143035E+03  0.54529143035E+03  0.00000000000E+00 0.  1.
         24    2    1    2    0    0 -0.11905584724E+03  0.15349672730E+03  0.20502525997E+03  0.29346360614E+03  0.79686829818E+02 0.  0.
        254    2    1    2    0    0  0.11905584724E+03 -0.15349672730E+03 -0.61763281194E+02  0.94038123334E+03  0.91802321379E+03 0.  0.
         23    2    4    4    0    0 -0.22955845936E+03 -0.39582320135E+03 -0.16237027490E+03  0.49427158244E+03  0.92559159746E+02 0.  0.
         23    2    4    4    0    0  0.34861430660E+03  0.24232647405E+03  0.10060699370E+03  0.44610965090E+03  0.92940834150E+02 0.  0.
          4    1    3    3  502    0 -0.11982368679E+03  0.99037950596E+02  0.15451448890E+03  0.21918247844E+03  0.00000000000E+00 0. -1.
         -3    1    3    3    0  502  0.76783955494E+00  0.54458776700E+02  0.50510771072E+02  0.74281127694E+02  0.00000000000E+00 0.  1.
         13    1    5    5    0    0 -0.25491476592E+02 -0.45628655176E+02  0.11039336600E+02  0.53419626585E+02  0.00000000000E+00 0. -1.
        -13    1    5    5    0    0 -0.20406698277E+03 -0.35019454617E+03 -0.17340961150E+03  0.44085195586E+03  0.00000000000E+00 0.  1.
          3    1    6    6  503    0  0.33299498259E+02  0.35496223881E+02  0.42395185255E+02  0.64546031845E+02  0.00000000000E+00 0. -1.
         -3    1    6    6    0  503  0.31531480834E+03  0.20683025017E+03  0.58211808449E+02  0.38156361905E+03  0.00000000000E+00 0.  1.
<mgrwt>
<rscale>  0 0.12254995E+04</rscale>
<asrwt>0</asrwt>
<pdfrwt beam="1">  1        2 0.10593129E+00 0.12254995E+04</pdfrwt>
<pdfrwt beam="2">  1       -1 0.83890990E-01 0.12254995E+04</pdfrwt>
<totfact> 0.66347473E+01</totfact>
</mgrwt>
</event>
<event>
12    7  0.1857704E-007  0.3968853E+04  0.7818608E-02  0.8010859E-01
         -1   -1    0    0    0  501 -0.00000000000E+00  0.00000000000E+00  0.28661542673E+04  0.28661542673E+04  0.00000000000E+00 0.  1.
          2   -1    0    0  501    0  0.00000000000E+00 -0.00000000000E+00 -0.13739487155E+04  0.13739487155E+04  0.00000000000E+00 0. -1.
         24    2    1    2    0    0  0.10411173290E+03  0.10669050347E+04 -0.94331039066E+03  0.14302100837E+04  0.80875115578E+02 0.  0.
        254    2    1    2    0    0 -0.10411173290E+03 -0.10669050347E+04  0.24355159424E+04  0.28098928992E+04  0.90257110145E+03 0.  0.
         23    2    4    4    0    0 -0.71752446156E+01 -0.11811139424E+04  0.22893842394E+04  0.25774643365E+04  0.83430097947E+02 0.  0.
         23    2    4    4    0    0 -0.96936488288E+02  0.11420890768E+03  0.14613170303E+03  0.23242856271E+03  0.10113458745E+03 0.  0.
          4    1    3    3  502    0  0.56575565616E+02  0.28222403254E+03 -0.22511134865E+03  0.36541253188E+03  0.00000000000E+00 0. -1.
         -3    1    3    3    0  502  0.47536167288E+02  0.78468100214E+03 -0.71819904201E+03  0.10647975518E+04  0.00000000000E+00 0.  1.
         13    1    5    5    0    0  0.82143462391E+00 -0.71387910739E+03  0.12943829710E+04  0.14781919125E+04  0.00000000000E+00 0. -1.
        -13    1    5    5    0    0 -0.79966792395E+01 -0.46723483497E+03  0.99500126843E+03  0.10992724240E+04  0.00000000000E+00 0.  1.
          2    1    6    6  503    0 -0.62828203198E+02  0.96332800617E+02  0.15490546558E+03  0.19293287656E+03  0.00000000000E+00 0. -1.
         -2    1    6    6    0  503 -0.34108285090E+02  0.17876107065E+02 -0.87737625475E+01  0.39495686155E+02  0.00000000000E+00 0.  1.
<mgrwt>
<rscale>  0 0.39688532E+04</rscale>
<asrwt>0</asrwt>
<pdfrwt beam="1">  1        2 0.21137673E+00 0.39688532E+04</pdfrwt>
<pdfrwt beam="2">  1       -1 0.44094681E+00 0.39688532E+04</pdfrwt>
<totfact> 0.50405316E-02</totfact>
</mgrwt>
</event>
<event>
12    7  0.1857704E-007  0.1640147E+04  0.7818608E-02  0.8796257E-01
          2   -1    0    0  501    0  0.00000000000E+00  0.00000000000E+00  0.80336240863E+03  0.80336240863E+03  0.00000000000E+00 0. -1.
         -1   -1    0    0    0  501 -0.00000000000E+00 -0.00000000000E+00 -0.83713254560E+03  0.83713254560E+03  0.00000000000E+00 0.  1.
         24    2    1    2    0    0  0.76302210786E+02 -0.44437838402E+03  0.35763661655E+03  0.58100696549E+03  0.79818349392E+02 0.  0.
        254    2    1    2    0    0 -0.76302210786E+02  0.44437838402E+03 -0.39140675352E+03  0.10594879887E+04  0.87522647128E+03 0.  0.
         23    2    4    4    0    0  0.27184498847E+03 -0.93083522197E+02  0.30417351986E+01  0.30186495384E+03  0.92460577262E+02 0.  0.
         23    2    4    4    0    0 -0.34814719925E+03  0.53746190622E+03 -0.39444848871E+03  0.75762303489E+03  0.91275844368E+02 0.  0.
          2    1    3    3  502    0  0.26450713378E+02 -0.28510809793E+03  0.18503729623E+03  0.34091797949E+03  0.00000000000E+00 0. -1.
         -1    1    3    3    0  502  0.49851497408E+02 -0.15927028609E+03  0.17259932032E+03  0.24008898601E+03  0.00000000000E+00 0.  1.
         13    1    5    5    0    0  0.98390766226E+02 -0.10477768951E+02 -0.36960173411E+02  0.10562471746E+03  0.00000000000E+00 0.  1.
        -13    1    5    5    0    0  0.17345422224E+03 -0.82605753246E+02  0.40001908609E+02  0.19624023638E+03  0.00000000000E+00 0. -1.
          2    1    6    6  503    0 -0.28759507696E+03  0.48797281781E+03 -0.36614441316E+03  0.67445543255E+03  0.00000000000E+00 0. -1.
         -2    1    6    6    0  503 -0.60552122293E+02  0.49489088412E+02 -0.28304075556E+02  0.83167602340E+02  0.00000000000E+00 0.  1.
<mgrwt>
<rscale>  0 0.16401473E+04</rscale>
<asrwt>0</asrwt>
<pdfrwt beam="1">  1        2 0.12359422E+00 0.16401473E+04</pdfrwt>
<pdfrwt beam="2">  1       -1 0.12878962E+00 0.16401473E+04</pdfrwt>
<totfact> 0.19415975E+01</totfact>
</mgrwt>
</event>
<event>
12    7  0.1857704E-007  0.1241761E+04  0.7818608E-02  0.9077069E-01
         -1   -1    0    0    0  501 -0.00000000000E+00  0.00000000000E+00  0.15675809747E+03  0.15675809747E+03  0.00000000000E+00 0.  1.
          2   -1    0    0  501    0  0.00000000000E+00 -0.00000000000E+00 -0.24591548492E+04  0.24591548492E+04  0.00000000000E+00 0. -1.
         24    2    1    2    0    0 -0.20334661525E+03 -0.18603809871E+03 -0.37252976701E+03  0.47011613258E+03  0.79187945440E+02 0.  0.
        254    2    1    2    0    0  0.20334661525E+03  0.18603809871E+03 -0.19298669847E+04  0.21457968141E+04  0.89671476432E+03 0.  0.
         23    2    4    4    0    0  0.30339786870E+03  0.19195408537E+03 -0.19699446444E+04  0.20042859664E+04  0.87084417590E+02 0.  0.
         23    2    4    4    0    0 -0.10005125345E+03 -0.59159866634E+01  0.40077659629E+02  0.14151084766E+03  0.91508737234E+02 0.  0.
          4    1    3    3  502    0 -0.97836450070E+02 -0.51599075310E+02 -0.10404368016E+03  0.15185362332E+03  0.00000000000E+00 0. -1.
         -3    1    3    3    0  502 -0.10551016518E+03 -0.13443902340E+03 -0.26848608685E+03  0.31826250926E+03  0.00000000000E+00 0.  1.
         13    1    5    5    0    0  0.79543574425E+02  0.86259752217E+01 -0.40994327041E+03  0.41767819268E+03  0.00000000000E+00 0. -1.
        -13    1    5    5    0    0  0.22385429427E+03  0.18332811015E+03 -0.15600013739E+04  0.15866077738E+04  0.00000000000E+00 0.  1.
          4    1    6    6  503    0 -0.30117855987E+02  0.38580837796E+02 -0.10998779563E+01  0.48956879249E+02  0.00000000000E+00 0. -1.
         -4    1    6    6    0  503 -0.69933397464E+02 -0.44496824460E+02  0.41177537585E+02  0.92553968416E+02  0.00000000000E+00 0.  1.
<mgrwt>
<rscale>  0 0.12417607E+04</rscale>
<asrwt>0</asrwt>
<pdfrwt beam="1">  1        2 0.37833151E+00 0.12417607E+04</pdfrwt>
<pdfrwt beam="2">  1       -1 0.24116631E-01 0.12417607E+04</pdfrwt>
<totfact> 0.61697938E+01</totfact>
</mgrwt>
</event>
<event>
12    7  0.1857704E-007  0.1358762E+04  0.7818608E-02  0.8984222E-01
         -3   -1    0    0    0  501 -0.00000000000E+00  0.00000000000E+00  0.16231338392E+03  0.16231338392E+03  0.00000000000E+00 0.  1.
          2   -1    0    0  501    0  0.00000000000E+00 -0.00000000000E+00 -0.28436261757E+04  0.28436261757E+04  0.00000000000E+00 0. -1.
         24    2    1    2    0    0  0.11522899819E+03  0.20933317579E+03 -0.11844599145E+03  0.27863824927E+03  0.80695232528E+02 0.  0.
        254    2    1    2    0    0 -0.11522899819E+03 -0.20933317579E+03 -0.25628668004E+04  0.27273013104E+04  0.90154761424E+03 0.  0.
         23    2    4    4    0    0 -0.89618052591E+02 -0.54986926299E+03 -0.13520777833E+04  0.14656293296E+04  0.97813076658E+02 0.  0.
         23    2    4    4    0    0 -0.25610945598E+02  0.34053608720E+03 -0.12107890171E+04  0.12616719808E+04  0.95840471833E+02 0.  0.
          2    1    3    3  502    0  0.88531421661E+02  0.15322903949E+03 -0.12425940235E+03  0.21623447976E+03  0.00000000000E+00 0. -1.
         -1    1    3    3    0  502  0.26697576528E+02  0.56104136299E+02  0.58134108972E+01  0.62403769507E+02  0.00000000000E+00 0.  1.
         13    1    5    5    0    0 -0.87465836708E+02 -0.26655973126E+03 -0.73090369244E+03  0.78289499330E+03  0.00000000000E+00 0. -1.
        -13    1    5    5    0    0 -0.21522158831E+01 -0.28330953174E+03 -0.62117409086E+03  0.68273433630E+03  0.00000000000E+00 0.  1.
          2    1    6    6  503    0 -0.43034367476E+01  0.66406652672E+02 -0.40080827811E+03  0.40629501460E+03  0.00000000000E+00 0.  1.
         -2    1    6    6    0  503 -0.21307508850E+02  0.27412943453E+03 -0.80998073896E+03  0.85537696619E+03  0.00000000000E+00 0. -1.
<mgrwt>
<rscale>  0 0.13587621E+04</rscale>
<asrwt>0</asrwt>
<pdfrwt beam="1">  1        2 0.43748094E+00 0.13587621E+04</pdfrwt>
<pdfrwt beam="2">  1       -3 0.24971290E-01 0.13587621E+04</pdfrwt>
<totfact> 0.21316708E+01</totfact>
</mgrwt>
</event>
<event>
12    7  0.1857704E-007  0.1727319E+04  0.7818608E-02  0.8745935E-01
         -1   -1    0    0    0  501 -0.00000000000E+00  0.00000000000E+00  0.67382949702E+03  0.67382949702E+03  0.00000000000E+00 0.  1.
          2   -1    0    0  501    0  0.00000000000E+00 -0.00000000000E+00 -0.11069679214E+04  0.11069679214E+04  0.00000000000E+00 0. -1.
         24    2    1    2    0    0 -0.13747086366E+03 -0.31542900415E+03  0.37299304391E+03  0.51398489421E+03  0.81626990969E+02 0.  0.
        254    2    1    2    0    0  0.13747086366E+03  0.31542900415E+03 -0.80613146826E+03  0.12668125242E+04  0.91464328144E+03 0.  0.
         23    2    4    4    0    0 -0.56060422037E+02  0.55604567605E+03 -0.75156340972E+03  0.94036253765E+03  0.84288662473E+02 0.  0.
         23    2    4    4    0    0  0.19353128570E+03 -0.24061667189E+03 -0.54568058541E+02  0.32644998653E+03  0.90780941578E+02 0.  0.
          2    1    3    3  502    0 -0.38016546451E+02 -0.28797745251E+02  0.31353504427E+02  0.57075477883E+02  0.00000000000E+00 0. -1.
         -1    1    3    3    0  502 -0.99454317210E+02 -0.28663125890E+03  0.34163953948E+03  0.45690941633E+03  0.00000000000E+00 0.  1.
         13    1    5    5    0    0 -0.38699264361E+02  0.28047591608E+03 -0.44835742225E+03  0.53027233631E+03  0.00000000000E+00 0. -1.
        -13    1    5    5    0    0 -0.17361157676E+02  0.27556975997E+03 -0.30320598747E+03  0.41009020135E+03  0.00000000000E+00 0.  1.
          3    1    6    6  503    0  0.16613997355E+03 -0.14923186098E+03 -0.17172890651E+02  0.22398113161E+03  0.00000000000E+00 0. -1.
         -3    1    6    6    0  503  0.27391312147E+02 -0.91384810916E+02 -0.37395167890E+02  0.10246885492E+03  0.00000000000E+00 0.  1.
<mgrwt>
<rscale>  0 0.17273189E+04</rscale>
<asrwt>0</asrwt>
<pdfrwt beam="1">  1        2 0.17030276E+00 0.17273189E+04</pdfrwt>
<pdfrwt beam="2">  1       -1 0.10366608E+00 0.17273189E+04</pdfrwt>
<totfact> 0.20492914E+01</totfact>
</mgrwt>
</event>
<event>
12    7  0.1857704E-007  0.1430082E+04  0.7818608E-02  0.8932327E-01
          2   -1    0    0  501    0  0.00000000000E+00  0.00000000000E+00  0.92449104984E+03  0.92449104984E+03  0.00000000000E+00 0. -1.
         -1   -1    0    0    0  501 -0.00000000000E+00 -0.00000000000E+00 -0.55304316299E+03  0.55304316299E+03  0.00000000000E+00 0.  1.
         24    2    1    2    0    0  0.32914239017E+03 -0.49932781735E+02  0.38343967062E+03  0.51414459106E+03  0.80564780232E+02 0.  0.
        254    2    1    2    0    0 -0.32914239017E+03  0.49932781735E+02 -0.11991783767E+02  0.96338962177E+03  0.90396225848E+03 0.  0.
         23    2    4    4    0    0 -0.11274564229E+03 -0.38548972044E+03  0.15780448700E+03  0.44015771925E+03  0.86733253587E+02 0.  0.
         23    2    4    4    0    0 -0.21639674788E+03  0.43542250218E+03 -0.16979627077E+03  0.52323190251E+03  0.92306783850E+02 0.  0.
          4    1    3    3  502    0  0.70400224750E+02  0.16097492217E+01  0.39726689403E+02  0.80851671524E+02  0.00000000000E+00 0. -1.
         -3    1    3    3    0  502  0.25874216542E+03 -0.51542530957E+02  0.34371298121E+03  0.43329291953E+03  0.00000000000E+00 0.  1.
         13    1    5    5    0    0 -0.67638845013E+01  0.27472584556E+01 -0.12821437694E+01  0.74122503476E+01  0.00000000000E+00 0. -1.
        -13    1    5    5    0    0 -0.10598175779E+03 -0.38823697890E+03  0.15908663077E+03  0.43274546891E+03  0.00000000000E+00 0.  1.
          2    1    6    6  503    0  0.71003457383E+01  0.29580951635E+02 -0.19573735008E+02  0.36174282459E+02  0.00000000000E+00 0. -1.
         -2    1    6    6    0  503 -0.22349709362E+03  0.40584155055E+03 -0.15022253576E+03  0.48705762005E+03  0.00000000000E+00 0.  1.
<mgrwt>
<rscale>  0 0.14300818E+04</rscale>
<asrwt>0</asrwt>
<pdfrwt beam="1">  1        2 0.14222939E+00 0.14300818E+04</pdfrwt>
<pdfrwt beam="2">  1       -1 0.85083564E-01 0.14300818E+04</pdfrwt>
<totfact> 0.42757026E+01</totfact>
</mgrwt>
</event>
<event>
12    7  0.1857704E-007  0.1580278E+04  0.7818608E-02  0.8832756E-01
         -1   -1    0    0    0  501 -0.00000000000E+00  0.00000000000E+00  0.90981800163E+03  0.90981800163E+03  0.00000000000E+00 0.  1.
          2   -1    0    0  501    0  0.00000000000E+00 -0.00000000000E+00 -0.68620282000E+03  0.68620282000E+03  0.00000000000E+00 0. -1.
         24    2    1    2    0    0 -0.32605341453E+03 -0.37613191367E+03  0.27571166491E+03  0.57445061537E+03  0.78679995720E+02 0.  0.
        254    2    1    2    0    0  0.32605341453E+03  0.37613191367E+03 -0.52096483273E+02  0.10215702063E+04  0.89056476303E+03 0.  0.
         23    2    4    4    0    0  0.68955988926E+02  0.56758652391E+03  0.19077518237E+03  0.60901241457E+03  0.87129560809E+02 0.  0.
         23    2    4    4    0    0  0.25709742560E+03 -0.19145461023E+03 -0.24287166564E+03  0.41255779169E+03  0.91996366660E+02 0.  0.
          4    1    3    3  502    0 -0.61240647924E+02 -0.60187605626E+02  0.82859401008E+02  0.11932579421E+03  0.00000000000E+00 0. -1.
         -3    1    3    3    0  502 -0.26481276661E+03 -0.31594430805E+03  0.19285226390E+03  0.45512482116E+03  0.00000000000E+00 0.  1.
         13    1    5    5    0    0 -0.46266696898E+01  0.31799174608E+03  0.11109042029E+03  0.33686976434E+03  0.00000000000E+00 0.  1.
        -13    1    5    5    0    0  0.73582658616E+02  0.24959477783E+03  0.79684762079E+02  0.27214265023E+03  0.00000000000E+00 0. -1.
          2    1    6    6  503    0  0.89630451679E+02 -0.12048299467E+03 -0.90862407914E+02  0.17551566040E+03  0.00000000000E+00 0. -1.
         -2    1    6    6    0  503  0.16746697393E+03 -0.70971615563E+02 -0.15200925773E+03  0.23704213129E+03  0.00000000000E+00 0.  1.
<mgrwt>
<rscale>  0 0.15802780E+04</rscale>
<asrwt>0</asrwt>
<pdfrwt beam="1">  1        2 0.10556966E+00 0.15802780E+04</pdfrwt>
<pdfrwt beam="2">  1       -1 0.13997200E+00 0.15802780E+04</pdfrwt>
<totfact> 0.19331642E+01</totfact>
</mgrwt>
</event>
<event>
12    7  0.1857704E-007  0.2558355E+04  0.7818608E-02  0.8382486E-01
          2   -1    0    0  501    0  0.00000000000E+00  0.00000000000E+00  0.19536430919E+04  0.19536430919E+04  0.00000000000E+00 0. -1.
         -1   -1    0    0    0  501 -0.00000000000E+00 -0.00000000000E+00 -0.83756114361E+03  0.83756114361E+03  0.00000000000E+00 0.  1.
         24    2    1    2    0    0  0.23052394172E+01 -0.29947412941E+03 -0.68524267542E+03  0.75238621354E+03  0.82688704197E+02 0.  0.
        254    2    1    2    0    0 -0.23052394172E+01  0.29947412941E+03  0.18013246237E+04  0.20388180219E+04  0.90681776470E+03 0.  0.
         23    2    4    4    0    0 -0.33889540638E+03  0.30452860508E+03  0.15230534192E+04  0.15924287773E+04  0.92465805581E+02 0.  0.
         23    2    4    4    0    0  0.33659016696E+03 -0.50544756607E+01  0.27827120447E+03  0.44638924465E+03  0.92249695268E+02 0.  0.
          4    1    3    3  502    0 -0.18292999169E+02 -0.18683643108E+02 -0.93367226397E+02  0.96959534361E+02  0.00000000000E+00 0. -1.
         -3    1    3    3    0  502  0.20598238586E+02 -0.28079048631E+03 -0.59187544902E+03  0.65542667918E+03  0.00000000000E+00 0.  1.
         13    1    5    5    0    0  0.22102133246E+01  0.10990702559E+02  0.15422281395E+02  0.19066393185E+02  0.00000000000E+00 0. -1.
        -13    1    5    5    0    0 -0.34110561971E+03  0.29353790252E+03  0.15076311378E+04  0.15733623841E+04  0.00000000000E+00 0.  1.
          4    1    6    6  503    0  0.29998234020E+03 -0.20051801700E+02  0.27368270976E+03  0.40656328511E+03  0.00000000000E+00 0.  1.
         -4    1    6    6    0  503  0.36607826769E+02  0.14997326039E+02  0.45884947117E+01  0.39825959534E+02  0.00000000000E+00 0. -1.
<mgrwt>
<rscale>  0 0.25583554E+04</rscale>
<asrwt>0</asrwt>
<pdfrwt beam="1">  1        2 0.30056047E+00 0.25583554E+04</pdfrwt>
<pdfrwt beam="2">  1       -1 0.12885556E+00 0.25583554E+04</pdfrwt>
<totfact> 0.37134906E+00</totfact>
</mgrwt>
</event>
<event>
12    7  0.1857704E-007  0.1676062E+04  0.7818608E-02  0.8775136E-01
         -1   -1    0    0    0  501 -0.00000000000E+00  0.00000000000E+00  0.10432844897E+04  0.10432844897E+04  0.00000000000E+00 0.  1.
          2   -1    0    0  501    0  0.00000000000E+00 -0.00000000000E+00 -0.67315843832E+03  0.67315843832E+03  0.00000000000E+00 0. -1.
         24    2    1    2    0    0  0.32355073754E+02  0.69387079907E+02  0.73227712033E+03  0.74057789448E+03  0.79777309891E+02 0.  0.
        254    2    1    2    0    0 -0.32355073754E+02 -0.69387079907E+02 -0.36215106900E+03  0.97586503350E+03  0.90293839722E+03 0.  0.
         23    2    4    4    0    0  0.12126761096E+03  0.38434243367E+03 -0.11248913021E+03  0.42798410761E+03  0.89953611185E+02 0.  0.
         23    2    4    4    0    0 -0.15362268471E+03 -0.45372951357E+03 -0.24966193878E+03  0.54788092589E+03  0.91498767934E+02 0.  0.
          4    1    3    3  502    0 -0.13471294844E+02 -0.94366331098E+00  0.25700772045E+02  0.29032670717E+02  0.00000000000E+00 0. -1.
         -3    1    3    3    0  502  0.45826368598E+02  0.70330743218E+02  0.70657634829E+03  0.71154522376E+03  0.00000000000E+00 0.  1.
         13    1    5    5    0    0  0.33832003791E+02  0.23695769493E+03 -0.43662305636E+02  0.24331039969E+03  0.00000000000E+00 0. -1.
        -13    1    5    5    0    0  0.87435607165E+02  0.14738473874E+03 -0.68826824575E+02  0.18467370792E+03  0.00000000000E+00 0.  1.
          3    1    6    6  503    0 -0.25290293172E+02 -0.20866701744E+03 -0.91692830598E+02  0.22932313071E+03  0.00000000000E+00 0. -1.
         -3    1    6    6    0  503 -0.12833239154E+03 -0.24506249613E+03 -0.15796910819E+03  0.31855779518E+03  0.00000000000E+00 0.  1.
<mgrwt>
<rscale>  0 0.16760618E+04</rscale>
<asrwt>0</asrwt>
<pdfrwt beam="1">  1        2 0.10356284E+00 0.16760618E+04</pdfrwt>
<pdfrwt beam="2">  1       -1 0.16050531E+00 0.16760618E+04</pdfrwt>
<totfact> 0.13575833E+01</totfact>
</mgrwt>
</event>
<event>
12    7  0.1857704E-007  0.1757798E+04  0.7818608E-02  0.8729070E-01
         -1   -1    0    0    0  501 -0.00000000000E+00  0.00000000000E+00  0.39481792226E+04  0.39481792226E+04  0.00000000000E+00 0.  1.
          4   -1    0    0  501    0  0.00000000000E+00 -0.00000000000E+00 -0.19565052627E+03  0.19565052627E+03  0.00000000000E+00 0. -1.
         24    2    1    2    0    0  0.34948527961E+03  0.47733975725E+03  0.78309300118E+03  0.98455050624E+03  0.78178298270E+02 0.  0.
        254    2    1    2    0    0 -0.34948527961E+03 -0.47733975725E+03  0.29694356951E+04  0.31592792426E+04  0.90194444439E+03 0.  0.
         23    2    4    4    0    0  0.22924841951E+03  0.33251272428E+02  0.37819482871E+03  0.45396798645E+03  0.96928423540E+02 0.  0.
         23    2    4    4    0    0 -0.57873369912E+03 -0.51059102968E+03  0.25912408664E+04  0.27053112562E+04  0.92433061361E+02 0.  0.
          4    1    3    3  502    0  0.23064749144E+03  0.26662016465E+03  0.50614720172E+03  0.61682215209E+03  0.00000000000E+00 0. -1.
         -3    1    3    3    0  502  0.11883778817E+03  0.21071959260E+03  0.27694579946E+03  0.36772835414E+03  0.00000000000E+00 0.  1.
         13    1    5    5    0    0  0.89213570958E+02  0.34187684280E+02  0.23500498775E+03  0.25368327352E+03  0.00000000000E+00 0. -1.
        -13    1    5    5    0    0  0.14003484855E+03 -0.93641185225E+00  0.14318984097E+03  0.20028471293E+03  0.00000000000E+00 0.  1.
          1    1    6    6  503    0 -0.49748082479E+03 -0.42421072296E+03  0.20720029061E+04  0.21727029137E+04  0.00000000000E+00 0. -1.
         -1    1    6    6    0  503 -0.81252874331E+02 -0.86380306717E+02  0.51923796036E+03  0.53260834246E+03  0.00000000000E+00 0.  1.
<mgrwt>
<rscale>  0 0.17577979E+04</rscale>
<asrwt>0</asrwt>
<pdfrwt beam="1">  1        4 0.30100084E-01 0.17577979E+04</pdfrwt>
<pdfrwt beam="2">  1       -1 0.60741213E+00 0.17577979E+04</pdfrwt>
<totfact> 0.17484166E-02</totfact>
</mgrwt>
</event>
<event>
12    7  0.1857704E-007  0.2720702E+04  0.7818608E-02  0.8328319E-01
          2   -1    0    0  501    0  0.00000000000E+00  0.00000000000E+00  0.20505233776E+04  0.20505233776E+04  0.00000000000E+00 0. -1.
         -1   -1    0    0    0  501 -0.00000000000E+00 -0.00000000000E+00 -0.90247931295E+03  0.90247931295E+03  0.00000000000E+00 0.  1.
         24    2    1    2    0    0 -0.18890766910E+03  0.93520398206E+03  0.13118205029E+04  0.16238947108E+04  0.76605511771E+02 0.  0.
        254    2    1    2    0    0  0.18890766910E+03 -0.93520398206E+03 -0.16377643825E+03  0.13291079797E+04  0.91072098064E+03 0.  0.
         23    2    4    4    0    0 -0.11983226094E+03 -0.30692667167E+02  0.24201920936E+03  0.28647817196E+03  0.90524221791E+02 0.  0.
         23    2    4    4    0    0  0.30873993005E+03 -0.90451131489E+03 -0.40579564761E+03  0.10426298078E+04  0.94581950068E+02 0.  0.
          4    1    3    3  502    0 -0.13686311373E+03  0.59355581367E+03  0.78031200190E+03  0.98991253964E+03  0.00000000000E+00 0. -1.
         -3    1    3    3    0  502 -0.52044555375E+02  0.34164816839E+03  0.53150850096E+03  0.63398217113E+03  0.00000000000E+00 0.  1.
         13    1    5    5    0    0  0.54620910177E+01 -0.27384103113E+02  0.46073486717E+02  0.53874759580E+02  0.00000000000E+00 0.  1.
        -13    1    5    5    0    0 -0.12529435196E+03 -0.33085640540E+01  0.19594572264E+03  0.23260341238E+03  0.00000000000E+00 0. -1.
          4    1    6    6  503    0  0.31172506424E+03 -0.86472420929E+03 -0.39941485017E+03  0.10022238754E+04  0.00000000000E+00 0. -1.
         -4    1    6    6    0  503 -0.29851341984E+01 -0.39787105602E+02 -0.63807974321E+01  0.40405932414E+02  0.00000000000E+00 0.  1.
<mgrwt>
<rscale>  0 0.27207021E+04</rscale>
<asrwt>0</asrwt>
<pdfrwt beam="1">  1        2 0.31546513E+00 0.27207021E+04</pdfrwt>
<pdfrwt beam="2">  1       -1 0.13884297E+00 0.27207021E+04</pdfrwt>
<totfact> 0.26723010E+00</totfact>
</mgrwt>
</event>
<event>
12    7  0.1857704E-007  0.1041539E+04  0.7818608E-02  0.9264123E-01
         -1   -1    0    0    0  501 -0.00000000000E+00  0.00000000000E+00  0.61761625342E+03  0.61761625342E+03  0.00000000000E+00 0.  1.
          2   -1    0    0  501    0  0.00000000000E+00 -0.00000000000E+00 -0.43910937024E+03  0.43910937024E+03  0.00000000000E+00 0. -1.
         24    2    1    2    0    0 -0.10312048038E+03  0.16577604160E+02  0.16718142850E+02  0.13699681871E+03  0.87063089782E+02 0.  0.
        254    2    1    2    0    0  0.10312048038E+03 -0.16577604160E+02  0.16178874033E+03  0.91972880495E+03  0.89934244185E+03 0.  0.
         23    2    4    4    0    0 -0.24080247256E+03  0.12973926700E+03  0.38104313809E+03  0.47776586709E+03  0.90819835247E+02 0.  0.
         23    2    4    4    0    0  0.34392295294E+03 -0.14631687116E+03 -0.21925439776E+03  0.44196293786E+03  0.86989212911E+02 0.  0.
          2    1    3    3  502    0 -0.10040114950E+03 -0.95443708137E+01 -0.76850780119E+01  0.10114616285E+03  0.00000000000E+00 0. -1.
         -1    1    3    3    0  502 -0.27193308775E+01  0.26121974974E+02  0.24403220862E+02  0.35850655857E+02  0.00000000000E+00 0.  1.
         13    1    5    5    0    0 -0.15403423947E+03  0.11328052272E+03  0.31087450402E+03  0.36496846577E+03  0.00000000000E+00 0. -1.
        -13    1    5    5    0    0 -0.86768233087E+02  0.16458744289E+02  0.70168634068E+02  0.11279740132E+03  0.00000000000E+00 0.  1.
          1    1    6    6  503    0  0.26332258236E+03 -0.15001731695E+03 -0.17327743543E+03  0.34909747549E+03  0.00000000000E+00 0. -1.
         -1    1    6    6    0  503  0.80600370577E+02  0.37004457866E+01 -0.45976962326E+02  0.92865462369E+02  0.00000000000E+00 0.  1.
<mgrwt>
<rscale>  0 0.10415394E+04</rscale>
<asrwt>0</asrwt>
<pdfrwt beam="1">  1        2 0.67555287E-01 0.10415394E+04</pdfrwt>
<pdfrwt beam="2">  1       -1 0.95017886E-01 0.10415394E+04</pdfrwt>
<totfact> 0.87310836E+01</totfact>
</mgrwt>
</event>
<event>
12    7  0.1857704E-007  0.1316629E+04  0.7818608E-02  0.9016481E-01
         -1   -1    0    0    0  501 -0.00000000000E+00  0.00000000000E+00  0.22737702560E+03  0.22737702560E+03  0.00000000000E+00 0.  1.
          2   -1    0    0  501    0  0.00000000000E+00 -0.00000000000E+00 -0.19059897662E+04  0.19059897662E+04  0.00000000000E+00 0. -1.
         24    2    1    2    0    0 -0.25089826001E+03  0.17080076306E+03 -0.17178830968E+03  0.35796616864E+03  0.80658025055E+02 0.  0.
        254    2    1    2    0    0  0.25089826001E+03 -0.17080076306E+03 -0.15068244309E+04  0.17754006232E+04  0.88848447909E+03 0.  0.
         23    2    4    4    0    0  0.86233549853E+02  0.34010966740E+03 -0.38769036465E+03  0.53101451785E+03  0.92529932145E+02 0.  0.
         23    2    4    4    0    0  0.16466471016E+03 -0.51091043046E+03 -0.11191340663E+04  0.12443861053E+04  0.88835725310E+02 0.  0.
          2    1    3    3  502    0 -0.10299594623E+03  0.51214423432E+02 -0.25003458426E+02  0.11771259508E+03  0.00000000000E+00 0. -1.
         -1    1    3    3    0  502 -0.14790231378E+03  0.11958633963E+03 -0.14678485126E+03  0.24025357355E+03  0.00000000000E+00 0.  1.
         13    1    5    5    0    0  0.69027494114E+02  0.16410135129E+03 -0.13904693084E+03  0.22589399597E+03  0.00000000000E+00 0.  1.
        -13    1    5    5    0    0  0.17206055739E+02  0.17600831611E+03 -0.24864343381E+03  0.30512052188E+03  0.00000000000E+00 0. -1.
          3    1    6    6  503    0  0.15092399563E+03 -0.42880469865E+03 -0.86832546701E+03  0.98012276716E+03  0.00000000000E+00 0. -1.
         -3    1    6    6    0  503  0.13740714531E+02 -0.82105731809E+02 -0.25080859926E+03  0.26426333816E+03  0.00000000000E+00 0.  1.
<mgrwt>
<rscale>  0 0.13166295E+04</rscale>
<asrwt>0</asrwt>
<pdfrwt beam="1">  1        2 0.29322920E+00 0.13166295E+04</pdfrwt>
<pdfrwt beam="2">  1       -1 0.34981081E-01 0.13166295E+04</pdfrwt>
<totfact> 0.65309300E+01</totfact>
</mgrwt>
</event>
<event>
12    7  0.1857704E-007  0.1140973E+04  0.7818608E-02  0.9166152E-01
         -1   -1    0    0    0  501 -0.00000000000E+00  0.00000000000E+00  0.81766392094E+02  0.81766392094E+02  0.00000000000E+00 0.  1.
          2   -1    0    0  501    0  0.00000000000E+00 -0.00000000000E+00 -0.39803034562E+04  0.39803034562E+04  0.00000000000E+00 0. -1.
         24    2    1    2    0    0  0.62185045286E+02  0.18577025569E+03 -0.96993494635E+03  0.99237251430E+03  0.75178715288E+02 0.  0.
        254    2    1    2    0    0 -0.62185045286E+02 -0.18577025569E+03 -0.29286021177E+04  0.30696973340E+04  0.89886249808E+03 0.  0.
         23    2    4    4    0    0  0.10744483072E+03 -0.21324214125E+03 -0.17469241541E+03  0.30892703742E+03  0.88892474338E+02 0.  0.
         23    2    4    4    0    0 -0.16962987600E+03  0.27471885562E+02 -0.27539097023E+04  0.27607702966E+04  0.91131676497E+02 0.  0.
          4    1    3    3  502    0  0.19288224003E+02  0.50347008748E+02 -0.45566280810E+03  0.45884142311E+03  0.00000000000E+00 0. -1.
         -3    1    3    3    0  502  0.42896821282E+02  0.13542324694E+03 -0.51427213825E+03  0.53353109119E+03  0.00000000000E+00 0.  1.
         13    1    5    5    0    0  0.39579174646E+02 -0.47432350154E+02 -0.47029605413E+01  0.61955280200E+02  0.00000000000E+00 0.  1.
        -13    1    5    5    0    0  0.67865656069E+02 -0.16580979109E+03 -0.16998945487E+03  0.24697175722E+03  0.00000000000E+00 0. -1.
          2    1    6    6  503    0 -0.17419548307E+03  0.41773355354E+02 -0.25818508782E+04  0.25880577731E+04  0.00000000000E+00 0. -1.
         -2    1    6    6    0  503  0.45656070740E+01 -0.14301469791E+02 -0.17205882412E+03  0.17271252347E+03  0.00000000000E+00 0.  1.
<mgrwt>
<rscale>  0 0.11409734E+04</rscale>
<asrwt>0</asrwt>
<pdfrwt beam="1">  1        2 0.61235438E+00 0.11409734E+04</pdfrwt>
<pdfrwt beam="2">  1       -1 0.12579445E-01 0.11409734E+04</pdfrwt>
<totfact> 0.18302432E+01</totfact>
</mgrwt>
</event>
<event>
12    7  0.1857704E-007  0.1086052E+04  0.7818608E-02  0.9218894E-01
         -1   -1    0    0    0  501 -0.00000000000E+00  0.00000000000E+00  0.18935434480E+03  0.18935434480E+03  0.00000000000E+00 0.  1.
          2   -1    0    0  501    0  0.00000000000E+00 -0.00000000000E+00 -0.15572763773E+04  0.15572763773E+04  0.00000000000E+00 0. -1.
         24    2    1    2    0    0 -0.18991499433E+02  0.11029646197E+03 -0.56254778805E+02  0.14838209870E+03  0.79540307396E+02 0.  0.
        254    2    1    2    0    0  0.18991499433E+02 -0.11029646197E+03 -0.13116672537E+04  0.15982486234E+04  0.90631213788E+03 0.  0.
         23    2    4    4    0    0  0.41552287374E+03  0.66837420776E+02 -0.87450691030E+03  0.97510574191E+03  0.94564117475E+02 0.  0.
         23    2    4    4    0    0 -0.39653137431E+03 -0.17713388275E+03 -0.43716034341E+03  0.62314288152E+03  0.92651722662E+02 0.  0.
          4    1    3    3  502    0 -0.42190402508E+02  0.40229564112E+02 -0.45167223013E+02  0.73746362128E+02  0.00000000000E+00 0. -1.
         -3    1    3    3    0  502  0.23198903074E+02  0.70066897859E+02 -0.11087555792E+02  0.74635736567E+02  0.00000000000E+00 0.  1.
         13    1    5    5    0    0  0.10284452862E+02 -0.14687751270E+02 -0.33001781629E+02  0.37558189503E+02  0.00000000000E+00 0. -1.
        -13    1    5    5    0    0  0.40523842088E+03  0.81525172046E+02 -0.84150512867E+03  0.93754755240E+03  0.00000000000E+00 0.  1.
          1    1    6    6  503    0 -0.20174481491E+03 -0.13704166196E+03 -0.26448165323E+03  0.35976649698E+03  0.00000000000E+00 0. -1.
         -1    1    6    6    0  503 -0.19478655940E+03 -0.40092220783E+02 -0.17267869018E+03  0.26337638453E+03  0.00000000000E+00 0.  1.
<mgrwt>
<rscale>  0 0.10860517E+04</rscale>
<asrwt>0</asrwt>
<pdfrwt beam="1">  1        2 0.23958098E+00 0.10860517E+04</pdfrwt>
<pdfrwt beam="2">  1       -1 0.29131438E-01 0.10860517E+04</pdfrwt>
<totfact> 0.14325612E+02</totfact>
</mgrwt>
</event>
<event>
12    7  0.1857704E-007  0.1502863E+04  0.7818608E-02  0.8882551E-01
          2   -1    0    0  501    0  0.00000000000E+00  0.00000000000E+00  0.48803416931E+03  0.48803416931E+03  0.00000000000E+00 0. -1.
         -1   -1    0    0    0  501 -0.00000000000E+00 -0.00000000000E+00 -0.11569869719E+04  0.11569869719E+04  0.00000000000E+00 0.  1.
         24    2    1    2    0    0  0.14766216583E+03 -0.22360406909E+03 -0.65453590428E+03  0.71156149757E+03  0.78100063337E+02 0.  0.
        254    2    1    2    0    0 -0.14766216583E+03  0.22360406909E+03 -0.14416898324E+02  0.93345964366E+03  0.89405601864E+03 0.  0.
         23    2    4    4    0    0  0.31071129267E+03  0.31273904070E+03  0.55586080846E+02  0.45364086758E+03  0.91394799555E+02 0.  0.
         23    2    4    4    0    0 -0.45837345850E+03 -0.89134971608E+02 -0.70002979170E+02  0.47981877608E+03  0.85289918319E+02 0.  0.
          4    1    3    3  502    0  0.16020564533E+02 -0.92615824584E+01 -0.11240052704E+03  0.11391362463E+03  0.00000000000E+00 0. -1.
         -3    1    3    3    0  502  0.13164160130E+03 -0.21434248663E+03 -0.54213537724E+03  0.59764787294E+03  0.00000000000E+00 0.  1.
         13    1    5    5    0    0 -0.28780396862E+01 -0.35681422689E+01  0.20675100556E+01  0.50288517095E+01  0.00000000000E+00 0.  1.
        -13    1    5    5    0    0  0.31358933236E+03  0.31630718297E+03  0.53518570790E+02  0.44861201587E+03  0.00000000000E+00 0. -1.
          1    1    6    6  503    0 -0.17358311808E+03 -0.34797808276E+02 -0.68669304274E+02  0.18988801882E+03  0.00000000000E+00 0. -1.
         -1    1    6    6    0  503 -0.28479034042E+03 -0.54337163332E+02 -0.13336748962E+01  0.28993075726E+03  0.00000000000E+00 0.  1.
<mgrwt>
<rscale>  0 0.15028628E+04</rscale>
<asrwt>0</asrwt>
<pdfrwt beam="1">  1        2 0.75082181E-01 0.15028628E+04</pdfrwt>
<pdfrwt beam="2">  1       -1 0.17799799E+00 0.15028628E+04</pdfrwt>
<totfact> 0.15048327E+01</totfact>
</mgrwt>
</event>
<event>
12    7  0.1857704E-007  0.2017664E+04  0.7818608E-02  0.8598406E-01
          2   -1    0    0  501    0  0.00000000000E+00  0.00000000000E+00  0.92045196463E+03  0.92045196463E+03  0.00000000000E+00 0. -1.
         -1   -1    0    0    0  501 -0.00000000000E+00 -0.00000000000E+00 -0.11056985553E+04  0.11056985553E+04  0.00000000000E+00 0.  1.
         24    2    1    2    0    0 -0.36586467538E+03 -0.24485242684E+03  0.60301605629E+03  0.75096240968E+03  0.80662909656E+02 0.  0.
        254    2    1    2    0    0  0.36586467538E+03  0.24485242684E+03 -0.78826264695E+03  0.12751881102E+04  0.90052042969E+03 0.  0.
         23    2    4    4    0    0 -0.10060147560E+02  0.48067758936E+03 -0.61960103806E+03  0.79016606188E+03  0.96461430147E+02 0.  0.
         23    2    4    4    0    0  0.37592482294E+03 -0.23582516252E+03 -0.16866160889E+03  0.48502204835E+03  0.99331109379E+02 0.  0.
          4    1    3    3  502    0 -0.27406249954E+03 -0.14708634006E+03  0.45585265117E+03  0.55185712341E+03  0.00000000000E+00 0. -1.
         -3    1    3    3    0  502 -0.91802175842E+02 -0.97766086781E+02  0.14716340512E+03  0.19910528627E+03  0.00000000000E+00 0.  1.
         13    1    5    5    0    0 -0.47174266570E+02  0.37504373945E+03 -0.49115693544E+03  0.61977282383E+03  0.00000000000E+00 0. -1.
        -13    1    5    5    0    0  0.37114119010E+02  0.10563384991E+03 -0.12844410262E+03  0.17039323805E+03  0.00000000000E+00 0.  1.
          4    1    6    6  503    0  0.33488866238E+03 -0.23152601778E+03 -0.12722321689E+03  0.42654479251E+03  0.00000000000E+00 0. -1.
         -4    1    6    6    0  503  0.41036160557E+02 -0.42991447356E+01 -0.41438391995E+02  0.58477255834E+02  0.00000000000E+00 0.  1.
<mgrwt>
<rscale>  0 0.20176644E+04</rscale>
<asrwt>0</asrwt>
<pdfrwt beam="1">  1        2 0.14160800E+00 0.20176644E+04</pdfrwt>
<pdfrwt beam="2">  1       -1 0.17010747E+00 0.20176644E+04</pdfrwt>
<totfact> 0.73846740E+00</totfact>
</mgrwt>
</event>
<event>
12    7  0.1857704E-007  0.1561777E+04  0.7818608E-02  0.8844380E-01
          2   -1    0    0  501    0  0.00000000000E+00  0.00000000000E+00  0.80822111502E+03  0.80822111502E+03  0.00000000000E+00 0. -1.
         -1   -1    0    0    0  501 -0.00000000000E+00 -0.00000000000E+00 -0.75448060201E+03  0.75448060201E+03  0.00000000000E+00 0.  1.
         24    2    1    2    0    0 -0.28512154033E+03 -0.96643941498E+02  0.43704678334E+03  0.53659458617E+03  0.79306461846E+02 0.  0.
        254    2    1    2    0    0  0.28512154033E+03  0.96643941498E+02 -0.38330627033E+03  0.10261071309E+04  0.90296057662E+03 0.  0.
         23    2    4    4    0    0  0.13201440232E+03 -0.13654446845E+03 -0.61599567335E+03  0.65154375018E+03  0.94796595594E+02 0.  0.
         23    2    4    4    0    0  0.15310713801E+03  0.23318840995E+03  0.23268940302E+03  0.37456338067E+03  0.91294784176E+02 0.  0.
          4    1    3    3  502    0 -0.27172932467E+03 -0.89081291008E+02  0.43569548911E+03  0.52115531420E+03  0.00000000000E+00 0. -1.
         -3    1    3    3    0  502 -0.13392215662E+02 -0.75626504903E+01  0.13512942315E+01  0.15439271967E+02  0.00000000000E+00 0.  1.
         13    1    5    5    0    0  0.11740397653E+03 -0.12713595507E+03 -0.60848114873E+03  0.63261090185E+03  0.00000000000E+00 0. -1.
        -13    1    5    5    0    0  0.14610425791E+02 -0.94085133808E+01 -0.75145246143E+01  0.18932848333E+02  0.00000000000E+00 0.  1.
          3    1    6    6  503    0  0.15877744220E+03  0.23458320701E+03  0.23522354582E+03  0.36819787298E+03  0.00000000000E+00 0. -1.
         -3    1    6    6    0  503 -0.56703041863E+01 -0.13947970582E+01 -0.25341428008E+01  0.63655076886E+01  0.00000000000E+00 0.  1.
<mgrwt>
<rscale>  0 0.15617774E+04</rscale>
<asrwt>0</asrwt>
<pdfrwt beam="1">  1        2 0.12434171E+00 0.15617774E+04</pdfrwt>
<pdfrwt beam="2">  1       -1 0.11607394E+00 0.15617774E+04</pdfrwt>
<totfact> 0.25048192E+01</totfact>
</mgrwt>
</event>
<event>
12    7  0.1857704E-007  0.2022154E+04  0.7818608E-02  0.8596332E-01
         -1   -1    0    0    0  501 -0.00000000000E+00  0.00000000000E+00  0.97321347467E+03  0.97321347467E+03  0.00000000000E+00 0.  1.
          2   -1    0    0  501    0  0.00000000000E+00 -0.00000000000E+00 -0.10504135490E+04  0.10504135490E+04  0.00000000000E+00 0. -1.
         24    2    1    2    0    0  0.18145942258E+03 -0.27405875832E+03 -0.76712192101E+03  0.83849597853E+03  0.81016907322E+02 0.  0.
        254    2    1    2    0    0 -0.18145942258E+03  0.27405875832E+03  0.68992184673E+03  0.11851310451E+04  0.90581880881E+03 0.  0.
         23    2    4    4    0    0 -0.42122415861E+02  0.15530046003E+03 -0.19944679947E+03  0.27212082641E+03  0.91532439853E+02 0.  0.
         23    2    4    4    0    0 -0.13933700672E+03  0.11875829830E+03  0.88936864620E+03  0.91301021868E+03  0.95355837382E+02 0.  0.
          4    1    3    3  502    0  0.93185595850E+02 -0.20736234378E+03 -0.49315726228E+03  0.54303478916E+03  0.00000000000E+00 0. -1.
         -3    1    3    3    0  502  0.88273826730E+02 -0.66696414540E+02 -0.27396465872E+03  0.29546118938E+03  0.00000000000E+00 0.  1.
         13    1    5    5    0    0 -0.51961014158E+02  0.61444280052E+02 -0.48060590370E+02  0.93729221111E+02  0.00000000000E+00 0. -1.
        -13    1    5    5    0    0  0.98385982963E+01  0.93856179975E+02 -0.15138620910E+03  0.17839160530E+03  0.00000000000E+00 0.  1.
          3    1    6    6  503    0 -0.39372393758E+02 -0.35353251324E+01  0.91768923671E+02  0.99921065175E+02  0.00000000000E+00 0. -1.
         -3    1    6    6    0  503 -0.99964612961E+02  0.12229362343E+03  0.79759972253E+03  0.81308915351E+03  0.00000000000E+00 0.  1.
<mgrwt>
<rscale>  0 0.20221539E+04</rscale>
<asrwt>0</asrwt>
<pdfrwt beam="1">  1        2 0.16160208E+00 0.20221539E+04</pdfrwt>
<pdfrwt beam="2">  1       -1 0.14972515E+00 0.20221539E+04</pdfrwt>
<totfact> 0.86769364E+00</totfact>
</mgrwt>
</event>
<event>
12    7  0.1857704E-007  0.2837514E+04  0.7818608E-02  0.8291716E-01
          2   -1    0    0  501    0  0.00000000000E+00  0.00000000000E+00  0.30421148002E+04  0.30421148002E+04  0.00000000000E+00 0. -1.
         -1   -1    0    0    0  501 -0.00000000000E+00 -0.00000000000E+00 -0.66166843831E+03  0.66166843831E+03  0.00000000000E+00 0.  1.
         24    2    1    2    0    0 -0.11510880154E+04  0.31091684269E+03  0.16545639600E+04  0.20410204461E+04  0.80682472375E+02 0.  0.
        254    2    1    2    0    0  0.11510880154E+04 -0.31091684269E+03  0.72588240193E+03  0.16627627925E+04  0.90343895225E+03 0.  0.
         23    2    4    4    0    0  0.11818813666E+04 -0.33688853097E+03  0.36086264653E+03  0.12840857282E+04  0.91196823082E+02 0.  0.
         23    2    4    4    0    0 -0.30793351249E+02  0.25971688280E+02  0.36501975540E+03  0.37867706433E+03  0.92380399119E+02 0.  0.
          4    1    3    3  502    0 -0.10929398469E+04  0.31295832543E+03  0.15715986670E+04  0.19396862613E+04  0.00000000000E+00 0. -1.
         -3    1    3    3    0  502 -0.58148168491E+02 -0.20414827317E+01  0.82965293043E+02  0.10133418476E+03  0.00000000000E+00 0.  1.
         13    1    5    5    0    0  0.92977516507E+03 -0.28936005754E+03  0.31521204972E+03  0.10235085426E+04  0.00000000000E+00 0. -1.
        -13    1    5    5    0    0  0.25210620155E+03 -0.47528473437E+02  0.45650596803E+02  0.26057718556E+03  0.00000000000E+00 0.  1.
          4    1    6    6  503    0 -0.10569533960E+02 -0.34719110796E+02  0.11421639035E+03  0.11984371292E+03  0.00000000000E+00 0.  1.
         -4    1    6    6    0  503 -0.20223817289E+02  0.60690799077E+02  0.25080336505E+03  0.25883335140E+03  0.00000000000E+00 0. -1.
<mgrwt>
<rscale>  0 0.28375139E+04</rscale>
<asrwt>0</asrwt>
<pdfrwt beam="1">  1        2 0.46801766E+00 0.28375139E+04</pdfrwt>
<pdfrwt beam="2">  1       -1 0.10179515E+00 0.28375139E+04</pdfrwt>
<totfact> 0.14767032E+00</totfact>
</mgrwt>
</event>
<event>
12    7  0.1857704E-007  0.1387731E+04  0.7818608E-02  0.8962748E-01
          2   -1    0    0  501    0  0.00000000000E+00  0.00000000000E+00  0.45046840487E+03  0.45046840487E+03  0.00000000000E+00 0. -1.
         -1   -1    0    0    0  501 -0.00000000000E+00 -0.00000000000E+00 -0.10687741821E+04  0.10687741821E+04  0.00000000000E+00 0.  1.
         24    2    1    2    0    0  0.42131725608E+02 -0.38089258394E+03 -0.26695764230E+03  0.47403005007E+03  0.81141005576E+02 0.  0.
        254    2    1    2    0    0 -0.42131725608E+02  0.38089258394E+03 -0.35134813496E+03  0.10452125369E+04  0.90673562443E+03 0.  0.
         23    2    4    4    0    0 -0.16567795671E+02  0.20903717910E+03  0.29249065450E+03  0.37227007880E+03  0.95200811428E+02 0.  0.
         23    2    4    4    0    0 -0.25563929936E+02  0.17185540484E+03 -0.64383878946E+03  0.67294245813E+03  0.90196288440E+02 0.  0.
          2    1    3    3  502    0 -0.15847270088E+02 -0.39573759979E+02 -0.48904109177E+02  0.64875498784E+02  0.00000000000E+00 0. -1.
         -1    1    3    3    0  502  0.57978995696E+02 -0.34131882396E+03 -0.21805353312E+03  0.40915455129E+03  0.00000000000E+00 0.  1.
         13    1    5    5    0    0  0.28406941996E+02  0.50737688919E+02  0.38891928739E+02  0.69956054430E+02  0.00000000000E+00 0. -1.
        -13    1    5    5    0    0 -0.44974737667E+02  0.15829949018E+03  0.25359872577E+03  0.30231402437E+03  0.00000000000E+00 0.  1.
          2    1    6    6  503    0 -0.18391884517E+02  0.39905374090E+02 -0.60195867629E+02  0.74526792343E+02  0.00000000000E+00 0. -1.
         -2    1    6    6    0  503 -0.71720454194E+01  0.13195003075E+03 -0.58364292183E+03  0.59841566578E+03  0.00000000000E+00 0.  1.
<mgrwt>
<rscale>  0 0.13877305E+04</rscale>
<asrwt>0</asrwt>
<pdfrwt beam="1">  1        2 0.69302832E-01 0.13877305E+04</pdfrwt>
<pdfrwt beam="2">  1       -1 0.16442680E+00 0.13877305E+04</pdfrwt>
<totfact> 0.20947795E+01</totfact>
</mgrwt>
</event>
<event>
12    7  0.1857704E-007  0.4673174E+04  0.7818608E-02  0.7881001E-01
         -1   -1    0    0    0  501 -0.00000000000E+00  0.00000000000E+00  0.12802880132E+04  0.12802880132E+04  0.00000000000E+00 0.  1.
          2   -1    0    0  501    0  0.00000000000E+00 -0.00000000000E+00 -0.42643825621E+04  0.42643825621E+04  0.00000000000E+00 0. -1.
         24    2    1    2    0    0  0.13482718611E+04  0.67898824061E+03  0.51895209352E+03  0.15982766868E+04  0.79467289171E+02 0.  0.
        254    2    1    2    0    0 -0.13482718611E+04 -0.67898824061E+03 -0.35030466424E+04  0.39463938885E+04  0.10118433187E+04 0.  0.
         23    2    4    4    0    0 -0.17749738387E+03  0.94475331881E+02 -0.63048749034E+02  0.23005204950E+03  0.92292421743E+02 0.  0.
         23    2    4    4    0    0 -0.11707744772E+04 -0.77346357249E+03 -0.34399978934E+04  0.37163418390E+04  0.93018186353E+02 0.  0.
          4    1    3    3  502    0  0.16625643705E+03  0.80745666182E+02  0.91518804672E+02  0.20624441102E+03  0.00000000000E+00 0. -1.
         -3    1    3    3    0  502  0.11820154240E+04  0.59824257443E+03  0.42743328885E+03  0.13920322758E+04  0.00000000000E+00 0.  1.
         13    1    5    5    0    0 -0.14858906622E+03  0.10315387909E+03 -0.77256153349E+02  0.19669251791E+03  0.00000000000E+00 0.  1.
        -13    1    5    5    0    0 -0.28908317646E+02 -0.86785472053E+01  0.14207404315E+02  0.33359531592E+02  0.00000000000E+00 0. -1.
          1    1    6    6  503    0 -0.27458816397E+03 -0.22029150755E+03 -0.79995927719E+03  0.87399190686E+03  0.00000000000E+00 0. -1.
         -1    1    6    6    0  503 -0.89618631323E+03 -0.55317206494E+03 -0.26400386162E+04  0.28423499321E+04  0.00000000000E+00 0.  1.
<mgrwt>
<rscale>  0 0.46731736E+04</rscale>
<asrwt>0</asrwt>
<pdfrwt beam="1">  1        2 0.65605887E+00 0.46731736E+04</pdfrwt>
<pdfrwt beam="2">  1       -1 0.19696738E+00 0.46731736E+04</pdfrwt>
<totfact> 0.27145988E-02</totfact>
</mgrwt>
</event>
<event>
12    7  0.1857704E-007  0.2100190E+04  0.7818608E-02  0.8561160E-01
         -1   -1    0    0    0  501 -0.00000000000E+00  0.00000000000E+00  0.10102165556E+04  0.10102165556E+04  0.00000000000E+00 0.  1.
          2   -1    0    0  501    0  0.00000000000E+00 -0.00000000000E+00 -0.10915477335E+04  0.10915477335E+04  0.00000000000E+00 0. -1.
         24    2    1    2    0    0  0.18200725677E+03  0.25882389062E+03 -0.82932422762E+03  0.89121593082E+03  0.79816746080E+02 0.  0.
        254    2    1    2    0    0 -0.18200725677E+03 -0.25882389062E+03  0.74799304971E+03  0.12105483583E+04  0.89767325764E+03 0.  0.
         23    2    4    4    0    0 -0.13112792249E+03  0.21355133082E+03  0.66937079110E+03  0.72046143074E+03  0.90601955035E+02 0.  0.
         23    2    4    4    0    0 -0.50879334277E+02 -0.47237522144E+03  0.78622258616E+02  0.49008692756E+03  0.90976263524E+02 0.  0.
          2    1    3    3  502    0  0.12613026625E+03  0.13790283491E+03 -0.56705551809E+03  0.59705778324E+03  0.00000000000E+00 0. -1.
         -1    1    3    3    0  502  0.55876990524E+02  0.12092105571E+03 -0.26226870954E+03  0.29415814758E+03  0.00000000000E+00 0.  1.
         13    1    5    5    0    0 -0.37267387501E+02  0.91603455566E+01  0.63553646323E+02  0.74241740704E+02  0.00000000000E+00 0.  1.
        -13    1    5    5    0    0 -0.93860534992E+02  0.20439098526E+03  0.60581714478E+03  0.64621969004E+03  0.00000000000E+00 0. -1.
          2    1    6    6  503    0 -0.65969466806E+02 -0.24358741954E+03  0.18439701106E+02  0.25303522301E+03  0.00000000000E+00 0. -1.
         -2    1    6    6    0  503  0.15090132529E+02 -0.22878780190E+03  0.60182557510E+02  0.23705170454E+03  0.00000000000E+00 0.  1.
<mgrwt>
<rscale>  0 0.21001901E+04</rscale>
<asrwt>0</asrwt>
<pdfrwt beam="1">  1        2 0.16793042E+00 0.21001901E+04</pdfrwt>
<pdfrwt beam="2">  1       -1 0.15541793E+00 0.21001901E+04</pdfrwt>
<totfact> 0.73406510E+00</totfact>
</mgrwt>
</event>
<event>
12    7  0.1857704E-007  0.1627120E+04  0.7818608E-02  0.8804058E-01
         -1   -1    0    0    0  501 -0.00000000000E+00  0.00000000000E+00  0.35211822826E+03  0.35211822826E+03  0.00000000000E+00 0.  1.
          2   -1    0    0  501    0  0.00000000000E+00 -0.00000000000E+00 -0.18797084430E+04  0.18797084430E+04  0.00000000000E+00 0. -1.
         24    2    1    2    0    0  0.54530580034E+03 -0.69017505507E+02 -0.40054062990E+03  0.68489952252E+03  0.80825291846E+02 0.  0.
        254    2    1    2    0    0 -0.54530580034E+03  0.69017505507E+02 -0.11270495848E+04  0.15469271487E+04  0.90588134147E+03 0.  0.
         23    2    4    4    0    0 -0.66806966684E+03  0.15478508109E+03 -0.11771216992E+04  0.13653089018E+04  0.90428985613E+02 0.  0.
         23    2    4    4    0    0  0.12276386651E+03 -0.85767575586E+02  0.50072114371E+02  0.18161824695E+03  0.89726958299E+02 0.  0.
          4    1    3    3  502    0  0.31682139138E+01  0.19311752446E+01  0.34601574453E+01  0.50734314596E+01  0.00000000000E+00 0. -1.
         -3    1    3    3    0  502  0.54213758642E+03 -0.70948680751E+02 -0.40400078734E+03  0.67982609106E+03  0.00000000000E+00 0.  1.
         13    1    5    5    0    0 -0.12488352077E+03  0.27042031535E+02 -0.15583288606E+03  0.20152184399E+03  0.00000000000E+00 0. -1.
        -13    1    5    5    0    0 -0.54318614607E+03  0.12774304956E+03 -0.10212888132E+04  0.11637870578E+04  0.00000000000E+00 0.  1.
          3    1    6    6  503    0  0.24570111716E+02 -0.27912154196E+02 -0.25302624790E+02  0.44977789661E+02  0.00000000000E+00 0. -1.
         -3    1    6    6    0  503  0.98193754789E+02 -0.57855421390E+02  0.75374739161E+02  0.13664045729E+03  0.00000000000E+00 0.  1.
<mgrwt>
<rscale>  0 0.16271197E+04</rscale>
<asrwt>0</asrwt>
<pdfrwt beam="1">  1        2 0.28918592E+00 0.16271197E+04</pdfrwt>
<pdfrwt beam="2">  1       -1 0.54172034E-01 0.16271197E+04</pdfrwt>
<totfact> 0.29230084E+01</totfact>
</mgrwt>
</event>
<event>
12    7  0.1857704E-007  0.1304491E+04  0.7818608E-02  0.9026011E-01
         -1   -1    0    0    0  501 -0.00000000000E+00  0.00000000000E+00  0.78006036933E+03  0.78006036933E+03  0.00000000000E+00 0.  1.
          2   -1    0    0  501    0  0.00000000000E+00 -0.00000000000E+00 -0.54537367928E+03  0.54537367928E+03  0.00000000000E+00 0. -1.
         24    2    1    2    0    0  0.99691480289E+02 -0.28126161834E+03  0.21103133364E+03  0.37398158895E+03  0.79256014931E+02 0.  0.
        254    2    1    2    0    0 -0.99691480289E+02  0.28126161834E+03  0.23655356412E+02  0.95145245966E+03  0.90313659980E+03 0.  0.
         23    2    4    4    0    0 -0.86358362157E+02  0.52598888130E+03  0.25893290549E+03  0.60002007134E+03  0.94105082250E+02 0.  0.
         23    2    4    4    0    0 -0.13333118132E+02 -0.24472726296E+03 -0.23527754907E+03  0.35143238831E+03  0.89888782289E+02 0.  0.
          4    1    3    3  502    0  0.22752618443E+02 -0.57892585411E+02  0.87582454878E+02  0.10742401731E+03  0.00000000000E+00 0. -1.
         -1    1    3    3    0  502  0.76938861846E+02 -0.22336903293E+03  0.12344887876E+03  0.26655757165E+03  0.00000000000E+00 0.  1.
         13    1    5    5    0    0 -0.68252762897E+02  0.17237670082E+03  0.11249407727E+03  0.21685728959E+03  0.00000000000E+00 0.  1.
        -13    1    5    5    0    0 -0.18105599260E+02  0.35361218049E+03  0.14643882821E+03  0.38316278175E+03  0.00000000000E+00 0. -1.
          2    1    6    6  503    0 -0.35711584468E+02 -0.20213828970E+03 -0.15260536007E+03  0.25578037718E+03  0.00000000000E+00 0. -1.
         -2    1    6    6    0  503  0.22378466337E+02 -0.42588973259E+02 -0.82672189004E+02  0.95652011132E+02  0.00000000000E+00 0.  1.
<mgrwt>
<rscale>  0 0.13044913E+04</rscale>
<asrwt>0</asrwt>
<pdfrwt beam="1">  1        2 0.83903643E-01 0.13044913E+04</pdfrwt>
<pdfrwt beam="2">  1       -1 0.12000929E+00 0.13044913E+04</pdfrwt>
<totfact> 0.38569395E+01</totfact>
</mgrwt>
</event>
<event>
12    7  0.1857704E-007  0.2018250E+04  0.7818608E-02  0.8598135E-01
          2   -1    0    0  501    0  0.00000000000E+00  0.00000000000E+00  0.64398375054E+03  0.64398375054E+03  0.00000000000E+00 0. -1.
         -1   -1    0    0    0  501 -0.00000000000E+00 -0.00000000000E+00 -0.15813027626E+04  0.15813027626E+04  0.00000000000E+00 0.  1.
         24    2    1    2    0    0  0.29808151179E+03 -0.58962596724E+03  0.12662061775E+03  0.67750961901E+03  0.80468217901E+02 0.  0.
        254    2    1    2    0    0 -0.29808151179E+03  0.58962596724E+03 -0.10639396298E+04  0.15477768941E+04  0.90946930085E+03 0.  0.
         23    2    4    4    0    0 -0.61417004196E+03  0.35536368764E+03 -0.74686197929E+03  0.10342269532E+04  0.91292845856E+02 0.  0.
         23    2    4    4    0    0  0.31608853017E+03  0.23426227960E+03 -0.31707765048E+03  0.51354994089E+03  0.91676228134E+02 0.  0.
          2    1    3    3  502    0  0.16960190572E+03 -0.41867949074E+03  0.86192042093E+02  0.45987649484E+03  0.00000000000E+00 0. -1.
         -3    1    3    3    0  502  0.12847960606E+03 -0.17094647651E+03  0.40428575653E+02  0.21763312416E+03  0.00000000000E+00 0.  1.
         13    1    5    5    0    0 -0.48610836500E+03  0.32175899372E+03 -0.60293377603E+03  0.83866520785E+03  0.00000000000E+00 0.  1.
        -13    1    5    5    0    0 -0.12806167695E+03  0.33604693920E+02 -0.14392820326E+03  0.19556174537E+03  0.00000000000E+00 0. -1.
          2    1    6    6  503    0  0.74611604865E+02  0.85339295448E+02 -0.13571429214E+03  0.17682775806E+03  0.00000000000E+00 0. -1.
         -2    1    6    6    0  503  0.24147692530E+03  0.14892298415E+03 -0.18136335834E+03  0.33672218283E+03  0.00000000000E+00 0.  1.
<mgrwt>
<rscale>  0 0.20182500E+04</rscale>
<asrwt>0</asrwt>
<pdfrwt beam="1">  1        2 0.99074424E-01 0.20182500E+04</pdfrwt>
<pdfrwt beam="2">  1       -1 0.24327735E+00 0.20182500E+04</pdfrwt>
<totfact> 0.37167360E+00</totfact>
</mgrwt>
</event>
<event>
12    7  0.1857704E-007  0.3978643E+04  0.7818608E-02  0.8008869E-01
          2   -1    0    0  501    0  0.00000000000E+00  0.00000000000E+00  0.16599849363E+04  0.16599849363E+04  0.00000000000E+00 0. -1.
         -1   -1    0    0    0  501 -0.00000000000E+00 -0.00000000000E+00 -0.23839975744E+04  0.23839975744E+04  0.00000000000E+00 0.  1.
         24    2    1    2    0    0 -0.12723541930E+04  0.27394055097E+02 -0.17612242221E+04  0.21743256405E+04  0.78393902331E+02 0.  0.
        254    2    1    2    0    0  0.12723541930E+04 -0.27394055097E+02  0.10372115840E+04  0.18696568701E+04  0.89452407198E+03 0.  0.
         23    2    4    4    0    0  0.10956508694E+04  0.19852554334E+03  0.44147881703E+03  0.12012996955E+04  0.91401277278E+02 0.  0.
         23    2    4    4    0    0  0.17670332356E+03 -0.22591959843E+03  0.59573276695E+03  0.66835717461E+03  0.97673198578E+02 0.  0.
          4    1    3    3  502    0 -0.38413430738E+03 -0.18072873314E+01 -0.47381785598E+03  0.60997196087E+03  0.00000000000E+00 0. -1.
         -3    1    3    3    0  502 -0.88821988561E+03  0.29201342429E+02 -0.12874063661E+04  0.15643536797E+04  0.00000000000E+00 0.  1.
         13    1    5    5    0    0  0.59640403937E+03  0.66218330714E+02  0.25824094147E+03  0.65327714590E+03  0.00000000000E+00 0. -1.
        -13    1    5    5    0    0  0.49924683007E+03  0.13230721262E+03  0.18323787557E+03  0.54802254961E+03  0.00000000000E+00 0.  1.
          3    1    6    6  503    0 -0.17994088525E+01 -0.36316681475E+02  0.12748931353E+03  0.13257324123E+03  0.00000000000E+00 0. -1.
         -3    1    6    6    0  503  0.17850273241E+03 -0.18960291696E+03  0.46824345342E+03  0.53578393338E+03  0.00000000000E+00 0.  1.
<mgrwt>
<rscale>  0 0.39786430E+04</rscale>
<asrwt>0</asrwt>
<pdfrwt beam="1">  1        2 0.25538230E+00 0.39786430E+04</pdfrwt>
<pdfrwt beam="2">  1       -1 0.36676886E+00 0.39786430E+04</pdfrwt>
<totfact> 0.11150754E-01</totfact>
</mgrwt>
</event>
<event>
12    7  0.1857704E-007  0.2245436E+04  0.7818608E-02  0.8499751E-01
         -1   -1    0    0    0  501 -0.00000000000E+00  0.00000000000E+00  0.47053381956E+03  0.47053381956E+03  0.00000000000E+00 0.  1.
          2   -1    0    0  501    0  0.00000000000E+00 -0.00000000000E+00 -0.26788623138E+04  0.26788623138E+04  0.00000000000E+00 0. -1.
         24    2    1    2    0    0  0.54571900716E+03 -0.51094460200E+03 -0.17307949248E+04  0.18871685345E+04  0.82948085043E+02 0.  0.
        254    2    1    2    0    0 -0.54571900716E+03  0.51094460200E+03 -0.47753356950E+03  0.12622275989E+04  0.89794575582E+03 0.  0.
         23    2    4    4    0    0 -0.34355050634E+03 -0.54899781747E+02  0.14682952388E+03  0.39087276344E+03  0.10090426984E+03 0.  0.
         23    2    4    4    0    0 -0.20216850082E+03  0.56584438375E+03 -0.62436309339E+03  0.87135483549E+03  0.91531456896E+02 0.  0.
          2    1    3    3  502    0  0.37534040283E+03 -0.29692798130E+03 -0.10940858676E+04  0.11941819500E+04  0.00000000000E+00 0. -1.
         -1    1    3    3    0  502  0.17037860433E+03 -0.21401662070E+03 -0.63670905715E+03  0.69298658444E+03  0.00000000000E+00 0.  1.
         13    1    5    5    0    0 -0.33753957811E+02 -0.37163776162E+02  0.34265341349E+02  0.60783135361E+02  0.00000000000E+00 0. -1.
        -13    1    5    5    0    0 -0.30979654853E+03 -0.17736005585E+02  0.11256418253E+03  0.33008962808E+03  0.00000000000E+00 0.  1.
          4    1    6    6  503    0 -0.77915988547E+02  0.30098167483E+03 -0.37351311533E+03  0.48597625166E+03  0.00000000000E+00 0.  1.
         -4    1    6    6    0  503 -0.12425251227E+03  0.26486270891E+03 -0.25084997805E+03  0.38537858382E+03  0.00000000000E+00 0. -1.
<mgrwt>
<rscale>  0 0.22454357E+04</rscale>
<asrwt>0</asrwt>
<pdfrwt beam="1">  1        2 0.41213266E+00 0.22454357E+04</pdfrwt>
<pdfrwt beam="2">  1       -1 0.72389820E-01 0.22454357E+04</pdfrwt>
<totfact> 0.54538237E+00</totfact>
</mgrwt>
</event>
<event>
12    7  0.1857704E-007  0.1386826E+04  0.7818608E-02  0.8963410E-01
         -3   -1    0    0    0  501 -0.00000000000E+00  0.00000000000E+00  0.29585641842E+04  0.29585641842E+04  0.00000000000E+00 0.  1.
          4   -1    0    0  501    0  0.00000000000E+00 -0.00000000000E+00 -0.16251848414E+03  0.16251848414E+03  0.00000000000E+00 0. -1.
         24    2    1    2    0    0  0.78137006813E+02  0.99688686057E+02  0.16280156583E+04  0.16349731754E+04  0.81603153124E+02 0.  0.
        254    2    1    2    0    0 -0.78137006813E+02 -0.99688686057E+02  0.11680300418E+04  0.14861094930E+04  0.91004616404E+03 0.  0.
         23    2    4    4    0    0  0.32709461586E+03  0.12639857577E+03  0.82746511392E+03  0.90339587087E+03  0.91967913232E+02 0.  0.
         23    2    4    4    0    0 -0.40523162268E+03 -0.22608726183E+03  0.34056492791E+03  0.58271362215E+03  0.90788641059E+02 0.  0.
          2    1    3    3  502    0  0.38126907243E+01 -0.11850354989E+02  0.62336295865E+02  0.63567140144E+02  0.00000000000E+00 0. -1.
         -1    1    3    3    0  502  0.74324316089E+02  0.11153904105E+03  0.15656793624E+04  0.15714060352E+04  0.00000000000E+00 0.  1.
         13    1    5    5    0    0  0.32336638130E+03  0.13705671698E+03  0.80339455685E+03  0.87680851627E+03  0.00000000000E+00 0. -1.
        -13    1    5    5    0    0  0.37282345671E+01 -0.10658141211E+02  0.24070557069E+02  0.26587354601E+02  0.00000000000E+00 0.  1.
          2    1    6    6  503    0 -0.30441443290E+03 -0.12307275933E+03  0.22637959166E+03  0.39882674254E+03  0.00000000000E+00 0. -1.
         -2    1    6    6    0  503 -0.10081718978E+03 -0.10301450250E+03  0.11418533625E+03  0.18388687961E+03  0.00000000000E+00 0.  1.
<mgrwt>
<rscale>  0 0.13868257E+04</rscale>
<asrwt>0</asrwt>
<pdfrwt beam="1">  1        4 0.25002846E-01 0.13868257E+04</pdfrwt>
<pdfrwt beam="2">  1       -3 0.45516368E+00 0.13868257E+04</pdfrwt>
<totfact> 0.18288051E-01</totfact>
</mgrwt>
</event>
<event>
12    7  0.1857704E-007  0.1792294E+04  0.7818608E-02  0.8710408E-01
          2   -1    0    0  501    0  0.00000000000E+00  0.00000000000E+00  0.19738406152E+04  0.19738406152E+04  0.00000000000E+00 0. -1.
         -1   -1    0    0    0  501 -0.00000000000E+00 -0.00000000000E+00 -0.40686120667E+03  0.40686120667E+03  0.00000000000E+00 0.  1.
         24    2    1    2    0    0  0.53521970123E+03  0.32511250520E+03  0.86320328252E+03  0.10694577653E+04  0.80384919269E+02 0.  0.
        254    2    1    2    0    0 -0.53521970123E+03 -0.32511250520E+03  0.70377612601E+03  0.13112440565E+04  0.91208654778E+03 0.  0.
         23    2    4    4    0    0 -0.55262304125E+03 -0.26674395634E+01  0.32757980425E+02  0.56088993835E+03  0.90139318351E+02 0.  0.
         23    2    4    4    0    0  0.17403340013E+02 -0.32244506564E+03  0.67101814559E+03  0.75035411819E+03  0.92153428433E+02 0.  0.
          4    1    3    3  502    0  0.12794681362E+03  0.68606664272E+02  0.25967826407E+03  0.29750640720E+03  0.00000000000E+00 0. -1.
         -3    1    3    3    0  502  0.40727288761E+03  0.25650584093E+03  0.60352501845E+03  0.77195135813E+03  0.00000000000E+00 0.  1.
         13    1    5    5    0    0 -0.22640065033E+01  0.29763356062E+01 -0.81671067446E+01  0.89825348129E+01  0.00000000000E+00 0. -1.
        -13    1    5    5    0    0 -0.55035903474E+03 -0.56437751697E+01  0.40925087169E+02  0.55190740354E+03  0.00000000000E+00 0.  1.
          3    1    6    6  503    0 -0.33716094170E+02 -0.14451334601E+03  0.34246459401E+03  0.37323301078E+03  0.00000000000E+00 0. -1.
         -3    1    6    6    0  503  0.51119434182E+02 -0.17793171963E+03  0.32855355158E+03  0.37712110741E+03  0.00000000000E+00 0.  1.
<mgrwt>
<rscale>  0 0.17922937E+04</rscale>
<asrwt>0</asrwt>
<pdfrwt beam="1">  1        2 0.30366778E+00 0.17922937E+04</pdfrwt>
<pdfrwt beam="2">  1       -1 0.62594033E-01 0.17922937E+04</pdfrwt>
<totfact> 0.19241812E+01</totfact>
</mgrwt>
</event>
<event>
12    7  0.1857704E-007  0.1736134E+04  0.7818608E-02  0.8741020E-01
          2   -1    0    0  501    0  0.00000000000E+00  0.00000000000E+00  0.88157518753E+03  0.88157518753E+03  0.00000000000E+00 0. -1.
         -1   -1    0    0    0  501 -0.00000000000E+00 -0.00000000000E+00 -0.85476624056E+03  0.85476624056E+03  0.00000000000E+00 0.  1.
         24    2    1    2    0    0  0.18654386554E+03  0.43016422884E+03 -0.41622832901E+03  0.63032397052E+03  0.64980061498E+02 0.  0.
        254    2    1    2    0    0 -0.18654386554E+03 -0.43016422884E+03  0.44303727599E+03  0.11060174576E+04  0.89841678023E+03 0.  0.
         23    2    4    4    0    0 -0.36515525864E+03 -0.26743111521E+03  0.63495194396E+03  0.78596390971E+03  0.98577542803E+02 0.  0.
         23    2    4    4    0    0  0.17861139310E+03 -0.16273311363E+03 -0.19191466797E+03  0.32005354786E+03  0.84964331919E+02 0.  0.
          4    1    3    3  502    0  0.95563696976E+00  0.28231461710E+02 -0.11521758377E+02  0.30507041619E+02  0.00000000000E+00 0. -1.
         -3    1    3    3    0  502  0.18558822857E+03  0.40193276713E+03 -0.40470657064E+03  0.59981692890E+03  0.00000000000E+00 0.  1.
         13    1    5    5    0    0 -0.23162184882E+03 -0.11843119703E+03  0.40264231863E+03  0.47936986350E+03  0.00000000000E+00 0. -1.
        -13    1    5    5    0    0 -0.13353340982E+03 -0.14899991817E+03  0.23230962533E+03  0.30659404621E+03  0.00000000000E+00 0.  1.
          1    1    6    6  503    0  0.58742181494E+02 -0.88304497644E+02 -0.41691655742E+02  0.11395842378E+03  0.00000000000E+00 0. -1.
         -1    1    6    6    0  503  0.11986921160E+03 -0.74428615989E+02 -0.15022301223E+03  0.20609512408E+03  0.00000000000E+00 0.  1.
<mgrwt>
<rscale>  0 0.17361345E+04</rscale>
<asrwt>0</asrwt>
<pdfrwt beam="1">  1        2 0.13562695E+00 0.17361345E+04</pdfrwt>
<pdfrwt beam="2">  1       -1 0.13150250E+00 0.17361345E+04</pdfrwt>
<totfact> 0.16101913E+01</totfact>
</mgrwt>
</event>
<event>
12    7  0.1857704E-007  0.1480436E+04  0.7818608E-02  0.8897568E-01
          2   -1    0    0  501    0  0.00000000000E+00  0.00000000000E+00  0.62492522293E+03  0.62492522293E+03  0.00000000000E+00 0. -1.
         -1   -1    0    0    0  501 -0.00000000000E+00 -0.00000000000E+00 -0.87678168263E+03  0.87678168263E+03  0.00000000000E+00 0.  1.
         24    2    1    2    0    0 -0.27193453661E+03  0.35078202452E+03 -0.12313082939E+02  0.45119950447E+03  0.80205734771E+02 0.  0.
        254    2    1    2    0    0  0.27193453661E+03 -0.35078202452E+03 -0.23954337676E+03  0.10505074011E+04  0.92151416130E+03 0.  0.
         23    2    4    4    0    0  0.44674572897E+02 -0.25907636669E+03  0.32543529773E+03  0.42821498092E+03  0.91343065635E+02 0.  0.
         23    2    4    4    0    0  0.22725996371E+03 -0.91705657838E+02 -0.56497867449E+03  0.62229242018E+03  0.89386435213E+02 0.  0.
          2    1    3    3  502    0 -0.23598438597E+03  0.33515471322E+03  0.68866314230E+00  0.40989972733E+03  0.00000000000E+00 0. -1.
         -1    1    3    3    0  502 -0.35950150646E+02  0.15627311304E+02 -0.13001746082E+02  0.41299777133E+02  0.00000000000E+00 0.  1.
         13    1    5    5    0    0 -0.51777311322E+01 -0.13341659811E+03  0.10599326171E+03  0.17047395425E+03  0.00000000000E+00 0.  1.
        -13    1    5    5    0    0  0.49852304029E+02 -0.12565976857E+03  0.21944203602E+03  0.25774102667E+03  0.00000000000E+00 0. -1.
          4    1    6    6  503    0  0.89342190701E+02 -0.83663381638E+02 -0.25039287926E+03  0.27870805954E+03  0.00000000000E+00 0. -1.
         -4    1    6    6    0  503  0.13791777301E+03 -0.80422761991E+01 -0.31458579523E+03  0.34358436064E+03  0.00000000000E+00 0.  1.
<mgrwt>
<rscale>  0 0.14804364E+04</rscale>
<asrwt>0</asrwt>
<pdfrwt beam="1">  1        2 0.96142342E-01 0.14804364E+04</pdfrwt>
<pdfrwt beam="2">  1       -1 0.13488949E+00 0.14804364E+04</pdfrwt>
<totfact> 0.24090532E+01</totfact>
</mgrwt>
</event>
<event>
12    7  0.1857704E-007  0.1800355E+04  0.7818608E-02  0.8706111E-01
         -1   -1    0    0    0  501 -0.00000000000E+00  0.00000000000E+00  0.62784805645E+03  0.62784805645E+03  0.00000000000E+00 0.  1.
          2   -1    0    0  501    0  0.00000000000E+00 -0.00000000000E+00 -0.12906303247E+04  0.12906303247E+04  0.00000000000E+00 0. -1.
         24    2    1    2    0    0  0.91010690322E+02 -0.64666837296E+03 -0.85639482693E+02  0.66273890690E+03  0.73660079925E+02 0.  0.
        254    2    1    2    0    0 -0.91010690322E+02  0.64666837296E+03 -0.57714278556E+03  0.12557394743E+04  0.90406023137E+03 0.  0.
         23    2    4    4    0    0  0.28457215738E+03  0.63488765605E+03 -0.23768299744E+03  0.74094615216E+03  0.91893114952E+02 0.  0.
         23    2    4    4    0    0 -0.37558284770E+03  0.11780716916E+02 -0.33945978812E+03  0.51479332210E+03  0.92617255126E+02 0.  0.
          2    1    3    3  502    0  0.65271297591E+02 -0.42539014927E+03 -0.21439348973E+02  0.43090227091E+03  0.00000000000E+00 0. -1.
         -1    1    3    3    0  502  0.25739392731E+02 -0.22127822369E+03 -0.64200133720E+02  0.23183663599E+03  0.00000000000E+00 0.  1.
         13    1    5    5    0    0  0.14166634197E+03  0.21767780887E+03 -0.10790949426E+03  0.28124267079E+03  0.00000000000E+00 0.  1.
        -13    1    5    5    0    0  0.14290581541E+03  0.41720984718E+03 -0.12977350318E+03  0.45970348137E+03  0.00000000000E+00 0. -1.
          1    1    6    6  503    0 -0.33045066507E+03 -0.20397504346E+02 -0.29968756235E+03  0.44657175824E+03  0.00000000000E+00 0. -1.
         -1    1    6    6    0  503 -0.45132182632E+02  0.32178221263E+02 -0.39772225771E+02  0.68221563860E+02  0.00000000000E+00 0.  1.
<mgrwt>
<rscale>  0 0.18003552E+04</rscale>
<asrwt>0</asrwt>
<pdfrwt beam="1">  1        2 0.19855851E+00 0.18003552E+04</pdfrwt>
<pdfrwt beam="2">  1       -1 0.96592010E-01 0.18003552E+04</pdfrwt>
<totfact> 0.18583491E+01</totfact>
</mgrwt>
</event>
<event>
12    7  0.1857704E-007  0.4289652E+04  0.7818608E-02  0.7948534E-01
         -1   -1    0    0    0  501 -0.00000000000E+00  0.00000000000E+00  0.12944411858E+04  0.12944411858E+04  0.00000000000E+00 0.  1.
          2   -1    0    0  501    0  0.00000000000E+00 -0.00000000000E+00 -0.35538717897E+04  0.35538717897E+04  0.00000000000E+00 0. -1.
         24    2    1    2    0    0 -0.18374577218E+04  0.58554158752E+03 -0.18594381894E+04  0.26801874850E+04  0.82369558925E+02 0.  0.
        254    2    1    2    0    0  0.18374577218E+04 -0.58554158752E+03 -0.39999241452E+03  0.21681254905E+04  0.90645704838E+03 0.  0.
         23    2    4    4    0    0  0.16684465221E+04 -0.75471058940E+03 -0.48861839798E+03  0.18973767364E+04  0.89379361083E+02 0.  0.
         23    2    4    4    0    0  0.16901119975E+03  0.16916900188E+03  0.88625983457E+02  0.27074875408E+03  0.90925167324E+02 0.  0.
          2    1    3    3  502    0 -0.12324185447E+04  0.35271518777E+03 -0.12242026099E+04  0.17725505643E+04  0.00000000000E+00 0. -1.
         -3    1    3    3    0  502 -0.60503917716E+03  0.23282639975E+03 -0.63523557946E+03  0.90763692065E+03  0.00000000000E+00 0.  1.
         13    1    5    5    0    0  0.16235233871E+04 -0.74937784619E+03 -0.47527068604E+03  0.18502101421E+04  0.00000000000E+00 0.  1.
        -13    1    5    5    0    0  0.44923134936E+02 -0.53327432117E+01 -0.13347711936E+02  0.47166594286E+02  0.00000000000E+00 0. -1.
          2    1    6    6  503    0  0.53694243676E+02  0.89096849320E+02  0.77877848391E+02  0.12994721864E+03  0.00000000000E+00 0.  1.
         -2    1    6    6    0  503  0.11531695608E+03  0.80072152562E+02  0.10748135066E+02  0.14080153544E+03  0.00000000000E+00 0. -1.
<mgrwt>
<rscale>  0 0.42896517E+04</rscale>
<asrwt>0</asrwt>
<pdfrwt beam="1">  1        2 0.54674949E+00 0.42896517E+04</pdfrwt>
<pdfrwt beam="2">  1       -1 0.19914480E+00 0.42896517E+04</pdfrwt>
<totfact> 0.99189975E-02</totfact>
</mgrwt>
</event>
<event>
12    7  0.1857704E-007  0.1929622E+04  0.7818608E-02  0.8640251E-01
         -1   -1    0    0    0  501 -0.00000000000E+00  0.00000000000E+00  0.61642459511E+03  0.61642459511E+03  0.00000000000E+00 0.  1.
          2   -1    0    0  501    0  0.00000000000E+00 -0.00000000000E+00 -0.15100957161E+04  0.15100957161E+04  0.00000000000E+00 0. -1.
         24    2    1    2    0    0  0.32901546462E+03 -0.16948358393E+03  0.37097364131E+03  0.53021648698E+03  0.80822146372E+02 0.  0.
        254    2    1    2    0    0 -0.32901546462E+03  0.16948358393E+03 -0.12646447623E+04  0.15963038242E+04  0.90104587190E+03 0.  0.
         23    2    4    4    0    0 -0.40601201757E+03 -0.12740656208E+03 -0.11910546682E+04  0.12680819880E+04  0.91337369866E+02 0.  0.
         23    2    4    4    0    0  0.76996552954E+02  0.29689014601E+03 -0.73590094101E+02  0.32822183625E+03  0.90784601525E+02 0.  0.
          2    1    3    3  502    0  0.84156580959E+02 -0.78549475613E+02  0.14252708331E+03  0.18321113425E+03  0.00000000000E+00 0. -1.
         -1    1    3    3    0  502  0.24485888366E+03 -0.90934108321E+02  0.22844655800E+03  0.34700535273E+03  0.00000000000E+00 0.  1.
         13    1    5    5    0    0 -0.29921457702E+03 -0.66140665334E+02 -0.75061830593E+03  0.81076000883E+03  0.00000000000E+00 0. -1.
        -13    1    5    5    0    0 -0.10679744055E+03 -0.61265896745E+02 -0.44043636228E+03  0.45732197917E+03  0.00000000000E+00 0.  1.
          3    1    6    6  503    0  0.77995215244E+02  0.18438978803E+03 -0.79849597037E+02  0.21554304831E+03  0.00000000000E+00 0. -1.
         -3    1    6    6    0  503 -0.99866228978E+00  0.11250035799E+03  0.62595029361E+01  0.11267878793E+03  0.00000000000E+00 0.  1.
<mgrwt>
<rscale>  0 0.19296219E+04</rscale>
<asrwt>0</asrwt>
<pdfrwt beam="1">  1        2 0.23232242E+00 0.19296219E+04</pdfrwt>
<pdfrwt beam="2">  1       -1 0.94834554E-01 0.19296219E+04</pdfrwt>
<totfact> 0.14337228E+01</totfact>
</mgrwt>
</event>
<event>
12    7  0.1857704E-007  0.1915169E+04  0.7818608E-02  0.8647342E-01
          2   -1    0    0  501    0  0.00000000000E+00  0.00000000000E+00  0.58596881166E+03  0.58596881166E+03  0.00000000000E+00 0. -1.
         -1   -1    0    0    0  501 -0.00000000000E+00 -0.00000000000E+00 -0.15648755847E+04  0.15648755847E+04  0.00000000000E+00 0.  1.
         24    2    1    2    0    0  0.53017430538E+03  0.52559274840E+03 -0.40833495179E+03  0.85470136550E+03  0.80277394578E+02 0.  0.
        254    2    1    2    0    0 -0.53017430538E+03 -0.52559274840E+03 -0.57057182121E+03  0.12961430308E+04  0.89280570222E+03 0.  0.
         23    2    4    4    0    0  0.17054397429E+03 -0.38709932738E+03 -0.30120879592E+03  0.52694778636E+03  0.89532644267E+02 0.  0.
         23    2    4    4    0    0 -0.70071827966E+03 -0.13849342102E+03 -0.26936302529E+03  0.76919524445E+03  0.94437013808E+02 0.  0.
          4    1    3    3  502    0  0.19711643560E+03  0.22902813068E+03 -0.20088122625E+03  0.36285264349E+03  0.00000000000E+00 0. -1.
         -3    1    3    3    0  502  0.33305786977E+03  0.29656461772E+03 -0.20745372554E+03  0.49184872201E+03  0.00000000000E+00 0.  1.
         13    1    5    5    0    0  0.55683722832E+02 -0.21028454341E+03 -0.18864078782E+03  0.28793334822E+03  0.00000000000E+00 0.  1.
        -13    1    5    5    0    0  0.11486025145E+03 -0.17681478397E+03 -0.11256800809E+03  0.23901443814E+03  0.00000000000E+00 0. -1.
          3    1    6    6  503    0 -0.52992358354E+02  0.85638693860E+01 -0.38298632308E+02  0.65941755659E+02  0.00000000000E+00 0. -1.
         -3    1    6    6    0  503 -0.64772592131E+03 -0.14705729041E+03 -0.23106439298E+03  0.70325348879E+03  0.00000000000E+00 0.  1.
<mgrwt>
<rscale>  0 0.19151692E+04</rscale>
<asrwt>0</asrwt>
<pdfrwt beam="1">  1        2 0.90149049E-01 0.19151692E+04</pdfrwt>
<pdfrwt beam="2">  1       -1 0.24075009E+00 0.19151692E+04</pdfrwt>
<totfact> 0.43705074E+00</totfact>
</mgrwt>
</event>
<event>
12    7  0.1857704E-007  0.1472733E+04  0.7818608E-02  0.8902790E-01
         -1   -1    0    0    0  501 -0.00000000000E+00  0.00000000000E+00  0.14264367835E+04  0.14264367835E+04  0.00000000000E+00 0.  1.
          2   -1    0    0  501    0  0.00000000000E+00 -0.00000000000E+00 -0.38013298212E+03  0.38013298212E+03  0.00000000000E+00 0. -1.
         24    2    1    2    0    0 -0.35919870236E+03 -0.91511894891E+02  0.46260652322E+02  0.38206523452E+03  0.80222570309E+02 0.  0.
        254    2    1    2    0    0  0.35919870236E+03  0.91511894891E+02  0.10000431490E+04  0.14245045311E+04  0.94431389084E+03 0.  0.
         23    2    4    4    0    0  0.66607420878E+03  0.75580367474E+02  0.78727456788E+03  0.10377640189E+04  0.88236444251E+02 0.  0.
         23    2    4    4    0    0 -0.30687550642E+03  0.15931527417E+02  0.21276858116E+03  0.38674051220E+03  0.99354741433E+02 0.  0.
          4    1    3    3  502    0 -0.16423564699E+03 -0.37952549199E+02  0.61195651638E+02  0.17932833438E+03  0.00000000000E+00 0. -1.
         -3    1    3    3    0  502 -0.19496305538E+03 -0.53559345692E+02 -0.14934999316E+02  0.20273690014E+03  0.00000000000E+00 0.  1.
         13    1    5    5    0    0  0.56814794021E+03  0.95311566455E+02  0.66306795490E+03  0.87837092932E+03  0.00000000000E+00 0.  1.
        -13    1    5    5    0    0  0.97926268571E+02 -0.19731198981E+02  0.12420661298E+03  0.15939308955E+03  0.00000000000E+00 0. -1.
          4    1    6    6  503    0 -0.22748682827E+02  0.30352679205E+02  0.32433212778E+02  0.49906923332E+02  0.00000000000E+00 0. -1.
         -4    1    6    6    0  503 -0.28412682359E+03 -0.14421151789E+02  0.18033536838E+03  0.33683358887E+03  0.00000000000E+00 0.  1.
<mgrwt>
<rscale>  0 0.14727331E+04</rscale>
<asrwt>0</asrwt>
<pdfrwt beam="1">  1        2 0.58481998E-01 0.14727331E+04</pdfrwt>
<pdfrwt beam="2">  1       -1 0.21945181E+00 0.14727331E+04</pdfrwt>
<totfact> 0.10355993E+01</totfact>
</mgrwt>
</event>
<event>
12    7  0.1857704E-007  0.2552523E+04  0.7818608E-02  0.8384509E-01
         -1   -1    0    0    0  501 -0.00000000000E+00  0.00000000000E+00  0.52066132924E+03  0.52066132924E+03  0.00000000000E+00 0.  1.
          2   -1    0    0  501    0  0.00000000000E+00 -0.00000000000E+00 -0.31284114234E+04  0.31284114234E+04  0.00000000000E+00 0. -1.
         24    2    1    2    0    0  0.10655253471E+04 -0.18524989267E+03 -0.15263699625E+04  0.18723839636E+04  0.79716102357E+02 0.  0.
        254    2    1    2    0    0 -0.10655253471E+04  0.18524989267E+03 -0.10813801317E+04  0.17766887890E+04  0.90420035151E+03 0.  0.
         23    2    4    4    0    0 -0.50211013082E+03  0.51948483743E+03 -0.41680651176E+03  0.83874452163E+03  0.88236186084E+02 0.  0.
         23    2    4    4    0    0 -0.56341521627E+03 -0.33423494475E+03 -0.66457361991E+03  0.93794426734E+03  0.94507397290E+02 0.  0.
          4    1    3    3  502    0  0.48674370674E+03 -0.82031259433E+02 -0.62857977100E+03  0.79922530746E+03  0.00000000000E+00 0. -1.
         -3    1    3    3    0  502  0.57878164034E+03 -0.10321863324E+03 -0.89779019145E+03  0.10731586562E+04  0.00000000000E+00 0.  1.
         13    1    5    5    0    0 -0.19036310029E+03  0.19546502535E+03 -0.10885261877E+03  0.29375768705E+03  0.00000000000E+00 0. -1.
        -13    1    5    5    0    0 -0.31174703053E+03  0.32401981207E+03 -0.30795389299E+03  0.54498683458E+03  0.00000000000E+00 0.  1.
          1    1    6    6  503    0 -0.52389238123E+03 -0.33520959181E+03 -0.63212775902E+03  0.88679997817E+03  0.00000000000E+00 0. -1.
         -1    1    6    6    0  503 -0.39522835031E+02  0.97464706126E+00 -0.32445860891E+02  0.51144289170E+02  0.00000000000E+00 0.  1.
<mgrwt>
<rscale>  0 0.25525226E+04</rscale>
<asrwt>0</asrwt>
<pdfrwt beam="1">  1        2 0.48129407E+00 0.25525226E+04</pdfrwt>
<pdfrwt beam="2">  1       -1 0.80101742E-01 0.25525226E+04</pdfrwt>
<totfact> 0.22672429E+00</totfact>
</mgrwt>
</event>
<event>
12    7  0.1857704E-007  0.1545100E+04  0.7818608E-02  0.8855004E-01
         -1   -1    0    0    0  501 -0.00000000000E+00  0.00000000000E+00  0.69501431803E+03  0.69501431803E+03  0.00000000000E+00 0.  1.
          2   -1    0    0  501    0  0.00000000000E+00 -0.00000000000E+00 -0.85873565481E+03  0.85873565481E+03  0.00000000000E+00 0. -1.
         24    2    1    2    0    0 -0.11991126686E+03 -0.40963017963E+03  0.18609935632E+03  0.47177833055E+03  0.75935675225E+02 0.  0.
        254    2    1    2    0    0  0.11991126686E+03  0.40963017963E+03 -0.34982069310E+03  0.10819716423E+04  0.93065166492E+03 0.  0.
         23    2    4    4    0    0 -0.67322289496E+02  0.46353234670E+03  0.18026730927E+03  0.51025772770E+03  0.92044113284E+02 0.  0.
         23    2    4    4    0    0  0.18723355635E+03 -0.53902167074E+02 -0.53008800237E+03  0.57171391459E+03  0.88891291125E+02 0.  0.
          4    1    3    3  502    0 -0.63791364530E+02 -0.18254451869E+03  0.12416151804E+03  0.22979974337E+03  0.00000000000E+00 0. -1.
         -3    1    3    3    0  502 -0.56119902328E+02 -0.22708566094E+03  0.61937838281E+02  0.24197858717E+03  0.00000000000E+00 0.  1.
         13    1    5    5    0    0 -0.58014570668E+02  0.33753208224E+03  0.87407336938E+02  0.35345953022E+03  0.00000000000E+00 0. -1.
        -13    1    5    5    0    0 -0.93077188281E+01  0.12600026446E+03  0.92859972331E+02  0.15679819749E+03  0.00000000000E+00 0.  1.
          1    1    6    6  503    0  0.11790931858E+03 -0.45748225972E+02 -0.43960083842E+03  0.45743240454E+03  0.00000000000E+00 0. -1.
         -1    1    6    6    0  503  0.69324237775E+02 -0.81539411017E+01 -0.90487163952E+02  0.11428151005E+03  0.00000000000E+00 0.  1.
<mgrwt>
<rscale>  0 0.15451001E+04</rscale>
<asrwt>0</asrwt>
<pdfrwt beam="1">  1        2 0.13211318E+00 0.15451001E+04</pdfrwt>
<pdfrwt beam="2">  1       -1 0.10692528E+00 0.15451001E+04</pdfrwt>
<totfact> 0.28076076E+01</totfact>
</mgrwt>
</event>
<event>
12    7  0.1857704E-007  0.2782562E+04  0.7818608E-02  0.8308703E-01
         -1   -1    0    0    0  501 -0.00000000000E+00  0.00000000000E+00  0.11300885587E+04  0.11300885587E+04  0.00000000000E+00 0.  1.
          2   -1    0    0  501    0  0.00000000000E+00 -0.00000000000E+00 -0.17128412788E+04  0.17128412788E+04  0.00000000000E+00 0. -1.
         24    2    1    2    0    0 -0.51063323308E+03 -0.49874662085E+03 -0.13022631137E+04  0.14865761698E+04  0.67268124696E+02 0.  0.
        254    2    1    2    0    0  0.51063323308E+03  0.49874662085E+03  0.71951039364E+03  0.13563536677E+04  0.90139091124E+03 0.  0.
         23    2    4    4    0    0 -0.40176389203E+02 -0.14113357842E+03 -0.78875644300E+02  0.19076661738E+03  0.92939258837E+02 0.  0.
         23    2    4    4    0    0  0.55080962228E+03  0.63988019927E+03  0.79838603794E+03  0.11655870503E+04  0.91296204485E+02 0.  0.
          4    1    3    3  502    0 -0.46025690423E+03 -0.44771484720E+03 -0.12090415093E+04  0.13689654391E+04  0.00000000000E+00 0. -1.
         -1    1    3    3    0  502 -0.50376328846E+02 -0.51031773648E+02 -0.93221604407E+02  0.11761073062E+03  0.00000000000E+00 0.  1.
         13    1    5    5    0    0 -0.59659859109E+02 -0.13571247036E+03 -0.51937107015E+02  0.15708162364E+03  0.00000000000E+00 0. -1.
        -13    1    5    5    0    0  0.19483469906E+02 -0.54211080689E+01 -0.26938537285E+02  0.33684993741E+02  0.00000000000E+00 0.  1.
          1    1    6    6  503    0  0.46084802065E+03  0.57057785559E+03  0.66107084844E+03  0.98739792084E+03  0.00000000000E+00 0. -1.
         -1    1    6    6    0  503  0.89961601624E+02  0.69302343679E+02  0.13731518950E+03  0.17818912951E+03  0.00000000000E+00 0.  1.
<mgrwt>
<rscale>  0 0.27825616E+04</rscale>
<asrwt>0</asrwt>
<pdfrwt beam="1">  1        2 0.26351404E+00 0.27825616E+04</pdfrwt>
<pdfrwt beam="2">  1       -1 0.17385978E+00 0.27825616E+04</pdfrwt>
<totfact> 0.22062585E+00</totfact>
</mgrwt>
</event>
<event>
12    7  0.2233161E-007  0.2037835E+04  0.7818608E-02  0.8589133E-01
          2   -1    0    0  501    0  0.00000000000E+00  0.00000000000E+00  0.15858319152E+04  0.15858319152E+04  0.00000000000E+00 0. -1.
         -1   -1    0    0    0  501 -0.00000000000E+00 -0.00000000000E+00 -0.65466787487E+03  0.65466787487E+03  0.00000000000E+00 0.  1.
         24    2    1    2    0    0  0.20203276996E+03  0.46421444251E+03 -0.32730255269E+03  0.60729833862E+03  0.73294081031E+02 0.  0.
        254    2    1    2    0    0 -0.20203276996E+03 -0.46421444251E+03  0.12584665930E+04  0.16332014515E+04  0.90955842392E+03 0.  0.
         23    2    4    4    0    0 -0.26518282426E+03 -0.28109964559E+03  0.43042497331E+02  0.39900569901E+03  0.89520669286E+02 0.  0.
         23    2    4    4    0    0  0.63150054298E+02 -0.18311479692E+03  0.12154240957E+04  0.12341957525E+04  0.92002525865E+02 0.  0.
          2    1    3    3  502    0  0.30063994082E+01  0.68393812491E+02 -0.40942285216E+02  0.79768557359E+02  0.00000000000E+00 0. -1.
         -1    1    3    3    0  502  0.19902637055E+03  0.39582063002E+03 -0.28636026748E+03  0.52752978126E+03  0.00000000000E+00 0.  1.
         13    1    5    5    0    0 -0.47100135352E+01  0.67748076201E+00  0.13305445913E+02  0.14130750108E+02  0.00000000000E+00 0. -1.
        -13    1    5    5    0    0 -0.26047281072E+03 -0.28177712636E+03  0.29737051419E+02  0.38487494890E+03  0.00000000000E+00 0.  1.
          2    1    6    6  503    0  0.36493570166E+02 -0.46279286427E+02  0.17936770173E+03  0.18880234490E+03  0.00000000000E+00 0. -1.
         -2    1    6    6    0  503  0.26656484132E+02 -0.13683551049E+03  0.10360563940E+04  0.10453934076E+04  0.00000000000E+00 0.  1.
<mgrwt>
<rscale>  0 0.20378353E+04</rscale>
<asrwt>0</asrwt>
<pdfrwt beam="1">  1        2 0.24397414E+00 0.20378353E+04</pdfrwt>
<pdfrwt beam="2">  1       -1 0.10071814E+00 0.20378353E+04</pdfrwt>
<totfact> 0.11235456E+01</totfact>
</mgrwt>
</event>
<event>
12    7  0.1857704E-007  0.1660834E+04  0.7818608E-02  0.8784023E-01
         -1   -1    0    0    0  501 -0.00000000000E+00  0.00000000000E+00  0.29451774095E+03  0.29451774095E+03  0.00000000000E+00 0.  1.
          2   -1    0    0  501    0  0.00000000000E+00 -0.00000000000E+00 -0.23414284908E+04  0.23414284908E+04  0.00000000000E+00 0. -1.
         24    2    1    2    0    0 -0.51710565158E+03  0.24190464874E+03 -0.90563770335E+03  0.10735077715E+04  0.79518373602E+02 0.  0.
        254    2    1    2    0    0  0.51710565158E+03 -0.24190464874E+03 -0.11412730465E+04  0.15624384602E+04  0.90155069820E+03 0.  0.
         23    2    4    4    0    0  0.74694816598E+03 -0.24015870114E+03 -0.68663267066E+03  0.10462334701E+04  0.86788737930E+02 0.  0.
         23    2    4    4    0    0 -0.22984251440E+03 -0.17459476021E+01 -0.45464037581E+03  0.51620499019E+03  0.83301205373E+02 0.  0.
          4    1    3    3  502    0 -0.20033270177E+03  0.11915554892E+03 -0.31081044142E+03  0.38850272423E+03  0.00000000000E+00 0. -1.
         -3    1    3    3    0  502 -0.31677294981E+03  0.12274909983E+03 -0.59482726194E+03  0.68500504727E+03  0.00000000000E+00 0.  1.
         13    1    5    5    0    0  0.50370011099E+03 -0.18961553537E+03 -0.42838880696E+03  0.68788430931E+03  0.00000000000E+00 0. -1.
        -13    1    5    5    0    0  0.24324805500E+03 -0.50543165776E+02 -0.25824386370E+03  0.35834916074E+03  0.00000000000E+00 0.  1.
          4    1    6    6  503    0 -0.16918206698E+03  0.23892240086E+02 -0.38012100610E+03  0.41675579204E+03  0.00000000000E+00 0. -1.
         -4    1    6    6    0  503 -0.60660447418E+02 -0.25638187688E+02 -0.74519369715E+02  0.99449198145E+02  0.00000000000E+00 0.  1.
<mgrwt>
<rscale>  0 0.16608338E+04</rscale>
<asrwt>0</asrwt>
<pdfrwt beam="1">  1        2 0.36021976E+00 0.16608338E+04</pdfrwt>
<pdfrwt beam="2">  1       -1 0.45310423E-01 0.16608338E+04</pdfrwt>
<totfact> 0.22591356E+01</totfact>
</mgrwt>
</event>
<event>
12    7  0.1857704E-007  0.2166574E+04  0.7818608E-02  0.8532471E-01
         -1   -1    0    0    0  501 -0.00000000000E+00  0.00000000000E+00  0.42894484661E+03  0.42894484661E+03  0.00000000000E+00 0.  1.
          2   -1    0    0  501    0  0.00000000000E+00 -0.00000000000E+00 -0.27358081363E+04  0.27358081363E+04  0.00000000000E+00 0. -1.
         24    2    1    2    0    0  0.29301873699E+03  0.63178785318E+03 -0.12723407752E+03  0.71218887874E+03  0.77515268616E+02 0.  0.
        254    2    1    2    0    0 -0.29301873699E+03 -0.63178785318E+03 -0.21796292122E+04  0.24525641042E+04  0.88276345126E+03 0.  0.
         23    2    4    4    0    0  0.35392547704E+02  0.16347174612E+03 -0.81286729204E+03  0.83476819602E+03  0.90050332621E+02 0.  0.
         23    2    4    4    0    0 -0.32841128469E+03 -0.79525959930E+03 -0.13667619201E+04  0.16177959082E+04  0.94517997893E+02 0.  0.
          2    1    3    3  502    0  0.99413954222E+02  0.13616999468E+03 -0.27248150228E+02  0.17078601651E+03  0.00000000000E+00 0. -1.
         -1    1    3    3    0  502  0.19360478277E+03  0.49561785850E+03 -0.99985927294E+02  0.54140286223E+03  0.00000000000E+00 0.  1.
         13    1    5    5    0    0  0.44826162359E+02  0.15359440749E+03 -0.58483280918E+03  0.60632502962E+03  0.00000000000E+00 0. -1.
        -13    1    5    5    0    0 -0.94336146553E+01  0.98773386294E+01 -0.22803448285E+03  0.22844316640E+03  0.00000000000E+00 0.  1.
          4    1    6    6  503    0 -0.33416266813E+03 -0.76597993640E+03 -0.13166861134E+04  0.15595038547E+04  0.00000000000E+00 0. -1.
         -4    1    6    6    0  503  0.57513834374E+01 -0.29279662900E+02 -0.50075806744E+02  0.58292053421E+02  0.00000000000E+00 0.  1.
<mgrwt>
<rscale>  0 0.21665741E+04</rscale>
<asrwt>0</asrwt>
<pdfrwt beam="1">  1        2 0.42089357E+00 0.21665741E+04</pdfrwt>
<pdfrwt beam="2">  1       -1 0.65991514E-01 0.21665741E+04</pdfrwt>
<totfact> 0.61397028E+00</totfact>
</mgrwt>
</event>
<event>
12    7  0.1857704E-007  0.1280614E+04  0.7818608E-02  0.9045081E-01
         -1   -1    0    0    0  501 -0.00000000000E+00  0.00000000000E+00  0.16576778934E+03  0.16576778934E+03  0.00000000000E+00 0.  1.
          2   -1    0    0  501    0  0.00000000000E+00 -0.00000000000E+00 -0.24732980343E+04  0.24732980343E+04  0.00000000000E+00 0. -1.
         24    2    1    2    0    0 -0.23485621767E+03  0.10056087071E+03 -0.21907807447E+03  0.34883905753E+03  0.91779919646E+02 0.  0.
        254    2    1    2    0    0  0.23485621767E+03 -0.10056087071E+03 -0.20884521705E+04  0.22902267661E+04  0.90456411605E+03 0.  0.
         23    2    4    4    0    0  0.24088686619E+03 -0.41524273238E+03 -0.63951960948E+03  0.80458138565E+03  0.88954292343E+02 0.  0.
         23    2    4    4    0    0 -0.60306485139E+01  0.31468186166E+03 -0.14489325610E+04  0.14856453804E+04  0.93142832966E+02 0.  0.
          4    1    3    3  502    0 -0.40523749933E+01  0.23159265123E+02 -0.40850175183E+02  0.47132898453E+02  0.00000000000E+00 0. -1.
         -3    1    3    3    0  502 -0.23080384268E+03  0.77401605591E+02 -0.17822789929E+03  0.30170615908E+03  0.00000000000E+00 0.  1.
         13    1    5    5    0    0  0.16926547536E+03 -0.30234346658E+03 -0.52222215667E+03  0.62672031549E+03  0.00000000000E+00 0.  1.
        -13    1    5    5    0    0  0.71621390825E+02 -0.11289926580E+03 -0.11729745281E+03  0.17786107016E+03  0.00000000000E+00 0. -1.
          3    1    6    6  503    0 -0.20648374713E+02  0.12653570842E+02 -0.74270321732E+02  0.78118812865E+02  0.00000000000E+00 0. -1.
         -3    1    6    6    0  503  0.14617726199E+02  0.30202829082E+03 -0.13746622393E+04  0.14075265676E+04  0.00000000000E+00 0.  1.
<mgrwt>
<rscale>  0 0.12806141E+04</rscale>
<asrwt>0</asrwt>
<pdfrwt beam="1">  1        2 0.38050736E+00 0.12806141E+04</pdfrwt>
<pdfrwt beam="2">  1       -1 0.25502739E-01 0.12806141E+04</pdfrwt>
<totfact> 0.54842506E+01</totfact>
</mgrwt>
</event>
<event>
12    7  0.1857704E-007  0.1588221E+04  0.7818608E-02  0.8827817E-01
          2   -1    0    0  501    0  0.00000000000E+00  0.00000000000E+00  0.95358939927E+03  0.95358939927E+03  0.00000000000E+00 0. -1.
         -1   -1    0    0    0  501 -0.00000000000E+00 -0.00000000000E+00 -0.66130301621E+03  0.66130301621E+03  0.00000000000E+00 0.  1.
         24    2    1    2    0    0 -0.18498501869E+03 -0.46730410458E+03  0.31105317467E+03  0.59660109340E+03  0.81155430384E+02 0.  0.
        254    2    1    2    0    0  0.18498501869E+03  0.46730410458E+03 -0.18766791607E+02  0.10182913221E+04  0.88542218228E+03 0.  0.
         23    2    4    4    0    0  0.15623925424E+03 -0.20835563987E+03 -0.16340149113E+03  0.32077719428E+03  0.91516030488E+02 0.  0.
         23    2    4    4    0    0  0.28745764453E+02  0.67565974444E+03  0.14463469952E+03  0.69751412781E+03  0.90908486683E+02 0.  0.
          2    1    3    3  502    0 -0.15022608798E+03 -0.33707624850E+03  0.18833044030E+03  0.41431465042E+03  0.00000000000E+00 0. -1.
         -1    1    3    3    0  502 -0.34758930713E+02 -0.13022785608E+03  0.12272273437E+03  0.18228644298E+03  0.00000000000E+00 0.  1.
         13    1    5    5    0    0  0.12344828202E+03 -0.20290013810E+03 -0.11996919035E+03  0.26608372932E+03  0.00000000000E+00 0. -1.
        -13    1    5    5    0    0  0.32790972215E+02 -0.54555017712E+01 -0.43432300782E+02  0.54693464963E+02  0.00000000000E+00 0.  1.
          1    1    6    6  503    0  0.55476970197E+02  0.29645777393E+03  0.49391984172E+02  0.30562145547E+03  0.00000000000E+00 0. -1.
         -1    1    6    6    0  503 -0.26731205744E+02  0.37920197052E+03  0.95242715352E+02  0.39189267234E+03  0.00000000000E+00 0.  1.
<mgrwt>
<rscale>  0 0.15882211E+04</rscale>
<asrwt>0</asrwt>
<pdfrwt beam="1">  1        2 0.14670606E+00 0.15882211E+04</pdfrwt>
<pdfrwt beam="2">  1       -1 0.10173893E+00 0.15882211E+04</pdfrwt>
<totfact> 0.27097208E+01</totfact>
</mgrwt>
</event>
<event>
12    7  0.1857704E-007  0.1421636E+04  0.7818608E-02  0.8938304E-01
          2   -1    0    0  501    0  0.00000000000E+00  0.00000000000E+00  0.13619608125E+04  0.13619608125E+04  0.00000000000E+00 0. -1.
         -1   -1    0    0    0  501 -0.00000000000E+00 -0.00000000000E+00 -0.37098153304E+03  0.37098153304E+03  0.00000000000E+00 0.  1.
         24    2    1    2    0    0  0.45934719373E+03 -0.82582948634E+02  0.35570931616E+03  0.59216232251E+03  0.79418579718E+02 0.  0.
        254    2    1    2    0    0 -0.45934719373E+03  0.82582948634E+02  0.63526996327E+03  0.11407800230E+04  0.82461587836E+03 0.  0.
         23    2    4    4    0    0 -0.48378975160E+03  0.38697853510E+03  0.39611636693E+03  0.74097898891E+03  0.91305944392E+02 0.  0.
         23    2    4    4    0    0  0.24442557872E+02 -0.30439558646E+03  0.23915359635E+03  0.39980103409E+03  0.96913943884E+02 0.  0.
          4    1    3    3  502    0  0.45382441339E+03 -0.70377299619E+02  0.33938458566E+03  0.57104418347E+03  0.00000000000E+00 0. -1.
         -3    1    3    3    0  502  0.55227803353E+01 -0.12205649015E+02  0.16324730495E+02  0.21118139034E+02  0.00000000000E+00 0.  1.
         13    1    5    5    0    0 -0.39046308617E+03  0.32746685603E+03  0.28385169058E+03  0.58332473435E+03  0.00000000000E+00 0. -1.
        -13    1    5    5    0    0 -0.93326665426E+02  0.59511679067E+02  0.11226467635E+03  0.15765425456E+03  0.00000000000E+00 0.  1.
          1    1    6    6  503    0 -0.20983086804E+02 -0.20932645755E+03  0.19024441645E+03  0.28363849131E+03  0.00000000000E+00 0. -1.
         -1    1    6    6    0  503  0.45425644676E+02 -0.95069128914E+02  0.48909179896E+02  0.11616254278E+03  0.00000000000E+00 0.  1.
<mgrwt>
<rscale>  0 0.14216361E+04</rscale>
<asrwt>0</asrwt>
<pdfrwt beam="1">  1        2 0.20953243E+00 0.14216361E+04</pdfrwt>
<pdfrwt beam="2">  1       -1 0.57074083E-01 0.14216361E+04</pdfrwt>
<totfact> 0.52388087E+01</totfact>
</mgrwt>
</event>
<event>
12    7  0.1857704E-007  0.1769612E+04  0.7818608E-02  0.8722629E-01
         -1   -1    0    0    0  501 -0.00000000000E+00  0.00000000000E+00  0.81407576166E+03  0.81407576166E+03  0.00000000000E+00 0.  1.
          2   -1    0    0  501    0  0.00000000000E+00 -0.00000000000E+00 -0.96168140514E+03  0.96168140514E+03  0.00000000000E+00 0. -1.
         24    2    1    2    0    0 -0.26560064030E+03  0.41457441945E+03 -0.48201744587E+03  0.69353055925E+03  0.78918750008E+02 0.  0.
        254    2    1    2    0    0  0.26560064030E+03 -0.41457441945E+03  0.33441180239E+03  0.10822266076E+04  0.90386255986E+03 0.  0.
         23    2    4    4    0    0  0.24520712182E+03 -0.21520849249E+03  0.62727757270E+03  0.71375314713E+03  0.97596997895E+02 0.  0.
         23    2    4    4    0    0  0.20393518481E+02 -0.19936592696E+03 -0.29286577031E+03  0.36847346042E+03  0.99195076418E+02 0.  0.
          2    1    3    3  502    0 -0.24014654711E+03  0.37028038519E+03 -0.39329168111E+03  0.59114826750E+03  0.00000000000E+00 0. -1.
         -1    1    3    3    0  502 -0.25454093191E+02  0.44294034265E+02 -0.88725764756E+02  0.10238229175E+03  0.00000000000E+00 0.  1.
         13    1    5    5    0    0  0.21933640143E+03 -0.22000585315E+03  0.54444945313E+03  0.62684626459E+03  0.00000000000E+00 0. -1.
        -13    1    5    5    0    0  0.25870720388E+02  0.47973606536E+01  0.82828119567E+02  0.86906882544E+02  0.00000000000E+00 0.  1.
          3    1    6    6  503    0 -0.54836581788E+00 -0.13496089885E+03 -0.26055978752E+03  0.29343849065E+03  0.00000000000E+00 0. -1.
         -3    1    6    6    0  503  0.20941884299E+02 -0.64405028109E+02 -0.32305982786E+02  0.75034969764E+02  0.00000000000E+00 0.  1.
<mgrwt>
<rscale>  0 0.17696118E+04</rscale>
<asrwt>0</asrwt>
<pdfrwt beam="1">  1        2 0.14795099E+00 0.17696118E+04</pdfrwt>
<pdfrwt beam="2">  1       -1 0.12524243E+00 0.17696118E+04</pdfrwt>
<totfact> 0.16043176E+01</totfact>
</mgrwt>
</event>
<event>
12    7  0.1857704E-007  0.1543023E+04  0.7818608E-02  0.8856336E-01
         -1   -1    0    0    0  501 -0.00000000000E+00  0.00000000000E+00  0.31808423749E+03  0.31808423749E+03  0.00000000000E+00 0.  1.
          2   -1    0    0  501    0  0.00000000000E+00 -0.00000000000E+00 -0.18712975252E+04  0.18712975252E+04  0.00000000000E+00 0. -1.
         24    2    1    2    0    0 -0.42180470130E+03 -0.10871154333E+03 -0.15745641670E+03  0.47003502035E+03  0.80018694738E+02 0.  0.
        254    2    1    2    0    0  0.42180470130E+03  0.10871154333E+03 -0.13957568710E+04  0.17193467423E+04  0.90458751468E+03 0.  0.
         23    2    4    4    0    0  0.26661269296E+03  0.30903504179E+03 -0.13882071423E+04  0.14497832346E+04  0.90373515081E+02 0.  0.
         23    2    4    4    0    0  0.15519200833E+03 -0.20032349846E+03 -0.75497287226E+01  0.26956350777E+03  0.91615625472E+02 0.  0.
          2    1    3    3  502    0 -0.12561316912E+03 -0.29532514459E+01 -0.21824662210E+02  0.12752923521E+03  0.00000000000E+00 0. -1.
         -1    1    3    3    0  502 -0.29619153217E+03 -0.10575829188E+03 -0.13563175448E+03  0.34250578514E+03  0.00000000000E+00 0.  1.
         13    1    5    5    0    0  0.12851450749E+03  0.20812485991E+03 -0.89175727220E+03  0.92469614926E+03  0.00000000000E+00 0.  1.
        -13    1    5    5    0    0  0.13809818547E+03  0.10091018188E+03 -0.49644987009E+03  0.52508708530E+03  0.00000000000E+00 0. -1.
          4    1    6    6  503    0  0.26623998213E+02 -0.56129393095E+02  0.35619682524E+02  0.71610808075E+02  0.00000000000E+00 0. -1.
         -4    1    6    6    0  503  0.12856801012E+03 -0.14419410537E+03 -0.43169411247E+02  0.19795269970E+03  0.00000000000E+00 0.  1.
<mgrwt>
<rscale>  0 0.15430233E+04</rscale>
<asrwt>0</asrwt>
<pdfrwt beam="1">  1        2 0.28789192E+00 0.15430233E+04</pdfrwt>
<pdfrwt beam="2">  1       -1 0.48936037E-01 0.15430233E+04</pdfrwt>
<totfact> 0.36139493E+01</totfact>
</mgrwt>
</event>
<event>
12    7  0.1857704E-007  0.1574707E+04  0.7818608E-02  0.8836239E-01
          2   -1    0    0  501    0  0.00000000000E+00  0.00000000000E+00  0.27237026054E+04  0.27237026054E+04  0.00000000000E+00 0. -1.
         -1   -1    0    0    0  501 -0.00000000000E+00 -0.00000000000E+00 -0.22760393301E+03  0.22760393301E+03  0.00000000000E+00 0.  1.
         24    2    1    2    0    0  0.31527486955E+03  0.27665890625E+03  0.14362387821E+04  0.14988487708E+04  0.88472622502E+02 0.  0.
        254    2    1    2    0    0 -0.31527486955E+03 -0.27665890625E+03  0.10598598904E+04  0.14524577676E+04  0.90021785461E+03 0.  0.
         23    2    4    4    0    0  0.46821595338E+02 -0.40126473176E+03  0.96108478883E+03  0.10465704940E+04  0.91761543584E+02 0.  0.
         23    2    4    4    0    0 -0.36209646489E+03  0.12460582550E+03  0.98775101521E+02  0.40588727360E+03  0.91364635151E+02 0.  0.
          2    1    3    3  502    0  0.24464555085E+03  0.16894846686E+03  0.10739707990E+04  0.11143645306E+04  0.00000000000E+00 0. -1.
         -1    1    3    3    0  502  0.70629318702E+02  0.10771043939E+03  0.36226798306E+03  0.38448424021E+03  0.00000000000E+00 0.  1.
         13    1    5    5    0    0 -0.25398834756E+02 -0.15588063510E+03  0.39337778906E+03  0.42389852339E+03  0.00000000000E+00 0. -1.
        -13    1    5    5    0    0  0.72220430094E+02 -0.24538409666E+03  0.56770699977E+03  0.62267197063E+03  0.00000000000E+00 0.  1.
          3    1    6    6  503    0 -0.93688502639E+02  0.58083490289E+02 -0.54548696220E+01  0.11036749056E+03  0.00000000000E+00 0. -1.
         -3    1    6    6    0  503 -0.26840796225E+03  0.66522335214E+02  0.10422997114E+03  0.29551978304E+03  0.00000000000E+00 0.  1.
<mgrwt>
<rscale>  0 0.15747069E+04</rscale>
<asrwt>0</asrwt>
<pdfrwt beam="1">  1        2 0.41903115E+00 0.15747069E+04</pdfrwt>
<pdfrwt beam="2">  1       -1 0.35015992E-01 0.15747069E+04</pdfrwt>
<totfact> 0.21887840E+01</totfact>
</mgrwt>
</event>
<event>
12    7  0.1857704E-007  0.2063448E+04  0.7818608E-02  0.8577518E-01
         -1   -1    0    0    0  501 -0.00000000000E+00  0.00000000000E+00  0.30542396412E+03  0.30542396412E+03  0.00000000000E+00 0.  1.
          2   -1    0    0  501    0  0.00000000000E+00 -0.00000000000E+00 -0.34851713143E+04  0.34851713143E+04  0.00000000000E+00 0. -1.
         24    2    1    2    0    0 -0.25134396047E+03 -0.49085592625E+03 -0.14787722472E+03  0.57634845995E+03  0.78718148454E+02 0.  0.
        254    2    1    2    0    0  0.25134396047E+03  0.49085592625E+03 -0.30318701255E+04  0.32142468185E+04  0.91380130530E+03 0.  0.
         23    2    4    4    0    0  0.39792193981E+03  0.25242614481E+02 -0.22576229283E+04  0.22943689095E+04  0.91040357702E+02 0.  0.
         23    2    4    4    0    0 -0.14657797935E+03  0.46561331177E+03 -0.77424719722E+03  0.91987790902E+03  0.91846529482E+02 0.  0.
          2    1    3    3  502    0 -0.57857444308E+02 -0.53962511944E+02 -0.16903513858E+02  0.80902196125E+02  0.00000000000E+00 0. -1.
         -1    1    3    3    0  502 -0.19348651616E+03 -0.43689341431E+03 -0.13097371086E+03  0.49544626382E+03  0.00000000000E+00 0.  1.
         13    1    5    5    0    0  0.36013705038E+03 -0.46038558586E+01 -0.19462764443E+04  0.19793210675E+04  0.00000000000E+00 0. -1.
        -13    1    5    5    0    0  0.37784889430E+02  0.29846470340E+02 -0.31134648399E+03  0.31504784201E+03  0.00000000000E+00 0.  1.
          3    1    6    6  503    0 -0.14331511985E+03  0.33043126803E+03 -0.53219641503E+03  0.64261735943E+03  0.00000000000E+00 0. -1.
         -3    1    6    6    0  503 -0.32628594969E+01  0.13518204374E+03 -0.24205078219E+03  0.27726054960E+03  0.00000000000E+00 0.  1.
<mgrwt>
<rscale>  0 0.20634484E+04</rscale>
<asrwt>0</asrwt>
<pdfrwt beam="1">  1        2 0.53618017E+00 0.20634484E+04</pdfrwt>
<pdfrwt beam="2">  1       -1 0.46988305E-01 0.20634484E+04</pdfrwt>
<totfact> 0.39741370E+00</totfact>
</mgrwt>
</event>
<event>
12    7  0.1857704E-007  0.2951144E+04  0.7818608E-02  0.8257821E-01
          2   -1    0    0  501    0  0.00000000000E+00  0.00000000000E+00  0.15566920627E+04  0.15566920627E+04  0.00000000000E+00 0. -1.
         -1   -1    0    0    0  501 -0.00000000000E+00 -0.00000000000E+00 -0.13986795225E+04  0.13986795225E+04  0.00000000000E+00 0.  1.
         24    2    1    2    0    0 -0.83941134559E+03 -0.79167726111E+03  0.74767729886E+03  0.13772387244E+04  0.80005424279E+02 0.  0.
        254    2    1    2    0    0  0.83941134559E+03  0.79167726111E+03 -0.58966475865E+03  0.15781328608E+04  0.90079659514E+03 0.  0.
         23    2    4    4    0    0  0.12674093323E+03 -0.83801533840E+02 -0.38906175319E+03  0.42744710517E+03  0.90862636419E+02 0.  0.
         23    2    4    4    0    0  0.71267041236E+03  0.87547879495E+03 -0.20060300546E+03  0.11506857556E+04  0.97333988367E+02 0.  0.
          2    1    3    3  502    0 -0.62126480564E+03 -0.53934830865E+03  0.51664341613E+03  0.97148699230E+03  0.00000000000E+00 0. -1.
         -1    1    3    3    0  502 -0.21814653994E+03 -0.25232895246E+03  0.23103388273E+03  0.40575173211E+03  0.00000000000E+00 0.  1.
         13    1    5    5    0    0 -0.12895993218E+02 -0.10850463097E+02 -0.64555145275E+02  0.66718857694E+02  0.00000000000E+00 0. -1.
        -13    1    5    5    0    0  0.13963692644E+03 -0.72951070744E+02 -0.32450660791E+03  0.36072824748E+03  0.00000000000E+00 0.  1.
          2    1    6    6  503    0  0.52997137766E+03  0.58051737485E+03 -0.14453040371E+03  0.79922407449E+03  0.00000000000E+00 0. -1.
         -2    1    6    6    0  503  0.18269903470E+03  0.29496142010E+03 -0.56072601752E+02  0.35146168112E+03  0.00000000000E+00 0.  1.
<mgrwt>
<rscale>  0 0.29511444E+04</rscale>
<asrwt>0</asrwt>
<pdfrwt beam="1">  1        2 0.23949109E+00 0.29511444E+04</pdfrwt>
<pdfrwt beam="2">  1       -1 0.21518146E+00 0.29511444E+04</pdfrwt>
<totfact> 0.13684690E+00</totfact>
</mgrwt>
</event>
<event>
12    7  0.1857704E-007  0.1193251E+04  0.7818608E-02  0.9118784E-01
          4   -1    0    0  501    0  0.00000000000E+00  0.00000000000E+00  0.69683001660E+03  0.69683001660E+03  0.00000000000E+00 0. -1.
         -3   -1    0    0    0  501 -0.00000000000E+00 -0.00000000000E+00 -0.51083064771E+03  0.51083064771E+03  0.00000000000E+00 0.  1.
         24    2    1    2    0    0 -0.11017314203E+03  0.12491198305E+03  0.24302636660E+03  0.30448384219E+03  0.76860071287E+02 0.  0.
        254    2    1    2    0    0  0.11017314203E+03 -0.12491198305E+03 -0.57026997714E+02  0.90317682211E+03  0.88585279183E+03 0.  0.
         23    2    4    4    0    0  0.42231263134E+03 -0.22475475200E+03  0.14371087535E+03  0.50797571036E+03  0.92324695982E+02 0.  0.
         23    2    4    4    0    0 -0.31213948930E+03  0.99842768948E+02 -0.20073787306E+03  0.39520111176E+03  0.92133521379E+02 0.  0.
          2    1    3    3  502    0 -0.82965634685E+02  0.67159616245E+02  0.93507248380E+02  0.14190601147E+03  0.00000000000E+00 0. -1.
         -1    1    3    3    0  502 -0.27207507349E+02  0.57752366802E+02  0.14951911822E+03  0.16257783072E+03  0.00000000000E+00 0.  1.
         13    1    5    5    0    0  0.65569090953E+02 -0.19261314686E+02  0.52803155361E+02  0.86362475346E+02  0.00000000000E+00 0.  1.
        -13    1    5    5    0    0  0.35674354038E+03 -0.20549343731E+03  0.90907719985E+02  0.42161323501E+03  0.00000000000E+00 0. -1.
          1    1    6    6  503    0 -0.27187390740E+02  0.24291742786E+02  0.34097998801E+01  0.36617887952E+02  0.00000000000E+00 0.  1.
         -1    1    6    6    0  503 -0.28495209856E+03  0.75551026163E+02 -0.20414767294E+03  0.35858322381E+03  0.00000000000E+00 0. -1.
<mgrwt>
<rscale>  0 0.11932512E+04</rscale>
<asrwt>0</asrwt>
<pdfrwt beam="1">  1        4 0.10720462E+00 0.11932512E+04</pdfrwt>
<pdfrwt beam="2">  1       -3 0.78589330E-01 0.11932512E+04</pdfrwt>
<totfact> 0.23824907E+00</totfact>
</mgrwt>
</event>
<event>
12    7  0.1857704E-007  0.1249550E+04  0.7818608E-02  0.9070558E-01
         -1   -1    0    0    0  501 -0.00000000000E+00  0.00000000000E+00  0.31771206224E+03  0.31771206224E+03  0.00000000000E+00 0.  1.
          2   -1    0    0  501    0  0.00000000000E+00 -0.00000000000E+00 -0.12286080361E+04  0.12286080361E+04  0.00000000000E+00 0. -1.
         24    2    1    2    0    0 -0.17843281218E+03 -0.13881240932E+03  0.61419619163E+02  0.24746511911E+03  0.79746235726E+02 0.  0.
        254    2    1    2    0    0  0.17843281218E+03  0.13881240932E+03 -0.97231559301E+03  0.12988549792E+04  0.83097502439E+03 0.  0.
         23    2    4    4    0    0  0.26421143781E+03  0.41185507548E+03 -0.82492041871E+03  0.96449627235E+03  0.10162221757E+03 0.  0.
         23    2    4    4    0    0 -0.85778625631E+02 -0.27304266615E+03 -0.14739517430E+03  0.33435870686E+03  0.90333478232E+02 0.  0.
          4    1    3    3  502    0 -0.10486990868E+03 -0.93784364656E+02 -0.15130495421E+01  0.14069646093E+03  0.00000000000E+00 0. -1.
         -3    1    3    3    0  502 -0.73562903503E+02 -0.45028044668E+02  0.62932668706E+02  0.10676865818E+03  0.00000000000E+00 0.  1.
         13    1    5    5    0    0  0.21461467561E+02  0.50537352044E+02 -0.43633248455E+02  0.70131868022E+02  0.00000000000E+00 0.  1.
        -13    1    5    5    0    0  0.24274997025E+03  0.36131772343E+03 -0.78128717025E+03  0.89436440433E+03  0.00000000000E+00 0. -1.
          4    1    6    6  503    0 -0.10231346277E+03 -0.22966540625E+03 -0.13865005705E+03  0.28712032637E+03  0.00000000000E+00 0. -1.
         -4    1    6    6    0  503  0.16534837137E+02 -0.43377259904E+02 -0.87451172470E+01  0.47238380493E+02  0.00000000000E+00 0.  1.
<mgrwt>
<rscale>  0 0.12495497E+04</rscale>
<asrwt>0</asrwt>
<pdfrwt beam="1">  1        2 0.18901662E+00 0.12495497E+04</pdfrwt>
<pdfrwt beam="2">  1       -1 0.48878779E-01 0.12495497E+04</pdfrwt>
<totfact> 0.85546413E+01</totfact>
</mgrwt>
</event>
<event>
12    7  0.1857704E-007  0.3774882E+04  0.7818608E-02  0.8051567E-01
          2   -1    0    0  501    0  0.00000000000E+00  0.00000000000E+00  0.42975977233E+04  0.42975977233E+04  0.00000000000E+00 0. -1.
         -1   -1    0    0    0  501 -0.00000000000E+00 -0.00000000000E+00 -0.82893598029E+03  0.82893598029E+03  0.00000000000E+00 0.  1.
         24    2    1    2    0    0  0.56669277782E+03 -0.16593609249E+04  0.20403959696E+04  0.26912077103E+04  0.69020604252E+02 0.  0.
        254    2    1    2    0    0 -0.56669277782E+03  0.16593609249E+04  0.14282657734E+04  0.24353259932E+04  0.90346565529E+03 0.  0.
         23    2    4    4    0    0 -0.19209473612E+02  0.10840912766E+03  0.55114915688E+03  0.56934623786E+03  0.90929657381E+02 0.  0.
         23    2    4    4    0    0 -0.54748330421E+03  0.15509517973E+04  0.87711661650E+03  0.18659797554E+04  0.85775536786E+02 0.  0.
          4    1    3    3  502    0  0.52402694310E+03 -0.15636855926E+04  0.19380988512E+04  0.25447876191E+04  0.00000000000E+00 0. -1.
         -3    1    3    3    0  502  0.42665834721E+02 -0.95675332348E+02  0.10229711843E+03  0.14642009122E+03  0.00000000000E+00 0.  1.
         13    1    5    5    0    0  0.29158848219E+02  0.81584761457E+02  0.36585295499E+03  0.37597166968E+03  0.00000000000E+00 0. -1.
        -13    1    5    5    0    0 -0.48368321832E+02  0.26824366203E+02  0.18529620190E+03  0.19337456817E+03  0.00000000000E+00 0.  1.
          1    1    6    6  503    0 -0.46180094484E+03  0.12076491442E+04  0.70095269127E+03  0.14707179347E+04  0.00000000000E+00 0. -1.
         -1    1    6    6    0  503 -0.85682359369E+02  0.34330265305E+03  0.17616392523E+03  0.39526182064E+03  0.00000000000E+00 0.  1.
<mgrwt>
<rscale>  0 0.37748819E+04</rscale>
<asrwt>0</asrwt>
<pdfrwt beam="1">  1        2 0.66116887E+00 0.37748819E+04</pdfrwt>
<pdfrwt beam="2">  1       -1 0.12752862E+00 0.37748819E+04</pdfrwt>
<totfact> 0.92033279E-02</totfact>
</mgrwt>
</event>
<event>
12    7  0.1857704E-007  0.2703207E+04  0.7818608E-02  0.8333965E-01
         -1   -1    0    0    0  501 -0.00000000000E+00  0.00000000000E+00  0.86148178576E+03  0.86148178576E+03  0.00000000000E+00 0.  1.
          2   -1    0    0  501    0  0.00000000000E+00 -0.00000000000E+00 -0.21205691876E+04  0.21205691876E+04  0.00000000000E+00 0. -1.
         24    2    1    2    0    0 -0.32352488166E+02  0.65489572099E+03  0.54362686828E+03  0.85549133809E+03  0.80001054775E+02 0.  0.
        254    2    1    2    0    0  0.32352488166E+02 -0.65489572099E+03 -0.18027142701E+04  0.21265596352E+04  0.91790089540E+03 0.  0.
         23    2    4    4    0    0  0.39315056673E+03 -0.58165597682E+03 -0.14264928826E+04  0.15925035421E+04  0.91074388469E+02 0.  0.
         23    2    4    4    0    0 -0.36079807857E+03 -0.73239744178E+02 -0.37622138751E+03  0.53405609309E+03  0.90189048774E+02 0.  0.
          2    1    3    3  502    0 -0.15491394443E+02  0.29236474343E+03  0.19166632565E+03  0.34993300343E+03  0.00000000000E+00 0. -1.
         -1    1    3    3    0  502 -0.16861093723E+02  0.36253097756E+03  0.35196054262E+03  0.50555833466E+03  0.00000000000E+00 0.  1.
         13    1    5    5    0    0  0.14103936468E+03 -0.21434761183E+03 -0.62294600385E+03  0.67372006412E+03  0.00000000000E+00 0.  1.
        -13    1    5    5    0    0  0.25211120205E+03 -0.36730836499E+03 -0.80354687871E+03  0.91878347801E+03  0.00000000000E+00 0. -1.
          3    1    6    6  503    0 -0.15722606488E+03 -0.78075569709E+01 -0.21396268292E+03  0.26563324925E+03  0.00000000000E+00 0. -1.
         -3    1    6    6    0  503 -0.20357201369E+03 -0.65432187207E+02 -0.16225870458E+03  0.26842284383E+03  0.00000000000E+00 0.  1.
<mgrwt>
<rscale>  0 0.27032068E+04</rscale>
<asrwt>0</asrwt>
<pdfrwt beam="1">  1        2 0.32624141E+00 0.27032068E+04</pdfrwt>
<pdfrwt beam="2">  1       -1 0.13253566E+00 0.27032068E+04</pdfrwt>
<totfact> 0.27563292E+00</totfact>
</mgrwt>
</event>
<event>
12    7  0.1857704E-007  0.1884475E+04  0.7818608E-02  0.8662623E-01
         -1   -1    0    0    0  501 -0.00000000000E+00  0.00000000000E+00  0.64216752888E+03  0.64216752888E+03  0.00000000000E+00 0.  1.
          2   -1    0    0  501    0  0.00000000000E+00 -0.00000000000E+00 -0.13825227403E+04  0.13825227403E+04  0.00000000000E+00 0. -1.
         24    2    1    2    0    0 -0.58731552194E+03  0.24011363892E+03 -0.66627071832E+03  0.92316462673E+03  0.75645066246E+02 0.  0.
        254    2    1    2    0    0  0.58731552194E+03 -0.24011363892E+03 -0.74084493082E+02  0.11015256424E+04  0.89737179973E+03 0.  0.
         23    2    4    4    0    0  0.42030759310E+03 -0.22888444975E+03  0.37417953551E+03  0.61433850488E+03  0.91405194772E+02 0.  0.
         23    2    4    4    0    0  0.16700792884E+03 -0.11229189167E+02 -0.44826402859E+03  0.48718713756E+03  0.91612906782E+02 0.  0.
          2    1    3    3  502    0 -0.23615950727E+03  0.83941822769E+02 -0.21317975531E+03  0.32903366174E+03  0.00000000000E+00 0. -1.
         -1    1    3    3    0  502 -0.35115601467E+03  0.15617181615E+03 -0.45309096301E+03  0.59413096499E+03  0.00000000000E+00 0.  1.
         13    1    5    5    0    0  0.51517293055E+02 -0.14850827477E+02  0.80003072829E+02  0.96307165997E+02  0.00000000000E+00 0.  1.
        -13    1    5    5    0    0  0.36879030004E+03 -0.21403362227E+03  0.29417646268E+03  0.51803133889E+03  0.00000000000E+00 0. -1.
          1    1    6    6  503    0 -0.22062893976E+01 -0.87503083329E+01 -0.95550017863E+02  0.95975213063E+02  0.00000000000E+00 0. -1.
         -1    1    6    6    0  503  0.16921421824E+03 -0.24788808339E+01 -0.35271401073E+03  0.39121192450E+03  0.00000000000E+00 0.  1.
<mgrwt>
<rscale>  0 0.18844747E+04</rscale>
<asrwt>0</asrwt>
<pdfrwt beam="1">  1        2 0.21269580E+00 0.18844747E+04</pdfrwt>
<pdfrwt beam="2">  1       -1 0.98795006E-01 0.18844747E+04</pdfrwt>
<totfact> 0.15509188E+01</totfact>
</mgrwt>
</event>
<event>
12    7  0.1857704E-007  0.2926022E+04  0.7818608E-02  0.8265177E-01
         -1   -1    0    0    0  501 -0.00000000000E+00  0.00000000000E+00  0.92703750016E+03  0.92703750016E+03  0.00000000000E+00 0.  1.
          2   -1    0    0  501    0  0.00000000000E+00 -0.00000000000E+00 -0.23088611951E+04  0.23088611951E+04  0.00000000000E+00 0. -1.
         24    2    1    2    0    0 -0.73494320938E+03  0.52030291807E+03 -0.16932450878E+04  0.19197109501E+04  0.85758714566E+02 0.  0.
        254    2    1    2    0    0  0.73494320938E+03 -0.52030291807E+03  0.31142139283E+03  0.13161877452E+04  0.90802546716E+03 0.  0.
         23    2    4    4    0    0  0.16483481973E+03 -0.62122641336E+03 -0.55600882767E+01  0.64958051959E+03  0.93974264536E+02 0.  0.
         23    2    4    4    0    0  0.57010838964E+03  0.10092349529E+03  0.31698148110E+03  0.66660722556E+03  0.93160109309E+02 0.  0.
          2    1    3    3  502    0 -0.48807860456E+03  0.29660789878E+03 -0.10921320147E+04  0.12324566148E+04  0.00000000000E+00 0. -1.
         -1    1    3    3    0  502 -0.24686460482E+03  0.22369501929E+03 -0.60111307305E+03  0.68725433528E+03  0.00000000000E+00 0.  1.
         13    1    5    5    0    0  0.84994639419E+02 -0.20265739224E+03  0.30841993682E+02  0.22191290169E+03  0.00000000000E+00 0.  1.
        -13    1    5    5    0    0  0.79840180316E+02 -0.41856902112E+03 -0.36402081958E+02  0.42766761790E+03  0.00000000000E+00 0. -1.
          4    1    6    6  503    0  0.16125618399E+03 -0.11386660285E+02  0.72463797527E+02  0.17715590552E+03  0.00000000000E+00 0. -1.
         -4    1    6    6    0  503  0.40885220565E+03  0.11231015558E+03  0.24451768358E+03  0.48945132005E+03  0.00000000000E+00 0.  1.
<mgrwt>
<rscale>  0 0.29260218E+04</rscale>
<asrwt>0</asrwt>
<pdfrwt beam="1">  1        2 0.35520941E+00 0.29260218E+04</pdfrwt>
<pdfrwt beam="2">  1       -1 0.14262116E+00 0.29260218E+04</pdfrwt>
<totfact> 0.17515115E+00</totfact>
</mgrwt>
</event>
<event>
12    7  0.1857704E-007  0.2883998E+04  0.7818608E-02  0.8277655E-01
          2   -1    0    0  501    0  0.00000000000E+00  0.00000000000E+00  0.41533706717E+04  0.41533706717E+04  0.00000000000E+00 0. -1.
         -1   -1    0    0    0  501 -0.00000000000E+00 -0.00000000000E+00 -0.50064418529E+03  0.50064418529E+03  0.00000000000E+00 0.  1.
         24    2    1    2    0    0  0.39515260557E+03 -0.12021947430E+04  0.21212335345E+04  0.24716832559E+04  0.90380462846E+02 0.  0.
        254    2    1    2    0    0 -0.39515260557E+03  0.12021947430E+04  0.15314929520E+04  0.21823316011E+04  0.90315157832E+03 0.  0.
         23    2    4    4    0    0  0.10293554446E+03  0.15694268817E+03 -0.55947635107E+02  0.21535892012E+03  0.89568928298E+02 0.  0.
         23    2    4    4    0    0 -0.49808815004E+03  0.10452520548E+04  0.15874405871E+04  0.19669726810E+04  0.91489053353E+02 0.  0.
          2    1    3    3  502    0  0.34126767735E+03 -0.10650373575E+04  0.18162335054E+04  0.21329492133E+04  0.00000000000E+00 0. -1.
         -1    1    3    3    0  502  0.53884928221E+02 -0.13715738554E+03  0.30500002907E+03  0.33873404263E+03  0.00000000000E+00 0.  1.
         13    1    5    5    0    0  0.14131827579E+02  0.42722259060E+02 -0.54493355562E+02  0.70671251371E+02  0.00000000000E+00 0. -1.
        -13    1    5    5    0    0  0.88803716886E+02  0.11422042911E+03 -0.14542795450E+01  0.14468766875E+03  0.00000000000E+00 0.  1.
          1    1    6    6  503    0 -0.54341368774E+02  0.11160299359E+03  0.22218598204E+03  0.25450898443E+03  0.00000000000E+00 0. -1.
         -1    1    6    6    0  503 -0.44374678126E+03  0.93364906124E+03  0.13652546050E+04  0.17124636965E+04  0.00000000000E+00 0.  1.
<mgrwt>
<rscale>  0 0.28839978E+04</rscale>
<asrwt>0</asrwt>
<pdfrwt beam="1">  1        2 0.63898008E+00 0.28839978E+04</pdfrwt>
<pdfrwt beam="2">  1       -1 0.77022185E-01 0.28839978E+04</pdfrwt>
<totfact> 0.42358958E-01</totfact>
</mgrwt>
</event>
<event>
12    7  0.1857704E-007  0.1959816E+04  0.7818608E-02  0.8625642E-01
          2   -1    0    0  501    0  0.00000000000E+00  0.00000000000E+00  0.90048163943E+03  0.90048163943E+03  0.00000000000E+00 0. -1.
         -1   -1    0    0    0  501 -0.00000000000E+00 -0.00000000000E+00 -0.10663396213E+04  0.10663396213E+04  0.00000000000E+00 0.  1.
         24    2    1    2    0    0  0.26580103437E+03 -0.71622002424E+03  0.26358069427E+02  0.76915333584E+03  0.85327564232E+02 0.  0.
        254    2    1    2    0    0 -0.26580103437E+03  0.71622002424E+03 -0.19221605132E+03  0.11976679249E+04  0.90213088575E+03 0.  0.
         23    2    4    4    0    0  0.58775435168E+02 -0.43866264032E+02  0.23520978749E+03  0.26254607032E+03  0.90708290750E+02 0.  0.
         23    2    4    4    0    0 -0.32457646953E+03  0.76008628827E+03 -0.42742583881E+03  0.93512185460E+03  0.93161070652E+02 0.  0.
          2    1    3    3  502    0  0.27039699452E+03 -0.70912279370E+03  0.30899670898E+02  0.75955543633E+03  0.00000000000E+00 0. -1.
         -3    1    3    3    0  502 -0.45959601583E+01 -0.70972305333E+01 -0.45416014710E+01  0.95978995067E+01  0.00000000000E+00 0.  1.
         13    1    5    5    0    0  0.70809386534E+00 -0.42690257265E+02  0.16974018826E+03  0.17502768630E+03  0.00000000000E+00 0. -1.
        -13    1    5    5    0    0  0.58067341302E+02 -0.11760067672E+01  0.65469599233E+02  0.87518384020E+02  0.00000000000E+00 0.  1.
          3    1    6    6  503    0 -0.30537140533E+03  0.72317634413E+03 -0.42675840505E+03  0.89350906889E+03  0.00000000000E+00 0. -1.
         -3    1    6    6    0  503 -0.19205064200E+02  0.36909944140E+02 -0.66743376316E+00  0.41612785718E+02  0.00000000000E+00 0.  1.
<mgrwt>
<rscale>  0 0.19598156E+04</rscale>
<asrwt>0</asrwt>
<pdfrwt beam="1">  1        2 0.13853564E+00 0.19598156E+04</pdfrwt>
<pdfrwt beam="2">  1       -1 0.16405225E+00 0.19598156E+04</pdfrwt>
<totfact> 0.84880958E+00</totfact>
</mgrwt>
</event>
<event>
12    7  0.1857704E-007  0.1227168E+04  0.7818608E-02  0.9089403E-01
         -1   -1    0    0    0  501 -0.00000000000E+00  0.00000000000E+00  0.13095132465E+03  0.13095132465E+03  0.00000000000E+00 0.  1.
          2   -1    0    0  501    0  0.00000000000E+00 -0.00000000000E+00 -0.28750038506E+04  0.28750038506E+04  0.00000000000E+00 0. -1.
         24    2    1    2    0    0  0.24064149562E+03  0.13953087007E+03 -0.46171999063E+03  0.54487233400E+03  0.79519290105E+02 0.  0.
        254    2    1    2    0    0 -0.24064149562E+03 -0.13953087007E+03 -0.22823325354E+04  0.24610828413E+04  0.87778685148E+03 0.  0.
         23    2    4    4    0    0 -0.17872737541E+03 -0.10778111175E+03 -0.59803322155E+02  0.23557467987E+03  0.91426198004E+02 0.  0.
         23    2    4    4    0    0 -0.61914120202E+02 -0.31749758322E+02 -0.22225292132E+04  0.22255081614E+04  0.91700968370E+02 0.  0.
          4    1    3    3  502    0  0.16391752583E+03  0.10378218054E+03 -0.24708901080E+03  0.31415390421E+03  0.00000000000E+00 0. -1.
         -3    1    3    3    0  502  0.76723969782E+02  0.35748689526E+02 -0.21463097983E+03  0.23071842979E+03  0.00000000000E+00 0.  1.
         13    1    5    5    0    0 -0.14764069327E+03 -0.50339957167E+02 -0.67194857978E+02  0.16984414778E+03  0.00000000000E+00 0. -1.
        -13    1    5    5    0    0 -0.31086682141E+02 -0.57441154580E+02  0.73915358224E+01  0.65730532083E+02  0.00000000000E+00 0.  1.
          1    1    6    6  503    0  0.18320395016E+02 -0.10352335007E+02 -0.97058288238E+03  0.97081096990E+03  0.00000000000E+00 0. -1.
         -1    1    6    6    0  503 -0.80234515217E+02 -0.21397423315E+02 -0.12519463308E+04  0.12546971915E+04  0.00000000000E+00 0.  1.
<mgrwt>
<rscale>  0 0.12271684E+04</rscale>
<asrwt>0</asrwt>
<pdfrwt beam="1">  1        2 0.44230826E+00 0.12271684E+04</pdfrwt>
<pdfrwt beam="2">  1       -1 0.20146359E-01 0.12271684E+04</pdfrwt>
<totfact> 0.47723063E+01</totfact>
</mgrwt>
</event>
<event>
12    7  0.1857704E-007  0.1551785E+04  0.7818608E-02  0.8850729E-01
         -1   -1    0    0    0  501 -0.00000000000E+00  0.00000000000E+00  0.41206507756E+03  0.41206507756E+03  0.00000000000E+00 0.  1.
          2   -1    0    0  501    0  0.00000000000E+00 -0.00000000000E+00 -0.14609557110E+04  0.14609557110E+04  0.00000000000E+00 0. -1.
         24    2    1    2    0    0 -0.47029206331E+02  0.30329551749E+03  0.15106125486E+03  0.35127240123E+03  0.79830319840E+02 0.  0.
        254    2    1    2    0    0  0.47029206331E+02 -0.30329551749E+03 -0.11999518883E+04  0.15217483873E+04  0.88410050498E+03 0.  0.
         23    2    4    4    0    0  0.33064545879E+03 -0.10016642487E+03 -0.11001157880E+03  0.37376433382E+03  0.90760661518E+02 0.  0.
         23    2    4    4    0    0 -0.28361625246E+03 -0.20312909262E+03 -0.10899403095E+04  0.11479840535E+04  0.90542265784E+02 0.  0.
          4    1    3    3  502    0 -0.97246181713E+01  0.28672654513E+02  0.45608141692E+02  0.54742962141E+02  0.00000000000E+00 0. -1.
         -3    1    3    3    0  502 -0.37304588160E+02  0.27462286298E+03  0.10545311317E+03  0.29652943909E+03  0.00000000000E+00 0.  1.
         13    1    5    5    0    0  0.24304259545E+03 -0.40516129536E+02 -0.10449223787E+03  0.26763760523E+03  0.00000000000E+00 0. -1.
        -13    1    5    5    0    0  0.87602863334E+02 -0.59650295336E+02 -0.55193409330E+01  0.10612672860E+03  0.00000000000E+00 0.  1.
          2    1    6    6  503    0 -0.28107432254E+03 -0.18197335382E+03 -0.10568673447E+04  0.11086413580E+04  0.00000000000E+00 0. -1.
         -2    1    6    6    0  503 -0.25419299197E+01 -0.21155738792E+02 -0.33072964804E+02  0.39342695542E+02  0.00000000000E+00 0.  1.
<mgrwt>
<rscale>  0 0.15517846E+04</rscale>
<asrwt>0</asrwt>
<pdfrwt beam="1">  1        2 0.22476242E+00 0.15517846E+04</pdfrwt>
<pdfrwt beam="2">  1       -1 0.63394627E-01 0.15517846E+04</pdfrwt>
<totfact> 0.36970168E+01</totfact>
</mgrwt>
</event>
<event>
12    7  0.1857704E-007  0.1667517E+04  0.7818608E-02  0.8780110E-01
         -1   -1    0    0    0  501 -0.00000000000E+00  0.00000000000E+00  0.11374220395E+04  0.11374220395E+04  0.00000000000E+00 0.  1.
          2   -1    0    0  501    0  0.00000000000E+00 -0.00000000000E+00 -0.61116577842E+03  0.61116577842E+03  0.00000000000E+00 0. -1.
         24    2    1    2    0    0  0.40545200223E+03 -0.17730078799E+03 -0.22782463638E+03  0.50373915122E+03  0.77602654597E+02 0.  0.
        254    2    1    2    0    0 -0.40545200223E+03  0.17730078799E+03  0.75408089743E+03  0.12448486667E+04  0.88610569771E+03 0.  0.
         23    2    4    4    0    0 -0.87569991777E+02  0.37926661748E+01 -0.19063744108E+03  0.22890660952E+03  0.91502536378E+02 0.  0.
         23    2    4    4    0    0 -0.31788201045E+03  0.17350812181E+03  0.94471833850E+03  0.10159420572E+04  0.92149245693E+02 0.  0.
          4    1    3    3  502    0  0.15327341884E+03 -0.92289285178E+02 -0.12587643493E+03  0.21875769689E+03  0.00000000000E+00 0. -1.
         -3    1    3    3    0  502  0.25217858339E+03 -0.85011502810E+02 -0.10194820145E+03  0.28498145433E+03  0.00000000000E+00 0.  1.
         13    1    5    5    0    0 -0.96060093975E+02  0.89554888852E+01 -0.10460530002E+03  0.14230253416E+03  0.00000000000E+00 0.  1.
        -13    1    5    5    0    0  0.84901021987E+01 -0.51628227105E+01 -0.86032141058E+02  0.86604075359E+02  0.00000000000E+00 0. -1.
          4    1    6    6  503    0 -0.29899801670E+03  0.13819604953E+03  0.88231993449E+03  0.94179956938E+03  0.00000000000E+00 0.  1.
         -4    1    6    6    0  503 -0.18883993759E+02  0.35312072281E+02  0.62398404014E+02  0.74142487769E+02  0.00000000000E+00 0. -1.
<mgrwt>
<rscale>  0 0.16675172E+04</rscale>
<asrwt>0</asrwt>
<pdfrwt beam="1">  1        2 0.94025505E-01 0.16675172E+04</pdfrwt>
<pdfrwt beam="2">  1       -1 0.17498801E+00 0.16675172E+04</pdfrwt>
<totfact> 0.11955971E+01</totfact>
</mgrwt>
</event>
<event>
12    7  0.1857704E-007  0.1236878E+04  0.7818608E-02  0.9081176E-01
          2   -1    0    0  501    0  0.00000000000E+00  0.00000000000E+00  0.14274744147E+04  0.14274744147E+04  0.00000000000E+00 0. -1.
         -1   -1    0    0    0  501 -0.00000000000E+00 -0.00000000000E+00 -0.26793270873E+03  0.26793270873E+03  0.00000000000E+00 0.  1.
         24    2    1    2    0    0 -0.23577451650E+03 -0.12902719217E+03  0.16259404383E+03  0.32375825230E+03  0.78389692546E+02 0.  0.
        254    2    1    2    0    0  0.23577451650E+03  0.12902719217E+03  0.99694766215E+03  0.13716488711E+04  0.90292765251E+03 0.  0.
         23    2    4    4    0    0 -0.13031393039E+02  0.97193227873E+02 -0.14537747868E+03  0.19848970085E+03  0.92990372018E+02 0.  0.
         23    2    4    4    0    0  0.24880590954E+03  0.31833964293E+02  0.11423251408E+04  0.11731591703E+04  0.92075673022E+02 0.  0.
          4    1    3    3  502    0 -0.15534730083E+03 -0.68231963322E+02  0.60132183101E+02  0.18001184444E+03  0.00000000000E+00 0. -1.
         -1    1    3    3    0  502 -0.80427215674E+02 -0.60795228844E+02  0.10246186073E+03  0.14374640787E+03  0.00000000000E+00 0.  1.
         13    1    5    5    0    0  0.14603610930E+02  0.94265221926E+02 -0.14117995645E+03  0.17038479281E+03  0.00000000000E+00 0. -1.
        -13    1    5    5    0    0 -0.27635003969E+02  0.29280059471E+01 -0.41975222261E+01  0.28104908041E+02  0.00000000000E+00 0.  1.
          4    1    6    6  503    0  0.21762579414E+03  0.30660512031E+02  0.10923783070E+04  0.11142672117E+04  0.00000000000E+00 0. -1.
         -4    1    6    6    0  503  0.31180115400E+02  0.11734522616E+01  0.49946833785E+02  0.58891958634E+02  0.00000000000E+00 0.  1.
<mgrwt>
<rscale>  0 0.12368785E+04</rscale>
<asrwt>0</asrwt>
<pdfrwt beam="1">  1        2 0.21961144E+00 0.12368785E+04</pdfrwt>
<pdfrwt beam="2">  1       -1 0.41220417E-01 0.12368785E+04</pdfrwt>
<totfact> 0.90190851E+01</totfact>
</mgrwt>
</event>
<event>
12    7  0.1857704E-007  0.1469898E+04  0.7818608E-02  0.8904721E-01
          2   -1    0    0  501    0  0.00000000000E+00  0.00000000000E+00  0.15349750609E+04  0.15349750609E+04  0.00000000000E+00 0. -1.
         -1   -1    0    0    0  501 -0.00000000000E+00 -0.00000000000E+00 -0.35189486337E+03  0.35189486337E+03  0.00000000000E+00 0.  1.
         24    2    1    2    0    0  0.16365027055E+03  0.36164361408E+03  0.66557083211E+03  0.77927856030E+03  0.81994068850E+02 0.  0.
        254    2    1    2    0    0 -0.16365027055E+03 -0.36164361408E+03  0.51750936545E+03  0.11075913640E+04  0.89519560522E+03 0.  0.
         23    2    4    4    0    0  0.21346623308E+03 -0.37714155801E+03  0.56326843407E+03  0.71638511827E+03  0.90181602426E+02 0.  0.
         23    2    4    4    0    0 -0.37711650363E+03  0.15497943923E+02 -0.45759068621E+02  0.39120624572E+03  0.92148742544E+02 0.  0.
          4    1    3    3  502    0  0.51705880195E+02  0.12349957616E+03  0.30317906360E+03  0.33142599168E+03  0.00000000000E+00 0. -1.
         -3    1    3    3    0  502  0.11194439036E+03  0.23814403792E+03  0.36239176851E+03  0.44785256862E+03  0.00000000000E+00 0.  1.
         13    1    5    5    0    0  0.18950659862E+02 -0.10732851068E+03  0.16085323968E+03  0.19429951474E+03  0.00000000000E+00 0. -1.
        -13    1    5    5    0    0  0.19451557322E+03 -0.26981304733E+03  0.40241519439E+03  0.52208560352E+03  0.00000000000E+00 0.  1.
          1    1    6    6  503    0 -0.81382651742E+02 -0.33724826297E+02 -0.19730662475E+02  0.90276236934E+02  0.00000000000E+00 0. -1.
         -1    1    6    6    0  503 -0.29573385189E+03  0.49222770219E+02 -0.26028406146E+02  0.30093000879E+03  0.00000000000E+00 0.  1.
<mgrwt>
<rscale>  0 0.14698977E+04</rscale>
<asrwt>0</asrwt>
<pdfrwt beam="1">  1        2 0.23615001E+00 0.14698977E+04</pdfrwt>
<pdfrwt beam="2">  1       -1 0.54137672E-01 0.14698977E+04</pdfrwt>
<totfact> 0.46106027E+01</totfact>
</mgrwt>
</event>
<event>
12    7  0.1857704E-007  0.2671662E+04  0.7818608E-02  0.8344259E-01
         -1   -1    0    0    0  501 -0.00000000000E+00  0.00000000000E+00  0.36976524536E+03  0.36976524536E+03  0.00000000000E+00 0.  1.
          2   -1    0    0  501    0  0.00000000000E+00 -0.00000000000E+00 -0.48258841456E+04  0.48258841456E+04  0.00000000000E+00 0. -1.
         24    2    1    2    0    0  0.99964215536E+03 -0.31608064611E+03 -0.30506009742E+04  0.32267456008E+04  0.80805043716E+02 0.  0.
        254    2    1    2    0    0 -0.99964215536E+03  0.31608064611E+03 -0.14055179261E+04  0.19689037901E+04  0.89549432200E+03 0.  0.
         23    2    4    4    0    0 -0.68407480197E+02 -0.10227286828E+02  0.10471408121E+03  0.16260766132E+03  0.10340228225E+03 0.  0.
         23    2    4    4    0    0 -0.93123467516E+03  0.32630793294E+03 -0.15102320073E+04  0.18062961288E+04  0.90719909019E+02 0.  0.
          4    1    3    3  502    0  0.78294179931E+03 -0.26804768851E+03 -0.23203949891E+04  0.24635503506E+04  0.00000000000E+00 0. -1.
         -3    1    3    3    0  502  0.21670035605E+03 -0.48032957602E+02 -0.73020598508E+03  0.76319525023E+03  0.00000000000E+00 0.  1.
         13    1    5    5    0    0 -0.53406086953E+02 -0.14005301138E+02  0.12526036197E+03  0.13688870247E+03  0.00000000000E+00 0.  1.
        -13    1    5    5    0    0 -0.15001393244E+02  0.37780143099E+01 -0.20546280761E+02  0.25718958853E+02  0.00000000000E+00 0. -1.
          3    1    6    6  503    0 -0.13979333946E+03  0.37823663021E+02 -0.17006643402E+03  0.22337278084E+03  0.00000000000E+00 0. -1.
         -3    1    6    6    0  503 -0.79144133570E+03  0.28848426992E+03 -0.13401655732E+04  0.15829233480E+04  0.00000000000E+00 0.  1.
<mgrwt>
<rscale>  0 0.26716618E+04</rscale>
<asrwt>0</asrwt>
<pdfrwt beam="1">  1        2 0.74244370E+00 0.26716618E+04</pdfrwt>
<pdfrwt beam="2">  1       -1 0.56886962E-01 0.26716618E+04</pdfrwt>
<totfact> 0.17476141E-01</totfact>
</mgrwt>
</event>
<event>
12    7  0.1857704E-007  0.1248387E+04  0.7818608E-02  0.9071527E-01
         -1   -1    0    0    0  501 -0.00000000000E+00  0.00000000000E+00  0.12193741086E+03  0.12193741086E+03  0.00000000000E+00 0.  1.
          2   -1    0    0  501    0  0.00000000000E+00 -0.00000000000E+00 -0.31952268974E+04  0.31952268974E+04  0.00000000000E+00 0. -1.
         24    2    1    2    0    0  0.85303173949E+02 -0.20827394558E+03 -0.12300888323E+04  0.12544562643E+04  0.99434982203E+02 0.  0.
        254    2    1    2    0    0 -0.85303173949E+02  0.20827394558E+03 -0.18432006542E+04  0.20627080439E+04  0.89817657232E+03 0.  0.
         23    2    4    4    0    0 -0.30523345183E+03 -0.18141303903E+03 -0.13086551478E+04  0.13592240845E+04  0.93987579915E+02 0.  0.
         23    2    4    4    0    0  0.21993027788E+03  0.38968698462E+03 -0.53454550632E+03  0.70348395938E+03  0.94474915584E+02 0.  0.
          4    1    3    3  502    0  0.80364409473E+02 -0.95535464932E+02 -0.80596795581E+03  0.81557943155E+03  0.00000000000E+00 0. -1.
         -3    1    3    3    0  502  0.49387644765E+01 -0.11273848065E+03 -0.42412087652E+03  0.43887683274E+03  0.00000000000E+00 0.  1.
         13    1    5    5    0    0 -0.28518771936E+03 -0.13407463608E+03 -0.11536506168E+04  0.11959171330E+04  0.00000000000E+00 0. -1.
        -13    1    5    5    0    0 -0.20045732466E+02 -0.47338402957E+02 -0.15500453106E+03  0.16330695158E+03  0.00000000000E+00 0.  1.
          1    1    6    6  503    0  0.42614971402E+02  0.24461286482E+02 -0.38169114989E+02  0.62219544060E+02  0.00000000000E+00 0. -1.
         -1    1    6    6    0  503  0.17731530647E+03  0.36522569813E+03 -0.49637639133E+03  0.64126441532E+03  0.00000000000E+00 0.  1.
<mgrwt>
<rscale>  0 0.12483873E+04</rscale>
<asrwt>0</asrwt>
<pdfrwt beam="1">  1        2 0.49157338E+00 0.12483873E+04</pdfrwt>
<pdfrwt beam="2">  1       -1 0.18759601E-01 0.12483873E+04</pdfrwt>
<totfact> 0.33864472E+01</totfact>
</mgrwt>
</event>
<event>
12    7  0.1857704E-007  0.1938864E+04  0.7818608E-02  0.8635750E-01
          2   -1    0    0  501    0  0.00000000000E+00  0.00000000000E+00  0.70569678166E+03  0.70569678166E+03  0.00000000000E+00 0. -1.
         -1   -1    0    0    0  501 -0.00000000000E+00 -0.00000000000E+00 -0.13317308531E+04  0.13317308531E+04  0.00000000000E+00 0.  1.
         24    2    1    2    0    0  0.39942234149E+03  0.60891997011E+03 -0.42466784327E+03  0.84671783380E+03  0.79161708511E+02 0.  0.
        254    2    1    2    0    0 -0.39942234149E+03 -0.60891997011E+03 -0.20136622819E+03  0.11907098010E+04  0.92028242154E+03 0.  0.
         23    2    4    4    0    0 -0.23488395930E+03 -0.78504205068E+03  0.56178593484E+02  0.82592904260E+03  0.86840390188E+02 0.  0.
         23    2    4    4    0    0 -0.16453838219E+03  0.17612208058E+03 -0.25754482167E+03  0.36478075837E+03  0.92972038962E+02 0.  0.
          4    1    3    3  502    0 -0.10187369855E+01  0.21864915692E+02 -0.13413032886E+02  0.25671420188E+02  0.00000000000E+00 0. -1.
         -3    1    3    3    0  502  0.40044107847E+03  0.58705505441E+03 -0.41125481039E+03  0.82104641361E+03  0.00000000000E+00 0.  1.
         13    1    5    5    0    0 -0.15903006079E+03 -0.40375255583E+03  0.52882609999E+02  0.43715358516E+03  0.00000000000E+00 0.  1.
        -13    1    5    5    0    0 -0.75853898510E+02 -0.38128949485E+03  0.32959834848E+01  0.38877545744E+03  0.00000000000E+00 0. -1.
          4    1    6    6  503    0 -0.10283621494E+03  0.50098541010E+02 -0.85738559534E+02  0.14295541789E+03  0.00000000000E+00 0. -1.
         -4    1    6    6    0  503 -0.61702167248E+02  0.12602353957E+03 -0.17180626214E+03  0.22182534048E+03  0.00000000000E+00 0.  1.
<mgrwt>
<rscale>  0 0.19388638E+04</rscale>
<asrwt>0</asrwt>
<pdfrwt beam="1">  1        2 0.10856874E+00 0.19388638E+04</pdfrwt>
<pdfrwt beam="2">  1       -1 0.20488167E+00 0.19388638E+04</pdfrwt>
<totfact> 0.60210193E+00</totfact>
</mgrwt>
</event>
<event>
12    7  0.1857704E-007  0.5309819E+04  0.7818608E-02  0.7782414E-01
          2   -1    0    0  501    0  0.00000000000E+00  0.00000000000E+00  0.40774337077E+04  0.40774337077E+04  0.00000000000E+00 0. -1.
         -1   -1    0    0    0  501 -0.00000000000E+00 -0.00000000000E+00 -0.17286715110E+04  0.17286715110E+04  0.00000000000E+00 0.  1.
         24    2    1    2    0    0  0.19504346637E+04  0.18886421506E+03  0.29605224108E+04  0.35512082797E+04  0.80760333956E+02 0.  0.
        254    2    1    2    0    0 -0.19504346637E+04 -0.18886421506E+03 -0.61176021413E+03  0.22548969390E+04  0.93297619316E+03 0.  0.
         23    2    4    4    0    0 -0.11426289250E+04 -0.43326615417E+03 -0.68100539851E+03  0.14019301422E+04  0.91210471848E+02 0.  0.
         23    2    4    4    0    0 -0.80780573871E+03  0.24440193911E+03  0.69245184371E+02  0.85296679686E+03  0.10234765098E+03 0.  0.
          2    1    3    3  502    0  0.99210030739E+03  0.71898894242E+02  0.14436143601E+04  0.17531271750E+04  0.00000000000E+00 0. -1.
         -1    1    3    3    0  502  0.95833435629E+03  0.11696532082E+03  0.15169080507E+04  0.17980811047E+04  0.00000000000E+00 0.  1.
         13    1    5    5    0    0 -0.11482883525E+02 -0.22403316946E+01 -0.18821335096E+02  0.22161190287E+02  0.00000000000E+00 0.  1.
        -13    1    5    5    0    0 -0.11311460414E+04 -0.43102582248E+03 -0.66218406341E+03  0.13797689519E+04  0.00000000000E+00 0. -1.
          3    1    6    6  503    0 -0.73830051038E+03  0.19677093210E+03  0.78994956787E+02  0.76814493850E+03  0.00000000000E+00 0. -1.
         -3    1    6    6    0  503 -0.69505228326E+02  0.47631007010E+02 -0.97497724160E+01  0.84821858360E+02  0.00000000000E+00 0.  1.
<mgrwt>
<rscale>  0 0.53098186E+04</rscale>
<asrwt>0</asrwt>
<pdfrwt beam="1">  1        2 0.62729749E+00 0.53098186E+04</pdfrwt>
<pdfrwt beam="2">  1       -1 0.26594946E+00 0.53098186E+04</pdfrwt>
<totfact> 0.13009668E-02</totfact>
</mgrwt>
</event>
<event>
12    7  0.1857704E-007  0.2028119E+04  0.7818608E-02  0.8593586E-01
         -1   -1    0    0    0  501 -0.00000000000E+00  0.00000000000E+00  0.34978821577E+03  0.34978821577E+03  0.00000000000E+00 0.  1.
          2   -1    0    0  501    0  0.00000000000E+00 -0.00000000000E+00 -0.29398273928E+04  0.29398273928E+04  0.00000000000E+00 0. -1.
         24    2    1    2    0    0  0.53529686942E+03 -0.30006729909E+03 -0.19144316505E+04  0.20120206248E+04  0.81211622456E+02 0.  0.
        254    2    1    2    0    0 -0.53529686942E+03  0.30006729909E+03 -0.67560752654E+03  0.12775949838E+04  0.89399121379E+03 0.  0.
         23    2    4    4    0    0 -0.41578732358E+03  0.59836490495E+03 -0.56249308764E+03  0.92506179737E+03  0.91767082206E+02 0.  0.
         23    2    4    4    0    0 -0.11950954584E+03 -0.29829760585E+03 -0.11311443889E+03  0.35253318644E+03  0.90668506394E+02 0.  0.
          2    1    3    3  502    0  0.18608950827E+03 -0.97790576553E+02 -0.78477458536E+03  0.81244289139E+03  0.00000000000E+00 0. -1.
         -1    1    3    3    0  502  0.34920736115E+03 -0.20227672254E+03 -0.11296570652E+04  0.11995777334E+04  0.00000000000E+00 0.  1.
         13    1    5    5    0    0 -0.55427567107E+02  0.37069375392E+02 -0.39928925761E+02  0.77721765933E+02  0.00000000000E+00 0. -1.
        -13    1    5    5    0    0 -0.36035975647E+03  0.56129552955E+03 -0.52256416188E+03  0.84734003143E+03  0.00000000000E+00 0.  1.
          2    1    6    6  503    0 -0.10160944969E+03 -0.17376913163E+03 -0.10353173678E+03  0.22636035849E+03  0.00000000000E+00 0. -1.
         -2    1    6    6    0  503 -0.17900096155E+02 -0.12452847422E+03 -0.95827021127E+01  0.12617282796E+03  0.00000000000E+00 0.  1.
<mgrwt>
<rscale>  0 0.20281193E+04</rscale>
<asrwt>0</asrwt>
<pdfrwt beam="1">  1        2 0.45228111E+00 0.20281193E+04</pdfrwt>
<pdfrwt beam="2">  1       -1 0.53813575E-01 0.20281193E+04</pdfrwt>
<totfact> 0.69941911E+00</totfact>
</mgrwt>
</event>
<event>
12    7  0.1886824E-007  0.2356960E+04  0.7818608E-02  0.8455795E-01
         -1   -1    0    0    0  501 -0.00000000000E+00  0.00000000000E+00  0.72451270597E+03  0.72451270597E+03  0.00000000000E+00 0.  1.
          2   -1    0    0  501    0  0.00000000000E+00 -0.00000000000E+00 -0.19168953416E+04  0.19168953416E+04  0.00000000000E+00 0. -1.
         24    2    1    2    0    0 -0.70432145697E+03 -0.24435542140E+03 -0.12711755945E+04  0.14757919802E+04  0.79349166304E+02 0.  0.
        254    2    1    2    0    0  0.70432145697E+03  0.24435542140E+03  0.78792958797E+02  0.11656160674E+04  0.89256607569E+03 0.  0.
         23    2    4    4    0    0  0.22572391590E+03 -0.31249605766E+03 -0.91747437505E+02  0.40636595436E+03  0.90059004611E+02 0.  0.
         23    2    4    4    0    0  0.47859754107E+03  0.55685147905E+03  0.17054039630E+03  0.75925011303E+03  0.90760846842E+02 0.  0.
          2    1    3    3  502    0 -0.63713743560E+03 -0.22209739585E+03 -0.10985103849E+04  0.12891844053E+04  0.00000000000E+00 0. -1.
         -1    1    3    3    0  502 -0.67184021373E+02 -0.22258025552E+02 -0.17266520959E+03  0.18660757496E+03  0.00000000000E+00 0.  1.
         13    1    5    5    0    0  0.83820400774E+02 -0.71123591192E+02 -0.58151540445E+02  0.12436248014E+03  0.00000000000E+00 0.  1.
        -13    1    5    5    0    0  0.14190351513E+03 -0.24137246646E+03 -0.33595897061E+02  0.28200347422E+03  0.00000000000E+00 0. -1.
          2    1    6    6  503    0  0.32514748899E+03  0.35933888789E+03  0.69805267100E+02  0.48961015233E+03  0.00000000000E+00 0. -1.
         -2    1    6    6    0  503  0.15345005208E+03  0.19751259117E+03  0.10073512920E+03  0.26963996070E+03  0.00000000000E+00 0.  1.
<mgrwt>
<rscale>  0 0.23569599E+04</rscale>
<asrwt>0</asrwt>
<pdfrwt beam="1">  1        2 0.29490697E+00 0.23569599E+04</pdfrwt>
<pdfrwt beam="2">  1       -1 0.11146349E+00 0.23569599E+04</pdfrwt>
<totfact> 0.56448717E+00</totfact>
</mgrwt>
</event>
<event>
12    7  0.1857704E-007  0.2254213E+04  0.7818608E-02  0.8496196E-01
         -1   -1    0    0    0  501 -0.00000000000E+00  0.00000000000E+00  0.10312256606E+04  0.10312256606E+04  0.00000000000E+00 0.  1.
          2   -1    0    0  501    0  0.00000000000E+00 -0.00000000000E+00 -0.12319020990E+04  0.12319020990E+04  0.00000000000E+00 0. -1.
         24    2    1    2    0    0  0.77888081867E+02  0.32161403547E+03  0.80273181305E+03  0.87259167103E+03  0.86808522459E+02 0.  0.
        254    2    1    2    0    0 -0.77888081867E+02 -0.32161403547E+03 -0.10034082514E+04  0.13905360885E+04  0.90402453138E+03 0.  0.
         23    2    4    4    0    0  0.37498420981E+03  0.70707744469E+01 -0.50491576431E+03  0.63565880967E+03  0.91973038432E+02 0.  0.
         23    2    4    4    0    0 -0.45287229167E+03 -0.32868480991E+03 -0.49849248712E+03  0.75487727886E+03  0.90652796883E+02 0.  0.
          2    1    3    3  502    0 -0.68511085748E+01  0.15503538159E+03  0.35863335214E+03  0.39076948256E+03  0.00000000000E+00 0. -1.
         -1    1    3    3    0  502  0.84739190442E+02  0.16657865388E+03  0.44409846091E+03  0.48182218848E+03  0.00000000000E+00 0.  1.
         13    1    5    5    0    0  0.36065866252E+02  0.30811103533E+01 -0.10699418052E+03  0.11295129311E+03  0.00000000000E+00 0. -1.
        -13    1    5    5    0    0  0.33891834356E+03  0.39896640937E+01 -0.39792158379E+03  0.52270751655E+03  0.00000000000E+00 0.  1.
          4    1    6    6  503    0 -0.15978617299E+03 -0.89178732084E+02 -0.11538268597E+03  0.21632760239E+03  0.00000000000E+00 0. -1.
         -4    1    6    6    0  503 -0.29308611869E+03 -0.23950607783E+03 -0.38310980115E+03  0.53854967647E+03  0.00000000000E+00 0.  1.
<mgrwt>
<rscale>  0 0.22542130E+04</rscale>
<asrwt>0</asrwt>
<pdfrwt beam="1">  1        2 0.18952340E+00 0.22542130E+04</pdfrwt>
<pdfrwt beam="2">  1       -1 0.15865010E+00 0.22542130E+04</pdfrwt>
<totfact> 0.56273185E+00</totfact>
</mgrwt>
</event>
<event>
12    7  0.1857704E-007  0.2552703E+04  0.7818608E-02  0.8384447E-01
          2   -1    0    0  501    0  0.00000000000E+00  0.00000000000E+00  0.32668264743E+04  0.32668264743E+04  0.00000000000E+00 0. -1.
         -1   -1    0    0    0  501 -0.00000000000E+00 -0.00000000000E+00 -0.49867140967E+03  0.49867140967E+03  0.00000000000E+00 0.  1.
         24    2    1    2    0    0  0.47512210690E+03  0.98350884801E+03  0.15467551748E+04  0.18952522945E+04  0.80616490264E+02 0.  0.
        254    2    1    2    0    0 -0.47512210690E+03 -0.98350884801E+03  0.12213998898E+04  0.18702455894E+04  0.90164860304E+03 0.  0.
         23    2    4    4    0    0 -0.30079948245E+03 -0.81545177667E+03  0.13290077711E+04  0.15905728466E+04  0.90655368101E+02 0.  0.
         23    2    4    4    0    0 -0.17432262445E+03 -0.16805707134E+03 -0.10760788134E+03  0.27967274286E+03  0.89475305807E+02 0.  0.
          2    1    3    3  502    0  0.39214809482E+03  0.73656197213E+03  0.11964218727E+04  0.14586737005E+04  0.00000000000E+00 0. -1.
         -1    1    3    3    0  502  0.82974012078E+02  0.24694687588E+03  0.35033330208E+03  0.43657859400E+03  0.00000000000E+00 0.  1.
         13    1    5    5    0    0 -0.48910234931E+02 -0.14007472966E+03  0.29369708285E+03  0.32904576801E+03  0.00000000000E+00 0.  1.
        -13    1    5    5    0    0 -0.25188924752E+03 -0.67537704701E+03  0.10353106883E+04  0.12615270786E+04  0.00000000000E+00 0. -1.
          2    1    6    6  503    0 -0.16684025533E+03 -0.11875907636E+03 -0.10398522959E+03  0.22967872559E+03  0.00000000000E+00 0. -1.
         -2    1    6    6    0  503 -0.74823691153E+01 -0.49297994978E+02 -0.36226517509E+01  0.49994017263E+02  0.00000000000E+00 0.  1.
<mgrwt>
<rscale>  0 0.25527029E+04</rscale>
<asrwt>0</asrwt>
<pdfrwt beam="1">  1        2 0.50258868E+00 0.25527029E+04</pdfrwt>
<pdfrwt beam="2">  1       -1 0.76718680E-01 0.25527029E+04</pdfrwt>
<totfact> 0.20182257E+00</totfact>
</mgrwt>
</event>
<event>
12    7  0.1857704E-007  0.1589180E+04  0.7818608E-02  0.8827223E-01
          2   -1    0    0  501    0  0.00000000000E+00  0.00000000000E+00  0.27385494058E+04  0.27385494058E+04  0.00000000000E+00 0. -1.
         -1   -1    0    0    0  501 -0.00000000000E+00 -0.00000000000E+00 -0.23055034906E+03  0.23055034906E+03  0.00000000000E+00 0.  1.
         24    2    1    2    0    0 -0.20854909372E+03 -0.24626423459E+03  0.16914543909E+04  0.17237865869E+04  0.79268171411E+02 0.  0.
        254    2    1    2    0    0  0.20854909372E+03  0.24626423459E+03  0.81654466580E+03  0.12453131679E+04  0.88313130234E+03 0.  0.
         23    2    4    4    0    0 -0.15885015506E+03 -0.23340497548E+03  0.43004820180E+03  0.52257558891E+03  0.91828840301E+02 0.  0.
         23    2    4    4    0    0  0.36739924878E+03  0.47966921006E+03  0.38649646400E+03  0.72273757899E+03  0.88911935755E+02 0.  0.
          4    1    3    3  502    0 -0.19269492468E+03 -0.24020426333E+03  0.14825680074E+04  0.15142117813E+04  0.00000000000E+00 0. -1.
         -3    1    3    3    0  502 -0.15854169037E+02 -0.60599712568E+01  0.20888638357E+03  0.20957480566E+03  0.00000000000E+00 0.  1.
         13    1    5    5    0    0 -0.77815185845E+02 -0.16145771532E+03  0.20175329413E+03  0.26986698330E+03  0.00000000000E+00 0. -1.
        -13    1    5    5    0    0 -0.81034969214E+02 -0.71947260159E+02  0.22829490766E+03  0.25270860560E+03  0.00000000000E+00 0.  1.
          3    1    6    6  503    0  0.13786237492E+03  0.12270391698E+03  0.92378912827E+02  0.20638834559E+03  0.00000000000E+00 0.  1.
         -3    1    6    6    0  503  0.22953687386E+03  0.35696529309E+03  0.29411755117E+03  0.51634923340E+03  0.00000000000E+00 0. -1.
<mgrwt>
<rscale>  0 0.15891803E+04</rscale>
<asrwt>0</asrwt>
<pdfrwt beam="1">  1        2 0.42131527E+00 0.15891803E+04</pdfrwt>
<pdfrwt beam="2">  1       -1 0.35469286E-01 0.15891803E+04</pdfrwt>
<totfact> 0.20930694E+01</totfact>
</mgrwt>
</event>
<event>
12    7  0.1857704E-007  0.1440602E+04  0.7818608E-02  0.8924942E-01
         -1   -1    0    0    0  501 -0.00000000000E+00  0.00000000000E+00  0.53836088912E+03  0.53836088912E+03  0.00000000000E+00 0.  1.
          2   -1    0    0  501    0  0.00000000000E+00 -0.00000000000E+00 -0.96372795738E+03  0.96372795738E+03  0.00000000000E+00 0. -1.
         24    2    1    2    0    0 -0.24790538686E+03 -0.14271421045E+02 -0.50673224913E+03  0.56896008724E+03  0.72644712662E+02 0.  0.
        254    2    1    2    0    0  0.24790538686E+03  0.14271421045E+02  0.81365180876E+02  0.93312875926E+03  0.89579475015E+03 0.  0.
         23    2    4    4    0    0 -0.10489773092E+03 -0.61959813116E+02 -0.33818177090E+03  0.37167573790E+03  0.94516620669E+02 0.  0.
         23    2    4    4    0    0  0.35280311778E+03  0.76231234161E+02  0.41954695178E+03  0.56145302135E+03  0.94491319508E+02 0.  0.
          4    1    3    3  502    0 -0.16756904208E+03  0.13186510572E+02 -0.27660973892E+03  0.32367609673E+03  0.00000000000E+00 0. -1.
         -3    1    3    3    0  502 -0.80336344776E+02 -0.27457931618E+02 -0.23012251020E+03  0.24528399052E+03  0.00000000000E+00 0.  1.
         13    1    5    5    0    0 -0.10629181107E+03 -0.74051377568E+02 -0.23988834653E+03  0.27263157268E+03  0.00000000000E+00 0. -1.
        -13    1    5    5    0    0  0.13940801486E+01  0.12091564453E+02 -0.98293424374E+02  0.99044165227E+02  0.00000000000E+00 0.  1.
          1    1    6    6  503    0  0.15879412891E+03 -0.14940463171E+01  0.13519721638E+03  0.20855717410E+03  0.00000000000E+00 0. -1.
         -1    1    6    6    0  503  0.19400898887E+03  0.77725280478E+02  0.28434973540E+03  0.35289584725E+03  0.00000000000E+00 0.  1.
<mgrwt>
<rscale>  0 0.14406019E+04</rscale>
<asrwt>0</asrwt>
<pdfrwt beam="1">  1        2 0.14826584E+00 0.14406019E+04</pdfrwt>
<pdfrwt beam="2">  1       -1 0.82824753E-01 0.14406019E+04</pdfrwt>
<totfact> 0.42650940E+01</totfact>
</mgrwt>
</event>
<event>
12    7  0.1857704E-007  0.1987042E+04  0.7818608E-02  0.8612703E-01
          2   -1    0    0  501    0  0.00000000000E+00  0.00000000000E+00  0.27555167319E+04  0.27555167319E+04  0.00000000000E+00 0. -1.
         -1   -1    0    0    0  501 -0.00000000000E+00 -0.00000000000E+00 -0.35822092271E+03  0.35822092271E+03  0.00000000000E+00 0.  1.
         24    2    1    2    0    0  0.36930117945E+03 -0.59999221241E+03  0.45879613886E+03  0.84775091927E+03  0.10869088274E+03 0.  0.
        254    2    1    2    0    0 -0.36930117945E+03  0.59999221241E+03  0.19384996704E+04  0.22659867354E+04  0.93837140666E+03 0.  0.
         23    2    4    4    0    0  0.87595591401E+02 -0.19815124640E+03  0.26089379398E+03  0.35068089914E+03  0.89300712221E+02 0.  0.
         23    2    4    4    0    0 -0.45689677085E+03  0.79814345881E+03  0.16776058764E+04  0.19153058363E+04  0.90814810477E+02 0.  0.
          4    1    3    3  502    0  0.23114714127E+02 -0.10326196311E+03  0.48779832079E+02  0.11651950503E+03  0.00000000000E+00 0. -1.
         -3    1    3    3    0  502  0.34618646532E+03 -0.49673024930E+03  0.41001630678E+03  0.73123141423E+03  0.00000000000E+00 0.  1.
         13    1    5    5    0    0  0.53172002488E+02 -0.18774558495E+03  0.19650050009E+03  0.27692618701E+03  0.00000000000E+00 0.  1.
        -13    1    5    5    0    0  0.34423588913E+02 -0.10405661451E+02  0.64393293881E+02  0.73754712125E+02  0.00000000000E+00 0. -1.
          4    1    6    6  503    0 -0.13957368259E+03  0.32915880107E+03  0.67549110544E+03  0.76427387940E+03  0.00000000000E+00 0. -1.
         -4    1    6    6    0  503 -0.31732308826E+03  0.46898465774E+03  0.10021147710E+04  0.11510319569E+04  0.00000000000E+00 0.  1.
<mgrwt>
<rscale>  0 0.19870418E+04</rscale>
<asrwt>0</asrwt>
<pdfrwt beam="1">  1        2 0.42392564E+00 0.19870418E+04</pdfrwt>
<pdfrwt beam="2">  1       -1 0.55110913E-01 0.19870418E+04</pdfrwt>
<totfact> 0.86785420E+00</totfact>
</mgrwt>
</event>
<event>
12    7  0.1857704E-007  0.1214375E+04  0.7818608E-02  0.9100367E-01
          2   -1    0    0  501    0  0.00000000000E+00  0.00000000000E+00  0.38848110802E+03  0.38848110802E+03  0.00000000000E+00 0. -1.
         -1   -1    0    0    0  501 -0.00000000000E+00 -0.00000000000E+00 -0.94902034419E+03  0.94902034419E+03  0.00000000000E+00 0.  1.
         24    2    1    2    0    0 -0.10818602563E+03 -0.30133107756E+02 -0.38731067477E+03  0.41449141689E+03  0.95819390326E+02 0.  0.
        254    2    1    2    0    0  0.10818602563E+03  0.30133107756E+02 -0.17322856140E+03  0.92301003532E+03  0.89962612817E+03 0.  0.
         23    2    4    4    0    0 -0.27294232819E+03 -0.28214702583E+03 -0.34050523073E+02  0.40315905652E+03  0.85283808737E+02 0.  0.
         23    2    4    4    0    0  0.38112835382E+03  0.31228013358E+03 -0.13917803833E+03  0.51985097880E+03  0.89982275422E+02 0.  0.
          4    1    3    3  502    0 -0.25723649763E+02 -0.31699798100E+02 -0.38682045312E+02  0.56239523347E+02  0.00000000000E+00 0. -1.
         -3    1    3    3    0  502 -0.82462375870E+02  0.15666903437E+01 -0.34862862945E+03  0.35825189354E+03  0.00000000000E+00 0.  1.
         13    1    5    5    0    0 -0.25584628524E+03 -0.24721123541E+03 -0.70979146486E+01  0.35583858275E+03  0.00000000000E+00 0.  1.
        -13    1    5    5    0    0 -0.17096042948E+02 -0.34935790419E+02 -0.26952608424E+02  0.47320473767E+02  0.00000000000E+00 0. -1.
          3    1    6    6  503    0  0.28422429916E+02  0.61751076321E+02 -0.13120707148E+02  0.69232816678E+02  0.00000000000E+00 0. -1.
         -3    1    6    6    0  503  0.35270592390E+03  0.25052905726E+03 -0.12605733118E+03  0.45061816212E+03  0.00000000000E+00 0.  1.
<mgrwt>
<rscale>  0 0.12143747E+04</rscale>
<asrwt>0</asrwt>
<pdfrwt beam="1">  1        2 0.59766325E-01 0.12143747E+04</pdfrwt>
<pdfrwt beam="2">  1       -1 0.14600313E+00 0.12143747E+04</pdfrwt>
<totfact> 0.34793389E+01</totfact>
</mgrwt>
</event>
<event>
12    7  0.1857704E-007  0.1787691E+04  0.7818608E-02  0.8712873E-01
         -1   -1    0    0    0  501 -0.00000000000E+00  0.00000000000E+00  0.32647490698E+03  0.32647490698E+03  0.00000000000E+00 0.  1.
          2   -1    0    0  501    0  0.00000000000E+00 -0.00000000000E+00 -0.24472322514E+04  0.24472322514E+04  0.00000000000E+00 0. -1.
         24    2    1    2    0    0  0.14568762646E+03  0.39831809679E+03 -0.15718098888E+04  0.16300798328E+04  0.81803080337E+02 0.  0.
        254    2    1    2    0    0 -0.14568762646E+03 -0.39831809679E+03 -0.54894745558E+03  0.11436273256E+04  0.90920732512E+03 0.  0.
         23    2    4    4    0    0 -0.48714075767E+03 -0.19574963324E+03 -0.50259388672E+03  0.73246938817E+03  0.91031604050E+02 0.  0.
         23    2    4    4    0    0  0.34145313121E+03 -0.20256846355E+03 -0.46353568856E+02  0.41115793739E+03  0.96322234679E+02 0.  0.
          2    1    3    3  502    0  0.17605476868E+02  0.14802175911E+03 -0.61554476787E+03  0.63333699974E+03  0.00000000000E+00 0. -1.
         -1    1    3    3    0  502  0.12808214959E+03  0.25029633768E+03 -0.95626512095E+03  0.99674283306E+03  0.00000000000E+00 0.  1.
         13    1    5    5    0    0 -0.23595048081E+03 -0.58573559981E+02 -0.27296559063E+03  0.36553208476E+03  0.00000000000E+00 0. -1.
        -13    1    5    5    0    0 -0.25119027687E+03 -0.13717607326E+03 -0.22962829609E+03  0.36693730341E+03  0.00000000000E+00 0.  1.
          4    1    6    6  503    0  0.21146433987E+03 -0.17210979734E+03 -0.10211558820E+02  0.27284285828E+03  0.00000000000E+00 0. -1.
         -4    1    6    6    0  503  0.12998879134E+03 -0.30458666213E+02 -0.36142010036E+02  0.13831507912E+03  0.00000000000E+00 0.  1.
<mgrwt>
<rscale>  0 0.17876912E+04</rscale>
<asrwt>0</asrwt>
<pdfrwt beam="1">  1        2 0.37649726E+00 0.17876912E+04</pdfrwt>
<pdfrwt beam="2">  1       -1 0.50226910E-01 0.17876912E+04</pdfrwt>
<totfact> 0.16006929E+01</totfact>
</mgrwt>
</event>
<event>
12    7  0.1857704E-007  0.2200457E+04  0.7818608E-02  0.8518238E-01
          2   -1    0    0  501    0  0.00000000000E+00  0.00000000000E+00  0.50778626655E+03  0.50778626655E+03  0.00000000000E+00 0. -1.
         -1   -1    0    0    0  501 -0.00000000000E+00 -0.00000000000E+00 -0.23838819019E+04  0.23838819019E+04  0.00000000000E+00 0.  1.
         24    2    1    2    0    0  0.32223898574E+03  0.94775884043E+02  0.33468781597E+03  0.48086694350E+03  0.79979066432E+02 0.  0.
        254    2    1    2    0    0 -0.32223898574E+03 -0.94775884043E+02 -0.22107834513E+04  0.24108012250E+04  0.90087659839E+03 0.  0.
         23    2    4    4    0    0 -0.34541489111E+03 -0.45048643894E+03 -0.11021262877E+04  0.12427571951E+04  0.86681101044E+02 0.  0.
         23    2    4    4    0    0  0.23175905370E+02  0.35571055489E+03 -0.11086571636E+04  0.11680440298E+04  0.90216560538E+02 0.  0.
          4    1    3    3  502    0  0.24713823451E+03  0.86316299616E+02  0.21238839798E+03  0.33710034431E+03  0.00000000000E+00 0. -1.
         -3    1    3    3    0  502  0.75100751237E+02  0.84595844274E+01  0.12229941798E+03  0.14376659919E+03  0.00000000000E+00 0.  1.
         13    1    5    5    0    0 -0.18996872706E+03 -0.18449571793E+03 -0.55215407720E+03  0.61237318047E+03  0.00000000000E+00 0.  1.
        -13    1    5    5    0    0 -0.15544616405E+03 -0.26599072101E+03 -0.54997221054E+03  0.63038401467E+03  0.00000000000E+00 0. -1.
          1    1    6    6  503    0 -0.21039067633E+02  0.23643998178E+03 -0.79152052460E+03  0.82634813984E+03  0.00000000000E+00 0. -1.
         -1    1    6    6    0  503  0.44214973003E+02  0.11927057312E+03 -0.31713663896E+03  0.34169588997E+03  0.00000000000E+00 0.  1.
<mgrwt>
<rscale>  0 0.22004568E+04</rscale>
<asrwt>0</asrwt>
<pdfrwt beam="1">  1        2 0.78120962E-01 0.22004568E+04</pdfrwt>
<pdfrwt beam="2">  1       -1 0.36675107E+00 0.22004568E+04</pdfrwt>
<totfact> 0.75913270E-01</totfact>
</mgrwt>
</event>
<event>
12    7  0.1857704E-007  0.1976374E+04  0.7818608E-02  0.8617747E-01
         -1   -1    0    0    0  501 -0.00000000000E+00  0.00000000000E+00  0.74924423452E+03  0.74924423452E+03  0.00000000000E+00 0.  1.
          2   -1    0    0  501    0  0.00000000000E+00 -0.00000000000E+00 -0.13033320477E+04  0.13033320477E+04  0.00000000000E+00 0. -1.
         24    2    1    2    0    0 -0.27197864571E+03 -0.17772215962E+02 -0.96805649668E+03  0.10087765767E+04  0.78794451617E+02 0.  0.
        254    2    1    2    0    0  0.27197864571E+03  0.17772215962E+02  0.41396868350E+03  0.10437997055E+04  0.91861826614E+03 0.  0.
         23    2    4    4    0    0  0.13347089921E+03 -0.13647959053E+03 -0.25900052601E+03  0.33399552294E+03  0.89613488384E+02 0.  0.
         23    2    4    4    0    0  0.13850774650E+03  0.15425180649E+03  0.67296920951E+03  0.70980418255E+03  0.89198682590E+02 0.  0.
          2    1    3    3  502    0 -0.21126151370E+03 -0.26248622034E+02 -0.62437555780E+03  0.65967056514E+03  0.00000000000E+00 0. -1.
         -1    1    3    3    0  502 -0.60717132015E+02  0.84764060728E+01 -0.34368093888E+03  0.34910601159E+03  0.00000000000E+00 0.  1.
         13    1    5    5    0    0 -0.11637254608E+02 -0.29522619530E+00 -0.18216141905E+02  0.21618063726E+02  0.00000000000E+00 0. -1.
        -13    1    5    5    0    0  0.14510815382E+03 -0.13618436433E+03 -0.24078438411E+03  0.31237745921E+03  0.00000000000E+00 0.  1.
          2    1    6    6  503    0  0.10821243266E+03  0.54271181631E+02  0.34796964515E+03  0.36842660827E+03  0.00000000000E+00 0. -1.
         -2    1    6    6    0  503  0.30295313846E+02  0.99980624860E+02  0.32499956437E+03  0.34137757429E+03  0.00000000000E+00 0.  1.
<mgrwt>
<rscale>  0 0.19763745E+04</rscale>
<asrwt>0</asrwt>
<pdfrwt beam="1">  1        2 0.20051262E+00 0.19763745E+04</pdfrwt>
<pdfrwt beam="2">  1       -1 0.11526834E+00 0.19763745E+04</pdfrwt>
<totfact> 0.11920064E+01</totfact>
</mgrwt>
</event>
<event>
12    7  0.1857704E-007  0.2140512E+04  0.7818608E-02  0.8543605E-01
         -1   -1    0    0    0  501 -0.00000000000E+00  0.00000000000E+00  0.83758951490E+03  0.83758951490E+03  0.00000000000E+00 0.  1.
          2   -1    0    0  501    0  0.00000000000E+00 -0.00000000000E+00 -0.13675524687E+04  0.13675524687E+04  0.00000000000E+00 0. -1.
         24    2    1    2    0    0  0.42937867070E+02 -0.16197270066E+03  0.67160327855E+03  0.69693553819E+03  0.81174900365E+02 0.  0.
        254    2    1    2    0    0 -0.42937867070E+02  0.16197270066E+03 -0.12015662324E+04  0.15082064454E+04  0.89601699484E+03 0.  0.
         23    2    4    4    0    0  0.25325940090E+03 -0.85049444259E+02 -0.45079819536E+02  0.28591179374E+03  0.91321583204E+02 0.  0.
         23    2    4    4    0    0 -0.29619726797E+03  0.24702214492E+03 -0.11564864129E+04  0.12222946517E+04  0.88264550166E+02 0.  0.
          2    1    3    3  502    0  0.18162306080E+02 -0.13511966417E+02  0.21446020807E+03  0.21565162519E+03  0.00000000000E+00 0. -1.
         -1    1    3    3    0  502  0.24775560990E+02 -0.14846073424E+03  0.45714307048E+03  0.48128391301E+03  0.00000000000E+00 0.  1.
         13    1    5    5    0    0  0.79445927255E+01 -0.24608466493E+02  0.92896047281E+01  0.27477080135E+02  0.00000000000E+00 0.  1.
        -13    1    5    5    0    0  0.24531480817E+03 -0.60440977766E+02 -0.54369424265E+02  0.25843471361E+03  0.00000000000E+00 0. -1.
          4    1    6    6  503    0 -0.16815921873E+03  0.10901408727E+03 -0.71005749553E+03  0.73779620562E+03  0.00000000000E+00 0. -1.
         -4    1    6    6    0  503 -0.12803804924E+03  0.13800805764E+03 -0.44642891732E+03  0.48449844608E+03  0.00000000000E+00 0.  1.
<mgrwt>
<rscale>  0 0.21405117E+04</rscale>
<asrwt>0</asrwt>
<pdfrwt beam="1">  1        2 0.21039269E+00 0.21405117E+04</pdfrwt>
<pdfrwt beam="2">  1       -1 0.12885993E+00 0.21405117E+04</pdfrwt>
<totfact> 0.81994934E+00</totfact>
</mgrwt>
</event>
<event>
12    7  0.1857704E-007  0.1620964E+04  0.7818608E-02  0.8807771E-01
         -1   -1    0    0    0  501 -0.00000000000E+00  0.00000000000E+00  0.77277756598E+03  0.77277756598E+03  0.00000000000E+00 0.  1.
          2   -1    0    0  501    0  0.00000000000E+00 -0.00000000000E+00 -0.85002619645E+03  0.85002619645E+03  0.00000000000E+00 0. -1.
         24    2    1    2    0    0 -0.13158946626E+03  0.32130661459E+03  0.41373283109E+03  0.54625791080E+03  0.81664688671E+02 0.  0.
        254    2    1    2    0    0  0.13158946626E+03 -0.32130661459E+03 -0.49098146156E+03  0.10765458516E+04  0.89293585819E+03 0.  0.
         23    2    4    4    0    0 -0.16926634071E+03 -0.52797216760E+03 -0.18512227441E+03  0.59175443436E+03  0.92181073166E+02 0.  0.
         23    2    4    4    0    0  0.30085580697E+03  0.20666555300E+03 -0.30585918715E+03  0.48479141726E+03  0.90818547107E+02 0.  0.
          4    1    3    3  502    0 -0.78304772263E+02  0.13135916846E+03  0.23301742825E+03  0.27871847869E+03  0.00000000000E+00 0. -1.
         -3    1    3    3    0  502 -0.53284694000E+02  0.18994744613E+03  0.18071540285E+03  0.26753943211E+03  0.00000000000E+00 0.  1.
         13    1    5    5    0    0 -0.10932309283E+03 -0.41242546063E+03 -0.17509410530E+03  0.46119870437E+03  0.00000000000E+00 0.  1.
        -13    1    5    5    0    0 -0.59943247885E+02 -0.11554670697E+03 -0.10028169103E+02  0.13055572999E+03  0.00000000000E+00 0. -1.
          1    1    6    6  503    0  0.17084111987E+03  0.67224140608E+02 -0.17431741835E+03  0.25316464141E+03  0.00000000000E+00 0. -1.
         -1    1    6    6    0  503  0.13001468710E+03  0.13944141240E+03 -0.13154176881E+03  0.23162677586E+03  0.00000000000E+00 0.  1.
<mgrwt>
<rscale>  0 0.16209641E+04</rscale>
<asrwt>0</asrwt>
<pdfrwt beam="1">  1        2 0.13077326E+00 0.16209641E+04</pdfrwt>
<pdfrwt beam="2">  1       -1 0.11888886E+00 0.16209641E+04</pdfrwt>
<totfact> 0.21972062E+01</totfact>
</mgrwt>
</event>
<event>
12    7  0.1857704E-007  0.3368980E+04  0.7818608E-02  0.8145562E-01
         -1   -1    0    0    0  501 -0.00000000000E+00  0.00000000000E+00  0.17473057259E+04  0.17473057259E+04  0.00000000000E+00 0.  1.
          2   -1    0    0  501    0  0.00000000000E+00 -0.00000000000E+00 -0.16239323453E+04  0.16239323453E+04  0.00000000000E+00 0. -1.
         24    2    1    2    0    0  0.43756948247E+03 -0.14249465781E+04  0.52025512063E+03  0.15808553919E+04  0.80613753149E+02 0.  0.
        254    2    1    2    0    0 -0.43756948247E+03  0.14249465781E+04 -0.39688173996E+03  0.17903826793E+04  0.90885379492E+03 0.  0.
         23    2    4    4    0    0  0.71387539487E+02  0.67891455897E+03  0.18382292100E+03  0.71276524782E+03  0.90676750212E+02 0.  0.
         23    2    4    4    0    0 -0.50895702196E+03  0.74603201909E+03 -0.58070466097E+03  0.10776174315E+04  0.91871658748E+02 0.  0.
          2    1    3    3  502    0  0.10003245851E+03 -0.45115804045E+03  0.16716988367E+03  0.49142226265E+03  0.00000000000E+00 0. -1.
         -1    1    3    3    0  502  0.33753702396E+03 -0.97378853762E+03  0.35308523695E+03  0.10894331292E+04  0.00000000000E+00 0.  1.
         13    1    5    5    0    0  0.50717524570E+01  0.39013304391E+03  0.76270222908E+02  0.39755082886E+03  0.00000000000E+00 0.  1.
        -13    1    5    5    0    0  0.66315787030E+02  0.28878151506E+03  0.10755269810E+03  0.31521441896E+03  0.00000000000E+00 0. -1.
          3    1    6    6  503    0 -0.29171795000E+03  0.47730554766E+03 -0.31727921094E+03  0.64310655872E+03  0.00000000000E+00 0. -1.
         -3    1    6    6    0  503 -0.21723907196E+03  0.26872647143E+03 -0.26342545003E+03  0.43451087277E+03  0.00000000000E+00 0.  1.
<mgrwt>
<rscale>  0 0.33689798E+04</rscale>
<asrwt>0</asrwt>
<pdfrwt beam="1">  1        2 0.24983575E+00 0.33689798E+04</pdfrwt>
<pdfrwt beam="2">  1       -1 0.26881627E+00 0.33689798E+04</pdfrwt>
<totfact> 0.53759562E-01</totfact>
</mgrwt>
</event>
<event>
12    7  0.1857704E-007  0.3659208E+04  0.7818608E-02  0.8077062E-01
          2   -1    0    0  501    0  0.00000000000E+00  0.00000000000E+00  0.18259143507E+04  0.18259143507E+04  0.00000000000E+00 0. -1.
         -1   -1    0    0    0  501 -0.00000000000E+00 -0.00000000000E+00 -0.18333011748E+04  0.18333011748E+04  0.00000000000E+00 0.  1.
         24    2    1    2    0    0 -0.38126738993E+03  0.12714389283E+03  0.16675245209E+04  0.17171001054E+04  0.79147658698E+02 0.  0.
        254    2    1    2    0    0  0.38126738993E+03 -0.12714389283E+03 -0.16749113450E+04  0.19421154201E+04  0.89719223086E+03 0.  0.
         23    2    4    4    0    0 -0.22062128240E+03 -0.14859858312E+02 -0.99138497549E+03  0.10199223994E+04  0.92211525666E+02 0.  0.
         23    2    4    4    0    0  0.60188867232E+03 -0.11228403452E+03 -0.68352636954E+03  0.92219302072E+03  0.91400171401E+02 0.  0.
          2    1    3    3  502    0 -0.26672308427E+03  0.10731571576E+03  0.13089743660E+04  0.13401760173E+04  0.00000000000E+00 0. -1.
         -1    1    3    3    0  502 -0.11454430566E+03  0.19828177067E+02  0.35855015496E+03  0.37692408809E+03  0.00000000000E+00 0.  1.
         13    1    5    5    0    0 -0.13452972657E+03 -0.19725303872E+02 -0.40459791741E+03  0.42683346836E+03  0.00000000000E+00 0.  1.
        -13    1    5    5    0    0 -0.86091555823E+02  0.48654455598E+01 -0.58678705808E+03  0.59308893100E+03  0.00000000000E+00 0. -1.
          3    1    6    6  503    0  0.23101379741E+03 -0.52769064296E+02 -0.20119876361E+03  0.31085831373E+03  0.00000000000E+00 0. -1.
         -3    1    6    6    0  503  0.37087487491E+03 -0.59514970222E+02 -0.48232760593E+03  0.61133470699E+03  0.00000000000E+00 0.  1.
<mgrwt>
<rscale>  0 0.36592081E+04</rscale>
<asrwt>0</asrwt>
<pdfrwt beam="1">  1        2 0.28090990E+00 0.36592081E+04</pdfrwt>
<pdfrwt beam="2">  1       -1 0.28204633E+00 0.36592081E+04</pdfrwt>
<totfact> 0.33259228E-01</totfact>
</mgrwt>
</event>
<event>
12    7  0.1857704E-007  0.2015803E+04  0.7818608E-02  0.8599268E-01
         -1   -1    0    0    0  501 -0.00000000000E+00  0.00000000000E+00  0.70901492213E+03  0.70901492213E+03  0.00000000000E+00 0.  1.
          2   -1    0    0  501    0  0.00000000000E+00 -0.00000000000E+00 -0.14327846509E+04  0.14327846509E+04  0.00000000000E+00 0. -1.
         24    2    1    2    0    0  0.20698990672E+03 -0.43113306925E+03  0.39914767318E+03  0.62812972055E+03  0.80669299908E+02 0.  0.
        254    2    1    2    0    0 -0.20698990672E+03  0.43113306925E+03 -0.11229174020E+04  0.15136698525E+04  0.89528341091E+03 0.  0.
         23    2    4    4    0    0  0.13056693991E+03  0.56456017954E+03 -0.91063591482E+03  0.10833074402E+04  0.92310987861E+02 0.  0.
         23    2    4    4    0    0 -0.33755684663E+03 -0.13342711029E+03 -0.21228148715E+03  0.43036241232E+03  0.91656738345E+02 0.  0.
          2    1    3    3  502    0  0.90268233311E+02 -0.10471290324E+03  0.10832115425E+03  0.17563205433E+03  0.00000000000E+00 0. -1.
         -1    1    3    3    0  502  0.11672167341E+03 -0.32642016601E+03  0.29082651893E+03  0.45249766622E+03  0.00000000000E+00 0.  1.
         13    1    5    5    0    0  0.10537489235E+02  0.22689485312E+03 -0.38835503780E+03  0.44990215429E+03  0.00000000000E+00 0.  1.
        -13    1    5    5    0    0  0.12002945068E+03  0.33766532642E+03 -0.52228087701E+03  0.63340528589E+03  0.00000000000E+00 0. -1.
          3    1    6    6  503    0 -0.30419190099E+03 -0.90256112284E+02 -0.19783107618E+03  0.37391979506E+03  0.00000000000E+00 0. -1.
         -3    1    6    6    0  503 -0.33364945638E+02 -0.43170998003E+02 -0.14450410969E+02  0.56442617260E+02  0.00000000000E+00 0.  1.
<mgrwt>
<rscale>  0 0.20158033E+04</rscale>
<asrwt>0</asrwt>
<pdfrwt beam="1">  1        2 0.22042841E+00 0.20158033E+04</pdfrwt>
<pdfrwt beam="2">  1       -1 0.10907922E+00 0.20158033E+04</pdfrwt>
<totfact> 0.11408747E+01</totfact>
</mgrwt>
</event>
<event>
12    7  0.1857704E-007  0.2334784E+04  0.7818608E-02  0.8464331E-01
         -1   -1    0    0    0  501 -0.00000000000E+00  0.00000000000E+00  0.26772836706E+04  0.26772836706E+04  0.00000000000E+00 0.  1.
          2   -1    0    0  501    0  0.00000000000E+00 -0.00000000000E+00 -0.50902494603E+03  0.50902494603E+03  0.00000000000E+00 0. -1.
         24    2    1    2    0    0 -0.36633736150E+03 -0.20357008745E+03 -0.30223980560E+03  0.52270479689E+03  0.78914901432E+02 0.  0.
        254    2    1    2    0    0  0.36633736150E+03  0.20357008745E+03  0.24704985302E+04  0.26636038197E+04  0.90320456047E+03 0.  0.
         23    2    4    4    0    0 -0.15551953069E+03 -0.12865209131E+03  0.16961637031E+03  0.27930900576E+03  0.92228643047E+02 0.  0.
         23    2    4    4    0    0  0.52185689220E+03  0.33222217876E+03  0.23008821598E+04  0.23842948140E+04  0.89982522892E+02 0.  0.
          4    1    3    3  502    0 -0.35539896687E+03 -0.20218397429E+03 -0.27350331508E+03  0.49192565340E+03  0.00000000000E+00 0. -1.
         -3    1    3    3    0  502 -0.10938394636E+02 -0.13861131570E+01 -0.28736490519E+02  0.30779143494E+02  0.00000000000E+00 0.  1.
         13    1    5    5    0    0 -0.13577110750E+03 -0.58257169619E+02  0.10038510841E+03  0.17861931988E+03  0.00000000000E+00 0.  1.
        -13    1    5    5    0    0 -0.19748423187E+02 -0.70394921691E+02  0.69231261904E+02  0.10068968588E+03  0.00000000000E+00 0. -1.
          3    1    6    6  503    0  0.19809043004E+03  0.17058040819E+03  0.87556064182E+03  0.91375266436E+03  0.00000000000E+00 0. -1.
         -3    1    6    6    0  503  0.32376646215E+03  0.16164177057E+03  0.14253215180E+04  0.14705421496E+04  0.00000000000E+00 0.  1.
<mgrwt>
<rscale>  0 0.23347841E+04</rscale>
<asrwt>0</asrwt>
<pdfrwt beam="1">  1        2 0.78311531E-01 0.23347841E+04</pdfrwt>
<pdfrwt beam="2">  1       -1 0.41188979E+00 0.23347841E+04</pdfrwt>
<totfact> 0.36919004E-01</totfact>
</mgrwt>
</event>
<event>
12    7  0.1857704E-007  0.1673175E+04  0.7818608E-02  0.8776814E-01
         -1   -1    0    0    0  501 -0.00000000000E+00  0.00000000000E+00  0.50606457901E+03  0.50606457901E+03  0.00000000000E+00 0.  1.
          2   -1    0    0  501    0  0.00000000000E+00 -0.00000000000E+00 -0.13829820712E+04  0.13829820712E+04  0.00000000000E+00 0. -1.
         24    2    1    2    0    0  0.18861480619E+03 -0.10261955973E+03  0.30807428696E+03  0.38488133231E+03  0.84365600346E+02 0.  0.
        254    2    1    2    0    0 -0.18861480619E+03  0.10261955973E+03 -0.11849917791E+04  0.15041653179E+04  0.90122220775E+03 0.  0.
         23    2    4    4    0    0 -0.14332226997E+03 -0.30643825669E+02 -0.12931417279E+04  0.13047263008E+04  0.92816348712E+02 0.  0.
         23    2    4    4    0    0 -0.45292536214E+02  0.13326338540E+03  0.10814994874E+03  0.19943901704E+03  0.90933857180E+02 0.  0.
          4    1    3    3  502    0  0.37753404293E+01  0.11432465168E+01 -0.52641553817E+01  0.65781106587E+01  0.00000000000E+00 0. -1.
         -3    1    3    3    0  502  0.18483946576E+03 -0.10376280625E+03  0.31333844234E+03  0.37830322165E+03  0.00000000000E+00 0.  1.
         13    1    5    5    0    0 -0.90365634794E+02 -0.62635769855E+02 -0.73758319477E+03  0.74573330141E+03  0.00000000000E+00 0. -1.
        -13    1    5    5    0    0 -0.52956635179E+02  0.31991944186E+02 -0.55555853311E+03  0.55899299943E+03  0.00000000000E+00 0.  1.
          2    1    6    6  503    0 -0.27096660729E+02  0.11956533549E+03  0.42183730645E+02  0.12965170884E+03  0.00000000000E+00 0. -1.
         -2    1    6    6    0  503 -0.18195875485E+02  0.13698049904E+02  0.65966218099E+02  0.69787308202E+02  0.00000000000E+00 0.  1.
<mgrwt>
<rscale>  0 0.16731745E+04</rscale>
<asrwt>0</asrwt>
<pdfrwt beam="1">  1        2 0.21276647E+00 0.16731745E+04</pdfrwt>
<pdfrwt beam="2">  1       -1 0.77856091E-01 0.16731745E+04</pdfrwt>
<totfact> 0.26582079E+01</totfact>
</mgrwt>
</event>
<event>
12    7  0.1857704E-007  0.1715840E+04  0.7818608E-02  0.8752381E-01
          2   -1    0    0  501    0  0.00000000000E+00  0.00000000000E+00  0.24633903398E+04  0.24633903398E+04  0.00000000000E+00 0. -1.
         -1   -1    0    0    0  501 -0.00000000000E+00 -0.00000000000E+00 -0.29878604517E+03  0.29878604517E+03  0.00000000000E+00 0.  1.
         24    2    1    2    0    0  0.16100512393E+03 -0.38352870049E+03  0.51274551019E+02  0.42688749881E+03  0.81159984117E+02 0.  0.
        254    2    1    2    0    0 -0.16100512393E+03  0.38352870049E+03  0.21133297436E+04  0.23352888862E+04  0.90243817660E+03 0.  0.
         23    2    4    4    0    0 -0.35535399264E+03  0.59032195647E+03  0.14436500977E+04  0.16022631171E+04  0.91460480390E+02 0.  0.
         23    2    4    4    0    0  0.19434886871E+03 -0.20679325598E+03  0.66967964596E+03  0.73302576910E+03  0.91219605713E+02 0.  0.
          4    1    3    3  502    0  0.91400374126E+02 -0.16141392772E+03 -0.11357946549E+02  0.18584264151E+03  0.00000000000E+00 0. -1.
         -3    1    3    3    0  502  0.69604749805E+02 -0.22211477277E+03  0.62632497569E+02  0.24104485730E+03  0.00000000000E+00 0.  1.
         13    1    5    5    0    0 -0.34173038919E+03  0.55413084088E+03  0.13058284674E+04  0.14591191295E+04  0.00000000000E+00 0.  1.
        -13    1    5    5    0    0 -0.13623603451E+02  0.36191115594E+02  0.13782163028E+03  0.14314398762E+03  0.00000000000E+00 0. -1.
          4    1    6    6  503    0  0.11587320190E+01 -0.47328385591E+02  0.11762499973E+03  0.12679494983E+03  0.00000000000E+00 0. -1.
         -4    1    6    6    0  503  0.19319013669E+03 -0.15946487039E+03  0.55205464623E+03  0.60623081927E+03  0.00000000000E+00 0.  1.
<mgrwt>
<rscale>  0 0.17158399E+04</rscale>
<asrwt>0</asrwt>
<pdfrwt beam="1">  1        2 0.37898312E+00 0.17158399E+04</pdfrwt>
<pdfrwt beam="2">  1       -1 0.45967085E-01 0.17158399E+04</pdfrwt>
<totfact> 0.18641658E+01</totfact>
</mgrwt>
</event>
<event>
12    7  0.1857704E-007  0.1474292E+04  0.7818608E-02  0.8901731E-01
          4   -1    0    0  501    0  0.00000000000E+00  0.00000000000E+00  0.54117365739E+03  0.54117365739E+03  0.00000000000E+00 0. -1.
         -1   -1    0    0    0  501 -0.00000000000E+00 -0.00000000000E+00 -0.10040847118E+04  0.10040847118E+04  0.00000000000E+00 0.  1.
         24    2    1    2    0    0 -0.32470479466E+02  0.96939080587E+01  0.33272530296E+03  0.34401521731E+03  0.80573187974E+02 0.  0.
        254    2    1    2    0    0  0.32470479466E+02 -0.96939080587E+01 -0.79563635733E+03  0.12012431518E+04  0.89933285986E+03 0.  0.
         23    2    4    4    0    0  0.17094655030E+03  0.34802581781E+02  0.14630951650E+03  0.24374265206E+03  0.87006109332E+02 0.  0.
         23    2    4    4    0    0 -0.13847607083E+03 -0.44496489840E+02 -0.94194587383E+03  0.95750049977E+03  0.91594858092E+02 0.  0.
          4    1    3    3  502    0 -0.47993668484E+02  0.69600079424E+01  0.32028389858E+03  0.32393457613E+03  0.00000000000E+00 0. -1.
         -3    1    3    3    0  502  0.15523189018E+02  0.27339001163E+01  0.12441404383E+02  0.20080641178E+02  0.00000000000E+00 0.  1.
         13    1    5    5    0    0 -0.58079975783E+01 -0.92180378300E+01  0.17617785592E+02  0.20714522116E+02  0.00000000000E+00 0.  1.
        -13    1    5    5    0    0  0.17675454787E+03  0.44020619611E+02  0.12869173090E+03  0.22302812995E+03  0.00000000000E+00 0. -1.
          2    1    6    6  503    0 -0.14895602489E+03 -0.50347410634E+02 -0.81798608447E+03  0.83296097957E+03  0.00000000000E+00 0. -1.
         -2    1    6    6    0  503  0.10479954064E+02  0.58509207941E+01 -0.12395978936E+03  0.12453952020E+03  0.00000000000E+00 0.  1.
<mgrwt>
<rscale>  0 0.14742920E+04</rscale>
<asrwt>0</asrwt>
<pdfrwt beam="1">  1        4 0.83257486E-01 0.14742920E+04</pdfrwt>
<pdfrwt beam="2">  1       -1 0.15447457E+00 0.14742920E+04</pdfrwt>
<totfact> 0.16464405E+00</totfact>
</mgrwt>
</event>
<event>
12    7  0.1857704E-007  0.1537820E+04  0.7818608E-02  0.8859686E-01
         -1   -1    0    0    0  501 -0.00000000000E+00  0.00000000000E+00  0.53432504259E+03  0.53432504259E+03  0.00000000000E+00 0.  1.
          2   -1    0    0  501    0  0.00000000000E+00 -0.00000000000E+00 -0.11064845558E+04  0.11064845558E+04  0.00000000000E+00 0. -1.
         24    2    1    2    0    0  0.26654096174E+03  0.25572654146E+03  0.16550575646E+03  0.41513783726E+03  0.92234051243E+02 0.  0.
        254    2    1    2    0    0 -0.26654096174E+03 -0.25572654146E+03 -0.73766526968E+03  0.12256717611E+04  0.90646625292E+03 0.  0.
         23    2    4    4    0    0 -0.44367022936E+03 -0.49266016356E+03 -0.48977534698E+03  0.82932145982E+03  0.91306538898E+02 0.  0.
         23    2    4    4    0    0  0.17712926761E+03  0.23693362210E+03 -0.24788992270E+03  0.39635030132E+03  0.90176653586E+02 0.  0.
          4    1    3    3  502    0  0.22951719017E+01 -0.74224740390E+01  0.40602533745E+01  0.87662188191E+01  0.00000000000E+00 0. -1.
         -3    1    3    3    0  502  0.26424578984E+03  0.26314901550E+03  0.16144550308E+03  0.40637161844E+03  0.00000000000E+00 0.  1.
         13    1    5    5    0    0 -0.16803836214E+03 -0.12647431994E+03 -0.17058956856E+03  0.27080148755E+03  0.00000000000E+00 0.  1.
        -13    1    5    5    0    0 -0.27563186721E+03 -0.36618584362E+03 -0.31918577842E+03  0.55851997228E+03  0.00000000000E+00 0. -1.
          1    1    6    6  503    0  0.81650774930E+02  0.17103476041E+03 -0.18284567255E+03  0.26334820730E+03  0.00000000000E+00 0. -1.
         -1    1    6    6    0  503  0.95478492680E+02  0.65898861688E+02 -0.65044250151E+02  0.13300209402E+03  0.00000000000E+00 0.  1.
<mgrwt>
<rscale>  0 0.15378198E+04</rscale>
<asrwt>0</asrwt>
<pdfrwt beam="1">  1        2 0.17022839E+00 0.15378198E+04</pdfrwt>
<pdfrwt beam="2">  1       -1 0.82203853E-01 0.15378198E+04</pdfrwt>
<totfact> 0.34915872E+01</totfact>
</mgrwt>
</event>
<event>
12    7  0.1857704E-007  0.2020210E+04  0.7818608E-02  0.8597230E-01
          2   -1    0    0  501    0  0.00000000000E+00  0.00000000000E+00  0.23327201396E+04  0.23327201396E+04  0.00000000000E+00 0. -1.
         -1   -1    0    0    0  501 -0.00000000000E+00 -0.00000000000E+00 -0.43739149780E+03  0.43739149780E+03  0.00000000000E+00 0.  1.
         24    2    1    2    0    0 -0.13382856277E+03 -0.63250380198E+03  0.99133629324E+02  0.65899159739E+03  0.80444423334E+02 0.  0.
        254    2    1    2    0    0  0.13382856277E+03  0.63250380198E+03  0.17961950125E+04  0.21111200400E+04  0.90141009356E+03 0.  0.
         23    2    4    4    0    0 -0.14472456689E+03  0.23246111675E+03  0.45055821529E+02  0.29125423751E+03  0.88406067383E+02 0.  0.
         23    2    4    4    0    0  0.27855312966E+03  0.40004268522E+03  0.17511391909E+04  0.18198658025E+04  0.88301058941E+02 0.  0.
          2    1    3    3  502    0 -0.27743886546E+01 -0.10792057914E+03 -0.61489224332E+01  0.10813120679E+03  0.00000000000E+00 0. -1.
         -1    1    3    3    0  502 -0.13105417411E+03 -0.52458322283E+03  0.10528255176E+03  0.55086039060E+03  0.00000000000E+00 0.  1.
         13    1    5    5    0    0 -0.35285763183E+02  0.41123596058E+02 -0.25398295950E+02  0.59844036239E+02  0.00000000000E+00 0.  1.
        -13    1    5    5    0    0 -0.10943880371E+03  0.19133752070E+03  0.70454117479E+02  0.23141020127E+03  0.00000000000E+00 0. -1.
          3    1    6    6  503    0  0.11732863012E+03  0.97378363507E+02  0.53918915039E+03  0.56033337669E+03  0.00000000000E+00 0. -1.
         -3    1    6    6    0  503  0.16122449953E+03  0.30266432171E+03  0.12119500405E+04  0.12595324258E+04  0.00000000000E+00 0.  1.
<mgrwt>
<rscale>  0 0.20202098E+04</rscale>
<asrwt>0</asrwt>
<pdfrwt beam="1">  1        2 0.35888002E+00 0.20202098E+04</pdfrwt>
<pdfrwt beam="2">  1       -1 0.67291001E-01 0.20202098E+04</pdfrwt>
<totfact> 0.10260442E+01</totfact>
</mgrwt>
</event>
<event>
12    7  0.1857704E-007  0.1512815E+04  0.7818608E-02  0.8875975E-01
         -1   -1    0    0    0  501 -0.00000000000E+00  0.00000000000E+00  0.24769655693E+04  0.24769655693E+04  0.00000000000E+00 0.  1.
          2   -1    0    0  501    0  0.00000000000E+00 -0.00000000000E+00 -0.23098926148E+03  0.23098926148E+03  0.00000000000E+00 0. -1.
         24    2    1    2    0    0 -0.68496870910E+01 -0.24704114636E+03 -0.16700363898E+02  0.26010321572E+03  0.79363306793E+02 0.  0.
        254    2    1    2    0    0  0.68496870910E+01  0.24704114636E+03  0.22626766717E+04  0.24478516150E+04  0.90066395644E+03 0.  0.
         23    2    4    4    0    0 -0.12017422393E+03 -0.41010294851E+02 -0.86966258940E+01  0.15296854198E+03  0.84853138726E+02 0.  0.
         23    2    4    4    0    0  0.12702391102E+03  0.28805144121E+03  0.22713732976E+04  0.22948830731E+04  0.90790722450E+02 0.  0.
          2    1    3    3  502    0 -0.11701037017E+02 -0.25035108287E+03 -0.94903599827E+01  0.25080399896E+03  0.00000000000E+00 0. -1.
         -1    1    3    3    0  502  0.48513499260E+01  0.33099365136E+01 -0.72100039150E+01  0.92992167564E+01  0.00000000000E+00 0.  1.
         13    1    5    5    0    0 -0.64591270789E+02  0.12266358481E+02  0.23075826053E+02  0.69677755134E+02  0.00000000000E+00 0. -1.
        -13    1    5    5    0    0 -0.55582953141E+02 -0.53276653333E+02 -0.31772451947E+02  0.83290786843E+02  0.00000000000E+00 0.  1.
          1    1    6    6  503    0 -0.22385475988E+01  0.79050289258E+02  0.43365171970E+03  0.44080355412E+03  0.00000000000E+00 0. -1.
         -1    1    6    6    0  503  0.12926245862E+03  0.20900115195E+03  0.18377215779E+04  0.18540795190E+04  0.00000000000E+00 0.  1.
<mgrwt>
<rscale>  0 0.15128152E+04</rscale>
<asrwt>0</asrwt>
<pdfrwt beam="1">  1        2 0.35536811E-01 0.15128152E+04</pdfrwt>
<pdfrwt beam="2">  1       -1 0.38107161E+00 0.15128152E+04</pdfrwt>
<totfact> 0.15750400E+00</totfact>
</mgrwt>
</event>
<event>
12    7  0.1857704E-007  0.1787989E+04  0.7818608E-02  0.8712713E-01
         -1   -1    0    0    0  501 -0.00000000000E+00  0.00000000000E+00  0.22262022379E+03  0.22262022379E+03  0.00000000000E+00 0.  1.
          2   -1    0    0  501    0  0.00000000000E+00 -0.00000000000E+00 -0.35900862809E+04  0.35900862809E+04  0.00000000000E+00 0. -1.
         24    2    1    2    0    0  0.31177196004E+03  0.29464743928E+03 -0.18125770294E+03  0.47513506342E+03  0.94234309418E+02 0.  0.
        254    2    1    2    0    0 -0.31177196004E+03 -0.29464743928E+03 -0.31862083541E+04  0.33375714413E+04  0.89634847071E+03 0.  0.
         23    2    4    4    0    0  0.12541846356E+03  0.91924494816E+02 -0.12733305738E+03  0.22206082615E+03  0.94431982188E+02 0.  0.
         23    2    4    4    0    0 -0.43719042360E+03 -0.38657193410E+03 -0.30588752968E+04  0.31155106151E+04  0.95472430596E+02 0.  0.
          4    1    3    3  502    0  0.46688157998E+01  0.55049945552E+01 -0.23854001633E+02  0.24922202951E+02  0.00000000000E+00 0. -1.
         -1    1    3    3    0  502  0.30710314424E+03  0.28914244472E+03 -0.15740370131E+03  0.45021286047E+03  0.00000000000E+00 0.  1.
         13    1    5    5    0    0  0.14092151077E+03  0.81845169757E+02 -0.10924604189E+03  0.19619429573E+03  0.00000000000E+00 0.  1.
        -13    1    5    5    0    0 -0.15503047210E+02  0.10079325059E+02 -0.18087015491E+02  0.25866530417E+02  0.00000000000E+00 0. -1.
          3    1    6    6  503    0 -0.70709965790E+02 -0.98970278512E+02 -0.78930539301E+03  0.79862257590E+03  0.00000000000E+00 0. -1.
         -3    1    6    6    0  503 -0.36648045781E+03 -0.28760165558E+03 -0.22695699037E+04  0.23168880392E+04  0.00000000000E+00 0.  1.
<mgrwt>
<rscale>  0 0.17879886E+04</rscale>
<asrwt>0</asrwt>
<pdfrwt beam="1">  1        2 0.55232093E+00 0.17879886E+04</pdfrwt>
<pdfrwt beam="2">  1       -1 0.34249267E-01 0.17879886E+04</pdfrwt>
<totfact> 0.61487744E+00</totfact>
</mgrwt>
</event>
<event>
12    7  0.1857704E-007  0.4487912E+04  0.7818608E-02  0.7912756E-01
          2   -1    0    0  501    0  0.00000000000E+00  0.00000000000E+00  0.28583401425E+04  0.28583401425E+04  0.00000000000E+00 0. -1.
         -1   -1    0    0    0  501 -0.00000000000E+00 -0.00000000000E+00 -0.17616304923E+04  0.17616304923E+04  0.00000000000E+00 0.  1.
         24    2    1    2    0    0  0.39851214109E+03 -0.15792241899E+04 -0.92341619509E+03  0.18740047109E+04  0.80219814593E+02 0.  0.
        254    2    1    2    0    0 -0.39851214109E+03  0.15792241899E+04  0.20201258453E+04  0.27459659239E+04  0.89814222470E+03 0.  0.
         23    2    4    4    0    0 -0.66900061480E+03  0.96075515393E+03  0.11849642382E+04  0.16683103668E+04  0.92233105903E+02 0.  0.
         23    2    4    4    0    0  0.27048847371E+03  0.61846903596E+03  0.83516160717E+03  0.10776555571E+04  0.90435760907E+02 0.  0.
          2    1    3    3  502    0 -0.17988818076E+01 -0.35509688939E+02 -0.14455852110E+02  0.38381579495E+02  0.00000000000E+00 0. -1.
         -1    1    3    3    0  502  0.40031102289E+03 -0.15437145009E+04 -0.90896034298E+03  0.18356231314E+04  0.00000000000E+00 0.  1.
         13    1    5    5    0    0 -0.66937974648E+03  0.94313570149E+03  0.11632278924E+04  0.16403272009E+04  0.00000000000E+00 0. -1.
        -13    1    5    5    0    0  0.37913168168E+00  0.17619452439E+02  0.21736345782E+02  0.27983165887E+02  0.00000000000E+00 0.  1.
          4    1    6    6  503    0  0.19474707420E+03  0.37810827636E+03  0.57776416946E+03  0.71742855190E+03  0.00000000000E+00 0. -1.
         -4    1    6    6    0  503  0.75741399510E+02  0.24036075959E+03  0.25739743771E+03  0.36022700522E+03  0.00000000000E+00 0.  1.
<mgrwt>
<rscale>  0 0.44879123E+04</rscale>
<asrwt>0</asrwt>
<pdfrwt beam="1">  1        2 0.43974464E+00 0.44879123E+04</pdfrwt>
<pdfrwt beam="2">  1       -1 0.27102008E+00 0.44879123E+04</pdfrwt>
<totfact> 0.93427599E-02</totfact>
</mgrwt>
</event>
<event>
12    7  0.1857704E-007  0.2290025E+04  0.7818608E-02  0.8481865E-01
          2   -1    0    0  501    0  0.00000000000E+00  0.00000000000E+00  0.92026364710E+03  0.92026364710E+03  0.00000000000E+00 0. -1.
         -1   -1    0    0    0  501 -0.00000000000E+00 -0.00000000000E+00 -0.14246495700E+04  0.14246495700E+04  0.00000000000E+00 0.  1.
         24    2    1    2    0    0  0.59321388409E+03  0.63433226227E+03 -0.64442843815E+03  0.10843504808E+04  0.79043165956E+02 0.  0.
        254    2    1    2    0    0 -0.59321388409E+03 -0.63433226227E+03  0.14004251529E+03  0.12605627363E+04  0.90284349404E+03 0.  0.
         23    2    4    4    0    0  0.17645157110E+03 -0.23352618322E+03  0.23277157198E+03  0.38403713767E+03  0.87362939467E+02 0.  0.
         23    2    4    4    0    0 -0.76966545519E+03 -0.40080607905E+03 -0.92729056691E+02  0.87652559859E+03  0.81657951981E+02 0.  0.
          2    1    3    3  502    0  0.29807234045E+03  0.29184757744E+03 -0.35281171784E+03  0.54634992161E+03  0.00000000000E+00 0. -1.
         -1    1    3    3    0  502  0.29514154364E+03  0.34248468483E+03 -0.29161672031E+03  0.53800055919E+03  0.00000000000E+00 0.  1.
         13    1    5    5    0    0 -0.74352466777E+01 -0.88457012949E+01 -0.54640759914E+00  0.11568400314E+02  0.00000000000E+00 0.  1.
        -13    1    5    5    0    0  0.18388681778E+03 -0.22468048193E+03  0.23331797958E+03  0.37246873735E+03  0.00000000000E+00 0. -1.
          2    1    6    6  503    0 -0.38349866258E+03 -0.15486396523E+03 -0.34978922750E+02  0.41506336500E+03  0.00000000000E+00 0.  1.
         -2    1    6    6    0  503 -0.38616679261E+03 -0.24594211382E+03 -0.57750133941E+02  0.46146223360E+03  0.00000000000E+00 0. -1.
<mgrwt>
<rscale>  0 0.22900246E+04</rscale>
<asrwt>0</asrwt>
<pdfrwt beam="1">  1        2 0.14157902E+00 0.22900246E+04</pdfrwt>
<pdfrwt beam="2">  1       -1 0.21917686E+00 0.22900246E+04</pdfrwt>
<totfact> 0.32772071E+00</totfact>
</mgrwt>
</event>
<event>
12    7  0.1857704E-007  0.1927057E+04  0.7818608E-02  0.8641504E-01
          2   -1    0    0  501    0  0.00000000000E+00  0.00000000000E+00  0.29072772278E+04  0.29072772278E+04  0.00000000000E+00 0. -1.
         -1   -1    0    0    0  501 -0.00000000000E+00 -0.00000000000E+00 -0.31933225955E+03  0.31933225955E+03  0.00000000000E+00 0.  1.
         24    2    1    2    0    0 -0.35946433092E+03  0.24182880845E+03  0.20157032763E+04  0.20632585539E+04  0.79248875906E+02 0.  0.
        254    2    1    2    0    0  0.35946433092E+03 -0.24182880845E+03  0.57224169193E+03  0.11633509334E+04  0.91554850366E+03 0.  0.
         23    2    4    4    0    0  0.63090039982E+03 -0.25248941268E+03  0.54095122798E+03  0.87425212887E+03  0.99510480722E+02 0.  0.
         23    2    4    4    0    0 -0.27143606890E+03  0.10660604221E+02  0.31290463953E+02  0.28909880457E+03  0.93850080913E+02 0.  0.
          2    1    3    3  502    0 -0.27582127732E+03  0.22295428511E+03  0.16305603016E+04  0.16686859763E+04  0.00000000000E+00 0. -1.
         -1    1    3    3    0  502 -0.83643053600E+02  0.18874523344E+02  0.38514297473E+03  0.39457257765E+03  0.00000000000E+00 0.  1.
         13    1    5    5    0    0  0.23878764505E+03 -0.12566368556E+03  0.26556000676E+03  0.37859347391E+03  0.00000000000E+00 0. -1.
        -13    1    5    5    0    0  0.39211275477E+03 -0.12682572712E+03  0.27539122122E+03  0.49565865496E+03  0.00000000000E+00 0.  1.
          4    1    6    6  503    0 -0.10584766554E+03  0.14778981260E+02 -0.32336119073E+02  0.11165917421E+03  0.00000000000E+00 0. -1.
         -4    1    6    6    0  503 -0.16558840336E+03 -0.41183770384E+01  0.63626583026E+02  0.17743963037E+03  0.00000000000E+00 0.  1.
<mgrwt>
<rscale>  0 0.19270572E+04</rscale>
<asrwt>0</asrwt>
<pdfrwt beam="1">  1        2 0.44727340E+00 0.19270572E+04</pdfrwt>
<pdfrwt beam="2">  1       -1 0.49128042E-01 0.19270572E+04</pdfrwt>
<totfact> 0.88007090E+00</totfact>
</mgrwt>
</event>
<event>
12    7  0.1857704E-007  0.1890854E+04  0.7818608E-02  0.8659422E-01
         -1   -1    0    0    0  501 -0.00000000000E+00  0.00000000000E+00  0.70208112640E+03  0.70208112640E+03  0.00000000000E+00 0.  1.
          2   -1    0    0  501    0  0.00000000000E+00 -0.00000000000E+00 -0.12731181806E+04  0.12731181806E+04  0.00000000000E+00 0. -1.
         24    2    1    2    0    0 -0.11060826085E+03  0.68225064826E+03  0.14227929432E+02  0.69572395404E+03  0.78289538415E+02 0.  0.
        254    2    1    2    0    0  0.11060826085E+03 -0.68225064826E+03 -0.58526498360E+03  0.12794753529E+04  0.90378202201E+03 0.  0.
         23    2    4    4    0    0  0.44982758739E+03 -0.58293026752E+03 -0.24756274920E+03  0.78218009172E+03  0.91464889074E+02 0.  0.
         23    2    4    4    0    0 -0.33921932653E+03 -0.99320380742E+02 -0.33770223440E+03  0.49729526121E+03  0.91244113100E+02 0.  0.
          4    1    3    3  502    0 -0.78946369533E+02  0.25682535599E+03  0.15302779899E+02  0.26912073093E+03  0.00000000000E+00 0. -1.
         -3    1    3    3    0  502 -0.31661891321E+02  0.42542529227E+03 -0.10748504667E+01  0.42660322311E+03  0.00000000000E+00 0.  1.
         13    1    5    5    0    0  0.43559922546E+03 -0.56145960900E+03 -0.25560945851E+03  0.75519518870E+03  0.00000000000E+00 0. -1.
        -13    1    5    5    0    0  0.14228361926E+02 -0.21470658519E+02  0.80467093093E+01  0.26984903021E+02  0.00000000000E+00 0.  1.
          4    1    6    6  503    0 -0.28475553883E+03 -0.83879090693E+02 -0.32323647256E+03  0.43886585188E+03  0.00000000000E+00 0. -1.
         -4    1    6    6    0  503 -0.54463787699E+02 -0.15441290049E+02 -0.14465761843E+02  0.58429409330E+02  0.00000000000E+00 0.  1.
<mgrwt>
<rscale>  0 0.18908540E+04</rscale>
<asrwt>0</asrwt>
<pdfrwt beam="1">  1        2 0.19586433E+00 0.18908540E+04</pdfrwt>
<pdfrwt beam="2">  1       -1 0.10801248E+00 0.18908540E+04</pdfrwt>
<totfact> 0.14594119E+01</totfact>
</mgrwt>
</event>
<event>
12    7  0.1922643E-007  0.2402478E+04  0.7818608E-02  0.8438576E-01
         -1   -1    0    0    0  501 -0.00000000000E+00  0.00000000000E+00  0.88179576264E+03  0.88179576264E+03  0.00000000000E+00 0.  1.
          2   -1    0    0  501    0  0.00000000000E+00 -0.00000000000E+00 -0.16364056471E+04  0.16364056471E+04  0.00000000000E+00 0. -1.
         24    2    1    2    0    0  0.45878713692E+03 -0.71411650676E+03 -0.93893737122E+03  0.12680962701E+04  0.77567653906E+02 0.  0.
        254    2    1    2    0    0 -0.45878713692E+03  0.71411650676E+03  0.18432748679E+03  0.12501051396E+04  0.89907631237E+03 0.  0.
         23    2    4    4    0    0 -0.49467484748E+03  0.99552800149E+02 -0.16219794283E+03  0.53769316968E+03  0.90508603562E+02 0.  0.
         23    2    4    4    0    0  0.35887710553E+02  0.61456370662E+03  0.34652542962E+03  0.71241196993E+03  0.92056853465E+02 0.  0.
          4    1    3    3  502    0  0.39629491331E+03 -0.58752789429E+03 -0.74518430914E+03  0.10283668312E+04  0.00000000000E+00 0. -1.
         -3    1    3    3    0  502  0.62492223619E+02 -0.12658861247E+03 -0.19375306208E+03  0.23972943892E+03  0.00000000000E+00 0.  1.
         13    1    5    5    0    0 -0.44256751145E+03  0.10296818577E+03 -0.16948579026E+03  0.48496791912E+03  0.00000000000E+00 0. -1.
        -13    1    5    5    0    0 -0.52107336025E+02 -0.34153856199E+01  0.72878474335E+01  0.52725250561E+02  0.00000000000E+00 0.  1.
          2    1    6    6  503    0  0.47329219012E+02  0.56024138419E+03  0.28785890620E+03  0.63164326436E+03  0.00000000000E+00 0. -1.
         -2    1    6    6    0  503 -0.11441508459E+02  0.54322322422E+02  0.58666523419E+02  0.80768705568E+02  0.00000000000E+00 0.  1.
<mgrwt>
<rscale>  0 0.24024784E+04</rscale>
<asrwt>0</asrwt>
<pdfrwt beam="1">  1        2 0.25175471E+00 0.24024784E+04</pdfrwt>
<pdfrwt beam="2">  1       -1 0.13566089E+00 0.24024784E+04</pdfrwt>
<totfact> 0.49558751E+00</totfact>
</mgrwt>
</event>
<event>
12    7  0.1857704E-007  0.2047940E+04  0.7818608E-02  0.8584529E-01
          2   -1    0    0  501    0  0.00000000000E+00  0.00000000000E+00  0.16894517386E+04  0.16894517386E+04  0.00000000000E+00 0. -1.
         -1   -1    0    0    0  501 -0.00000000000E+00 -0.00000000000E+00 -0.62062433673E+03  0.62062433673E+03  0.00000000000E+00 0.  1.
         24    2    1    2    0    0  0.54887659987E+03  0.42532511928E+03 -0.68998259702E+02  0.70245836792E+03  0.80746639808E+02 0.  0.
        254    2    1    2    0    0 -0.54887659987E+03 -0.42532511928E+03  0.11378256616E+04  0.16076177074E+04  0.89867707110E+03 0.  0.
         23    2    4    4    0    0 -0.65296058334E+03 -0.11557066886E+03  0.36328024252E+03  0.76194203520E+03  0.94175514346E+02 0.  0.
         23    2    4    4    0    0  0.10408398348E+03 -0.30975445042E+03  0.77454541908E+03  0.84567567225E+03  0.92007832467E+02 0.  0.
          4    1    3    3  502    0  0.20057056301E+03  0.14507429867E+03  0.13286503419E+02  0.24789440101E+03  0.00000000000E+00 0. -1.
         -3    1    3    3    0  502  0.34830603686E+03  0.28025082061E+03 -0.82284763122E+02  0.45456396691E+03  0.00000000000E+00 0.  1.
         13    1    5    5    0    0 -0.19538972721E+03 -0.36961668637E+02  0.61261342149E+02  0.20807753961E+03  0.00000000000E+00 0.  1.
        -13    1    5    5    0    0 -0.45757085614E+03 -0.78609000227E+02  0.30201890037E+03  0.55386449560E+03  0.00000000000E+00 0. -1.
          2    1    6    6  503    0 -0.12981485202E+02 -0.45223630437E+02  0.73224540310E+02  0.87037514966E+02  0.00000000000E+00 0.  1.
         -2    1    6    6    0  503  0.11706546868E+03 -0.26453081998E+03  0.70132087877E+03  0.75863815728E+03  0.00000000000E+00 0. -1.
<mgrwt>
<rscale>  0 0.20479403E+04</rscale>
<asrwt>0</asrwt>
<pdfrwt beam="1">  1        2 0.25991565E+00 0.20479403E+04</pdfrwt>
<pdfrwt beam="2">  1       -1 0.95480668E-01 0.20479403E+04</pdfrwt>
<totfact> 0.11091905E+01</totfact>
</mgrwt>
</event>
<event>
12    7  0.1857704E-007  0.1505531E+04  0.7818608E-02  0.8880783E-01
          2   -1    0    0  501    0  0.00000000000E+00  0.00000000000E+00  0.12258875491E+04  0.12258875491E+04  0.00000000000E+00 0. -1.
         -1   -1    0    0    0  501 -0.00000000000E+00 -0.00000000000E+00 -0.46224144557E+03  0.46224144557E+03  0.00000000000E+00 0.  1.
         24    2    1    2    0    0 -0.27264439808E+03 -0.24350011250E+03  0.59723205324E+03  0.70463418753E+03  0.78714294939E+02 0.  0.
        254    2    1    2    0    0  0.27264439808E+03  0.24350011250E+03  0.16641405031E+03  0.98349480716E+03  0.89774223861E+03 0.  0.
         23    2    4    4    0    0 -0.23023059874E+03 -0.17809154008E+03  0.77706226309E+02  0.31503072421E+03  0.92105235157E+02 0.  0.
         23    2    4    4    0    0  0.50287499682E+03  0.42159165258E+03  0.88707824004E+02  0.66846408296E+03  0.91391291769E+02 0.  0.
          2    1    3    3  502    0 -0.22779599682E+03 -0.23066265642E+03  0.54873134678E+03  0.63734007263E+03  0.00000000000E+00 0. -1.
         -1    1    3    3    0  502 -0.44848401251E+02 -0.12837456081E+02  0.48500706458E+02  0.67294114901E+02  0.00000000000E+00 0.  1.
         13    1    5    5    0    0 -0.10071429750E+03 -0.65074218709E+02 -0.13107360183E+02  0.12062266186E+03  0.00000000000E+00 0.  1.
        -13    1    5    5    0    0 -0.12951630124E+03 -0.11301732137E+03  0.90813586492E+02  0.19440806235E+03  0.00000000000E+00 0. -1.
          4    1    6    6  503    0  0.45619189143E+03  0.40748181612E+03  0.95952084473E+02  0.61916013663E+03  0.00000000000E+00 0.  1.
         -4    1    6    6    0  503  0.46683105386E+02  0.14109836459E+02 -0.72442604695E+01  0.49303946324E+02  0.00000000000E+00 0. -1.
<mgrwt>
<rscale>  0 0.15055312E+04</rscale>
<asrwt>0</asrwt>
<pdfrwt beam="1">  1        2 0.18859808E+00 0.15055312E+04</pdfrwt>
<pdfrwt beam="2">  1       -1 0.71114069E-01 0.15055312E+04</pdfrwt>
<totfact> 0.40202658E+01</totfact>
</mgrwt>
</event>
<event>
12    7  0.1857704E-007  0.2763739E+04  0.7818608E-02  0.8314615E-01
          2   -1    0    0  501    0  0.00000000000E+00  0.00000000000E+00  0.17203365825E+04  0.17203365825E+04  0.00000000000E+00 0. -1.
         -1   -1    0    0    0  501 -0.00000000000E+00 -0.00000000000E+00 -0.11099944157E+04  0.11099944157E+04  0.00000000000E+00 0.  1.
         24    2    1    2    0    0 -0.54511355139E+03  0.11035353382E+04  0.36707543736E+03  0.12873501968E+04  0.87104109038E+02 0.  0.
        254    2    1    2    0    0  0.54511355139E+03 -0.11035353382E+04  0.24326672950E+03  0.15429808014E+04  0.89814922215E+03 0.  0.
         23    2    4    4    0    0  0.10388162806E+03  0.27015126270E+02 -0.20193425947E+03  0.24701521404E+03  0.93369487111E+02 0.  0.
         23    2    4    4    0    0  0.44123192333E+03 -0.11305504645E+04  0.44520098897E+03  0.12959655874E+04  0.92157040702E+02 0.  0.
          4    1    3    3  502    0 -0.39389928946E+03  0.70928868865E+03  0.22724156677E+03  0.84254722346E+03  0.00000000000E+00 0. -1.
         -3    1    3    3    0  502 -0.15121426192E+03  0.39424664957E+03  0.13983387060E+03  0.44480297332E+03  0.00000000000E+00 0.  1.
         13    1    5    5    0    0  0.12006634749E+03  0.33643746266E+02 -0.17978844383E+03  0.21879605572E+03  0.00000000000E+00 0.  1.
        -13    1    5    5    0    0 -0.16184719430E+02 -0.66286199953E+01 -0.22145815638E+02  0.28219158321E+02  0.00000000000E+00 0. -1.
          4    1    6    6  503    0  0.20582411110E+03 -0.52773126215E+03  0.15892602259E+03  0.58832077170E+03  0.00000000000E+00 0. -1.
         -4    1    6    6    0  503  0.23540781223E+03 -0.60281920235E+03  0.28627496639E+03  0.70764481568E+03  0.00000000000E+00 0.  1.
<mgrwt>
<rscale>  0 0.27637395E+04</rscale>
<asrwt>0</asrwt>
<pdfrwt beam="1">  1        2 0.26466717E+00 0.27637395E+04</pdfrwt>
<pdfrwt beam="2">  1       -1 0.17076837E+00 0.27637395E+04</pdfrwt>
<totfact> 0.23055040E+00</totfact>
</mgrwt>
</event>
<event>
12    7  0.1857704E-007  0.1521321E+04  0.7818608E-02  0.8870397E-01
         -1   -1    0    0    0  501 -0.00000000000E+00  0.00000000000E+00  0.34559859141E+03  0.34559859141E+03  0.00000000000E+00 0.  1.
          2   -1    0    0  501    0  0.00000000000E+00 -0.00000000000E+00 -0.16742092997E+04  0.16742092997E+04  0.00000000000E+00 0. -1.
         24    2    1    2    0    0 -0.28105109161E+03  0.40821491988E+02  0.96708174410E+02  0.31057382458E+03  0.80296445809E+02 0.  0.
        254    2    1    2    0    0  0.28105109161E+03 -0.40821491988E+02 -0.14253188827E+04  0.17092340666E+04  0.89960606184E+03 0.  0.
         23    2    4    4    0    0 -0.24043722048E+03 -0.13922965645E+02 -0.91779420513E+02  0.27419916590E+03  0.93583196043E+02 0.  0.
         23    2    4    4    0    0  0.52148831210E+03 -0.26898526343E+02 -0.13335394622E+04  0.14350349007E+04  0.91236387733E+02 0.  0.
          4    1    3    3  502    0 -0.60685917008E+02  0.24482153459E+02  0.55477757941E+02  0.85790080937E+02  0.00000000000E+00 0. -1.
         -3    1    3    3    0  502 -0.22036517461E+03  0.16339338529E+02  0.41230416468E+02  0.22478374364E+03  0.00000000000E+00 0.  1.
         13    1    5    5    0    0 -0.21858006443E+02 -0.72956620809E+01 -0.45022191946E+02  0.50576643804E+02  0.00000000000E+00 0. -1.
        -13    1    5    5    0    0 -0.21857921404E+03 -0.66273035638E+01 -0.46757228567E+02  0.22362252209E+03  0.00000000000E+00 0.  1.
          2    1    6    6  503    0  0.49253336294E+03 -0.46638562270E+02 -0.12323931642E+04  0.13279899022E+04  0.00000000000E+00 0.  1.
         -2    1    6    6    0  503  0.28954949160E+02  0.19740035926E+02 -0.10114629800E+03  0.10704499847E+03  0.00000000000E+00 0. -1.
<mgrwt>
<rscale>  0 0.15213210E+04</rscale>
<asrwt>0</asrwt>
<pdfrwt beam="1">  1        2 0.25757066E+00 0.15213210E+04</pdfrwt>
<pdfrwt beam="2">  1       -1 0.53169015E-01 0.15213210E+04</pdfrwt>
<totfact> 0.39740589E+01</totfact>
</mgrwt>
</event>
<event>
12    7  0.1857704E-007  0.3265438E+04  0.7818608E-02  0.8171746E-01
          2   -1    0    0  501    0  0.00000000000E+00  0.00000000000E+00  0.25535258838E+04  0.25535258838E+04  0.00000000000E+00 0. -1.
         -1   -1    0    0    0  501 -0.00000000000E+00 -0.00000000000E+00 -0.10439572561E+04  0.10439572561E+04  0.00000000000E+00 0.  1.
         24    2    1    2    0    0  0.97963185935E+02  0.10237258021E+04  0.19118050812E+04  0.21720698259E+04  0.72645416781E+02 0.  0.
        254    2    1    2    0    0 -0.97963185935E+02 -0.10237258021E+04 -0.40223645352E+03  0.14254133140E+04  0.90133104218E+03 0.  0.
         23    2    4    4    0    0  0.77703330863E+02 -0.92385253187E+03  0.39595705369E+02  0.93213806712E+03  0.88160354094E+02 0.  0.
         23    2    4    4    0    0 -0.17566651680E+03 -0.99873270222E+02 -0.44183215889E+03  0.49327524690E+03  0.85272606092E+02 0.  0.
          4    1    3    3  502    0  0.10429277446E+03  0.10121328156E+04  0.18923888097E+04  0.21485867975E+04  0.00000000000E+00 0. -1.
         -3    1    3    3    0  502 -0.63295885229E+01  0.11592986461E+02  0.19416271484E+02  0.23483028431E+02  0.00000000000E+00 0.  1.
         13    1    5    5    0    0  0.53619103799E+02 -0.25912771661E+03 -0.12722525358E+02  0.26492271412E+03  0.00000000000E+00 0.  1.
        -13    1    5    5    0    0  0.24084227064E+02 -0.66472481526E+03  0.52318230727E+02  0.66721535300E+03  0.00000000000E+00 0. -1.
          1    1    6    6  503    0 -0.11950745551E+03 -0.10862912142E+03 -0.34643454568E+03  0.38222926678E+03  0.00000000000E+00 0. -1.
         -1    1    6    6    0  503 -0.56159061290E+02  0.87558512016E+01 -0.95397613203E+02  0.11104598012E+03  0.00000000000E+00 0.  1.
<mgrwt>
<rscale>  0 0.32654383E+04</rscale>
<asrwt>0</asrwt>
<pdfrwt beam="1">  1        2 0.39285013E+00 0.32654383E+04</pdfrwt>
<pdfrwt beam="2">  1       -1 0.16060881E+00 0.32654383E+04</pdfrwt>
<totfact> 0.89148661E-01</totfact>
</mgrwt>
</event>
<event>
12    7  0.1857704E-007  0.3589664E+04  0.7818608E-02  0.8092863E-01
          2   -1    0    0  501    0  0.00000000000E+00  0.00000000000E+00  0.25452331236E+04  0.25452331236E+04  0.00000000000E+00 0. -1.
         -1   -1    0    0    0  501 -0.00000000000E+00 -0.00000000000E+00 -0.12656684631E+04  0.12656684631E+04  0.00000000000E+00 0.  1.
         24    2    1    2    0    0 -0.94236287650E+03  0.89741399324E+03 -0.54130196046E+03  0.14116310421E+04  0.79339272997E+02 0.  0.
        254    2    1    2    0    0  0.94236287650E+03 -0.89741399324E+03  0.18208666209E+04  0.23992705447E+04  0.86460640128E+03 0.  0.
         23    2    4    4    0    0  0.79028086325E+03 -0.21375883092E+03  0.12194844399E+04  0.14716445986E+04  0.91426717455E+02 0.  0.
         23    2    4    4    0    0  0.15208201325E+03 -0.68365516232E+03  0.60138218099E+03  0.92762594611E+03  0.91192371214E+02 0.  0.
          4    1    3    3  502    0 -0.55092418620E+03  0.55287570234E+03 -0.36016073882E+03  0.85959569506E+03  0.00000000000E+00 0. -1.
         -3    1    3    3    0  502 -0.39143869030E+03  0.34453829090E+03 -0.18114122164E+03  0.55203534700E+03  0.00000000000E+00 0.  1.
         13    1    5    5    0    0  0.80673537089E+02 -0.33887329863E+01  0.86468928546E+02  0.11830713715E+03  0.00000000000E+00 0. -1.
        -13    1    5    5    0    0  0.70960732616E+03 -0.21037009793E+03  0.11330155114E+04  0.13533374614E+04  0.00000000000E+00 0.  1.
          4    1    6    6  503    0 -0.76335132177E+01 -0.65870139123E+01  0.46635070367E+01  0.11108896174E+02  0.00000000000E+00 0. -1.
         -4    1    6    6    0  503  0.15971552647E+03 -0.67706814841E+03  0.59671867395E+03  0.91651704993E+03  0.00000000000E+00 0.  1.
<mgrwt>
<rscale>  0 0.35896637E+04</rscale>
<asrwt>0</asrwt>
<pdfrwt beam="1">  1        2 0.39157433E+00 0.35896637E+04</pdfrwt>
<pdfrwt beam="2">  1       -1 0.19471823E+00 0.35896637E+04</pdfrwt>
<totfact> 0.49727264E-01</totfact>
</mgrwt>
</event>
<event>
12    7  0.1857704E-007  0.2548448E+04  0.7818608E-02  0.8385926E-01
          2   -1    0    0  501    0  0.00000000000E+00  0.00000000000E+00  0.16942419857E+04  0.16942419857E+04  0.00000000000E+00 0. -1.
         -1   -1    0    0    0  501 -0.00000000000E+00 -0.00000000000E+00 -0.95833256532E+03  0.95833256532E+03  0.00000000000E+00 0.  1.
         24    2    1    2    0    0 -0.51181383118E+03  0.35646181153E+03  0.12764566946E+04  0.14228127264E+04  0.77691313877E+02 0.  0.
        254    2    1    2    0    0  0.51181383118E+03 -0.35646181153E+03 -0.54054727421E+03  0.12297618247E+04  0.91164925761E+03 0.  0.
         23    2    4    4    0    0 -0.24881369622E+03 -0.27075973054E+02 -0.18054438587E+03  0.32169456069E+03  0.90828141903E+02 0.  0.
         23    2    4    4    0    0  0.76062752740E+03 -0.32938583847E+03 -0.36000288834E+03  0.90806726398E+03  0.89077552016E+02 0.  0.
          2    1    3    3  502    0 -0.43667010747E+03  0.28606525571E+03  0.11175322674E+04  0.12334473973E+04  0.00000000000E+00 0. -1.
         -1    1    3    3    0  502 -0.75143723708E+02  0.70396555818E+02  0.15892442727E+03  0.18936532911E+03  0.00000000000E+00 0.  1.
         13    1    5    5    0    0 -0.20095159095E+03  0.16263366648E+02 -0.14003410286E+03  0.24547013864E+03  0.00000000000E+00 0.  1.
        -13    1    5    5    0    0 -0.47862105275E+02 -0.43339339701E+02 -0.40510283004E+02  0.76224422045E+02  0.00000000000E+00 0. -1.
          1    1    6    6  503    0  0.56521739581E+03 -0.20126184126E+03 -0.26086752573E+03  0.65423917588E+03  0.00000000000E+00 0. -1.
         -1    1    6    6    0  503  0.19541013160E+03 -0.12812399721E+03 -0.99135362612E+02  0.25382808811E+03  0.00000000000E+00 0.  1.
<mgrwt>
<rscale>  0 0.25484484E+04</rscale>
<asrwt>0</asrwt>
<pdfrwt beam="1">  1        2 0.26065261E+00 0.25484484E+04</pdfrwt>
<pdfrwt beam="2">  1       -1 0.14743578E+00 0.25484484E+04</pdfrwt>
<totfact> 0.36516976E+00</totfact>
</mgrwt>
</event>
<event>
12    7  0.1857704E-007  0.1331736E+04  0.7818608E-02  0.9004770E-01
          2   -1    0    0  501    0  0.00000000000E+00  0.00000000000E+00  0.51651870674E+03  0.51651870674E+03  0.00000000000E+00 0. -1.
         -1   -1    0    0    0  501 -0.00000000000E+00 -0.00000000000E+00 -0.85840074806E+03  0.85840074806E+03  0.00000000000E+00 0.  1.
         24    2    1    2    0    0 -0.14902306393E+03  0.40388570420E+02  0.23809697366E+03  0.29511592186E+03  0.81019307981E+02 0.  0.
        254    2    1    2    0    0  0.14902306393E+03 -0.40388570420E+02 -0.57997901497E+03  0.10798035329E+04  0.89764185605E+03 0.  0.
         23    2    4    4    0    0  0.25935566581E+03 -0.42195586897E+03 -0.33620660077E+03  0.60662880565E+03  0.98242112641E+02 0.  0.
         23    2    4    4    0    0 -0.11033260188E+03  0.38156729855E+03 -0.24377241420E+03  0.47317472729E+03  0.81868469264E+02 0.  0.
          4    1    3    3  502    0 -0.73389882949E+02  0.44856473493E+02  0.18049206145E+03  0.19993889662E+03  0.00000000000E+00 0. -1.
         -3    1    3    3    0  502 -0.75633180985E+02 -0.44679030729E+01  0.57604912204E+02  0.95177025241E+02  0.00000000000E+00 0.  1.
         13    1    5    5    0    0  0.16004541768E+02 -0.77902065767E+02 -0.27168631258E+02  0.84041726138E+02  0.00000000000E+00 0. -1.
        -13    1    5    5    0    0  0.24335112404E+03 -0.34405380320E+03 -0.30903796951E+03  0.52258707951E+03  0.00000000000E+00 0.  1.
          2    1    6    6  503    0 -0.39821935887E+02  0.12464197936E+03 -0.12678178864E+03  0.18219503706E+03  0.00000000000E+00 0. -1.
         -2    1    6    6    0  503 -0.70510665992E+02  0.25692531919E+03 -0.11699062556E+03  0.29097969023E+03  0.00000000000E+00 0.  1.
<mgrwt>
<rscale>  0 0.13317358E+04</rscale>
<asrwt>0</asrwt>
<pdfrwt beam="1">  1        2 0.79464418E-01 0.13317358E+04</pdfrwt>
<pdfrwt beam="2">  1       -1 0.13206165E+00 0.13317358E+04</pdfrwt>
<totfact> 0.32314035E+01</totfact>
</mgrwt>
</event>
<event>
12    7  0.1857704E-007  0.3676566E+04  0.7818608E-02  0.8073175E-01
          2   -1    0    0  501    0  0.00000000000E+00  0.00000000000E+00  0.15176034667E+04  0.15176034667E+04  0.00000000000E+00 0. -1.
         -1   -1    0    0    0  501 -0.00000000000E+00 -0.00000000000E+00 -0.22267241574E+04  0.22267241574E+04  0.00000000000E+00 0.  1.
         24    2    1    2    0    0 -0.13333375604E+04 -0.35515443880E+03 -0.13901373430E+04  0.19603470023E+04  0.80961793073E+02 0.  0.
        254    2    1    2    0    0  0.13333375604E+04  0.35515443880E+03  0.68101665224E+03  0.17839806217E+04  0.90270673691E+03 0.  0.
         23    2    4    4    0    0  0.70273841903E+03 -0.26783542481E+03  0.30216403369E+03  0.81545059329E+03  0.89885852466E+02 0.  0.
         23    2    4    4    0    0  0.63059914133E+03  0.62298986360E+03  0.37885261856E+03  0.96853002846E+03  0.93538560157E+02 0.  0.
          4    1    3    3  502    0 -0.32892426957E+03 -0.12382468589E+03 -0.35939480294E+03  0.50268116369E+03  0.00000000000E+00 0. -1.
         -3    1    3    3    0  502 -0.10044132908E+04 -0.23132975291E+03 -0.10307425400E+04  0.14576658386E+04  0.00000000000E+00 0.  1.
         13    1    5    5    0    0  0.52536191930E+03 -0.18086965333E+03  0.26001840355E+03  0.61345623147E+03  0.00000000000E+00 0.  1.
        -13    1    5    5    0    0  0.17737649974E+03 -0.86965771477E+02  0.42145630136E+02  0.20199436182E+03  0.00000000000E+00 0. -1.
          1    1    6    6  503    0  0.12528167945E+03  0.11208512399E+03  0.34125071214E+02  0.17153161432E+03  0.00000000000E+00 0. -1.
         -1    1    6    6    0  503  0.50531746188E+03  0.51090473961E+03  0.34472754734E+03  0.79699841413E+03  0.00000000000E+00 0.  1.
<mgrwt>
<rscale>  0 0.36765660E+04</rscale>
<asrwt>0</asrwt>
<pdfrwt beam="1">  1        2 0.23347746E+00 0.36765660E+04</pdfrwt>
<pdfrwt beam="2">  1       -1 0.34257295E+00 0.36765660E+04</pdfrwt>
<totfact> 0.19900723E-01</totfact>
</mgrwt>
</event>
<event>
12    7  0.1857704E-007  0.2732221E+04  0.7818608E-02  0.8324625E-01
         -1   -1    0    0    0  501 -0.00000000000E+00  0.00000000000E+00  0.94483454386E+03  0.94483454386E+03  0.00000000000E+00 0.  1.
          2   -1    0    0  501    0  0.00000000000E+00 -0.00000000000E+00 -0.19752219937E+04  0.19752219937E+04  0.00000000000E+00 0. -1.
         24    2    1    2    0    0 -0.61087235268E+03  0.64491659641E+01  0.66525406028E+03  0.90687663549E+03  0.81582132072E+02 0.  0.
        254    2    1    2    0    0  0.61087235268E+03 -0.64491659641E+01 -0.16956415102E+04  0.20131799021E+04  0.89693175007E+03 0.  0.
         23    2    4    4    0    0 -0.22414776226E+03 -0.32112498873E+02 -0.35430889552E+03  0.43037314363E+03  0.91721411896E+02 0.  0.
         23    2    4    4    0    0  0.83502011495E+03  0.25663332909E+02 -0.13413326146E+04  0.15828067585E+04  0.90481227850E+02 0.  0.
          4    1    3    3  502    0 -0.20854209257E+02  0.10027394322E+02  0.46250202978E+02  0.51715838543E+02  0.00000000000E+00 0. -1.
         -3    1    3    3    0  502 -0.59001814342E+03 -0.35782283579E+01  0.61900385730E+03  0.85516079695E+03  0.00000000000E+00 0.  1.
         13    1    5    5    0    0 -0.15200081129E+03 -0.60177845950E+01 -0.30003765093E+03  0.33639716458E+03  0.00000000000E+00 0.  1.
        -13    1    5    5    0    0 -0.72146950975E+02 -0.26094714278E+02 -0.54271244592E+02  0.93975979046E+02  0.00000000000E+00 0. -1.
          2    1    6    6  503    0  0.80466885780E+03  0.41799857578E+02 -0.12798494977E+04  0.15123669977E+04  0.00000000000E+00 0. -1.
         -2    1    6    6    0  503  0.30351257146E+02 -0.16136524669E+02 -0.61483116896E+02  0.70439760803E+02  0.00000000000E+00 0.  1.
<mgrwt>
<rscale>  0 0.27322211E+04</rscale>
<asrwt>0</asrwt>
<pdfrwt beam="1">  1        2 0.30388030E+00 0.27322211E+04</pdfrwt>
<pdfrwt beam="2">  1       -1 0.14535916E+00 0.27322211E+04</pdfrwt>
<totfact> 0.26059860E+00</totfact>
</mgrwt>
</event>
<event>
12    7  0.1857704E-007  0.3456131E+04  0.7818608E-02  0.8124266E-01
         -1   -1    0    0    0  501 -0.00000000000E+00  0.00000000000E+00  0.14360034976E+04  0.14360034976E+04  0.00000000000E+00 0.  1.
          2   -1    0    0  501    0  0.00000000000E+00 -0.00000000000E+00 -0.20795289188E+04  0.20795289188E+04  0.00000000000E+00 0. -1.
         24    2    1    2    0    0 -0.82154021025E+03 -0.31844320391E+02 -0.17081831853E+04  0.18974187753E+04  0.79786192309E+02 0.  0.
        254    2    1    2    0    0  0.82154021025E+03  0.31844320391E+02  0.10646577640E+04  0.16181136411E+04  0.89936267618E+03 0.  0.
         23    2    4    4    0    0  0.26441708332E+03 -0.27925167097E+03  0.85232719968E+03  0.93935998117E+03  0.89652826038E+02 0.  0.
         23    2    4    4    0    0  0.55712312693E+03  0.31109599136E+03  0.21233056437E+03  0.67875365997E+03  0.91953074790E+02 0.  0.
          2    1    3    3  502    0 -0.77474087612E+03 -0.39225422141E+02 -0.16420676290E+04  0.18160804379E+04  0.00000000000E+00 0. -1.
         -1    1    3    3    0  502 -0.46799334123E+02  0.73811017502E+01 -0.66115556336E+02  0.81338337375E+02  0.00000000000E+00 0.  1.
         13    1    5    5    0    0  0.14445468161E+03 -0.20180360518E+03  0.60238082376E+03  0.65150173210E+03  0.00000000000E+00 0. -1.
        -13    1    5    5    0    0  0.11996240171E+03 -0.77448065788E+02  0.24994637592E+03  0.28785824906E+03  0.00000000000E+00 0.  1.
          2    1    6    6  503    0  0.41577104230E+03  0.20353680173E+03  0.11837455346E+03  0.47781306405E+03  0.00000000000E+00 0. -1.
         -2    1    6    6    0  503  0.14135208463E+03  0.10755918962E+03  0.93956010912E+02  0.20094059592E+03  0.00000000000E+00 0.  1.
<mgrwt>
<rscale>  0 0.34561312E+04</rscale>
<asrwt>0</asrwt>
<pdfrwt beam="1">  1        2 0.31992753E+00 0.34561312E+04</pdfrwt>
<pdfrwt beam="2">  1       -1 0.22092362E+00 0.34561312E+04</pdfrwt>
<totfact> 0.61385855E-01</totfact>
</mgrwt>
</event>
<event>
12    7  0.1857704E-007  0.3150864E+04  0.7818608E-02  0.8201916E-01
          2   -1    0    0  501    0  0.00000000000E+00  0.00000000000E+00  0.36389542648E+04  0.36389542648E+04  0.00000000000E+00 0. -1.
         -1   -1    0    0    0  501 -0.00000000000E+00 -0.00000000000E+00 -0.68206024701E+03  0.68206024701E+03  0.00000000000E+00 0.  1.
         24    2    1    2    0    0  0.10024509147E+04  0.64957186822E+03  0.24730469716E+04  0.27475750643E+04  0.79724286553E+02 0.  0.
        254    2    1    2    0    0 -0.10024509147E+04 -0.64957186822E+03  0.48384704616E+03  0.15734394475E+04  0.90263629581E+03 0.  0.
         23    2    4    4    0    0 -0.18835579891E+03  0.21660263737E+03  0.13736664008E+03  0.33152235537E+03  0.92967030762E+02 0.  0.
         23    2    4    4    0    0 -0.81409511577E+03 -0.86617450558E+03  0.34648040608E+03  0.12419170921E+04  0.96437856926E+02 0.  0.
          4    1    3    3  502    0  0.86570749971E+03  0.52795757960E+03  0.20780242949E+04  0.23122226647E+04  0.00000000000E+00 0. -1.
         -1    1    3    3    0  502  0.13674341497E+03  0.12161428862E+03  0.39502267668E+03  0.43535239959E+03  0.00000000000E+00 0.  1.
         13    1    5    5    0    0 -0.15208596152E+03  0.10619473179E+03  0.86260039293E+02  0.20456846074E+03  0.00000000000E+00 0.  1.
        -13    1    5    5    0    0 -0.36269837392E+02  0.11040790558E+03  0.51106600788E+02  0.12695389464E+03  0.00000000000E+00 0. -1.
          1    1    6    6  503    0 -0.43533290129E+03 -0.40569419285E+03  0.14408032145E+03  0.61225946468E+03  0.00000000000E+00 0. -1.
         -1    1    6    6    0  503 -0.37876221448E+03 -0.46048031274E+03  0.20240008463E+03  0.62965762744E+03  0.00000000000E+00 0.  1.
<mgrwt>
<rscale>  0 0.31508640E+04</rscale>
<asrwt>0</asrwt>
<pdfrwt beam="1">  1        2 0.55983911E+00 0.31508640E+04</pdfrwt>
<pdfrwt beam="2">  1       -1 0.10493235E+00 0.31508640E+04</pdfrwt>
<totfact> 0.52906236E-01</totfact>
</mgrwt>
</event>
<event>
12    7  0.1857704E-007  0.1519830E+04  0.7818608E-02  0.8871372E-01
          2   -1    0    0  501    0  0.00000000000E+00  0.00000000000E+00  0.10205138673E+04  0.10205138673E+04  0.00000000000E+00 0. -1.
         -1   -1    0    0    0  501 -0.00000000000E+00 -0.00000000000E+00 -0.56586299083E+03  0.56586299083E+03  0.00000000000E+00 0.  1.
         24    2    1    2    0    0 -0.11479918352E+03 -0.35404231893E+03  0.45012758427E+03  0.58956086455E+03  0.80264280740E+02 0.  0.
        254    2    1    2    0    0  0.11479918352E+03  0.35404231893E+03  0.45232922338E+01  0.99681599360E+03  0.92471446879E+03 0.  0.
         23    2    4    4    0    0 -0.79992879648E+02  0.38384156665E+03 -0.38085859216E+03  0.55441263322E+03  0.92665482068E+02 0.  0.
         23    2    4    4    0    0  0.19479206317E+03 -0.29799247715E+02  0.38538188440E+03  0.44240336038E+03  0.91485482023E+02 0.  0.
          4    1    3    3  502    0 -0.11876542662E+03 -0.27070342245E+03  0.32680767544E+03  0.44066861269E+03  0.00000000000E+00 0. -1.
         -3    1    3    3    0  502  0.39662430958E+01 -0.83338896482E+02  0.12331990883E+03  0.14889225186E+03  0.00000000000E+00 0.  1.
         13    1    5    5    0    0 -0.27149850296E+02  0.28443301319E+03 -0.23369049825E+03  0.36912125695E+03  0.00000000000E+00 0. -1.
        -13    1    5    5    0    0 -0.52843029353E+02  0.99408553456E+02 -0.14716809391E+03  0.18529137626E+03  0.00000000000E+00 0.  1.
          2    1    6    6  503    0  0.93879458618E+02 -0.59678034431E+02  0.17934541332E+03  0.21104406607E+03  0.00000000000E+00 0. -1.
         -2    1    6    6    0  503  0.10091260455E+03  0.29878786716E+02  0.20603647108E+03  0.23135929432E+03  0.00000000000E+00 0.  1.
<mgrwt>
<rscale>  0 0.15198303E+04</rscale>
<asrwt>0</asrwt>
<pdfrwt beam="1">  1        2 0.15700213E+00 0.15198303E+04</pdfrwt>
<pdfrwt beam="2">  1       -1 0.87055845E-01 0.15198303E+04</pdfrwt>
<totfact> 0.34963406E+01</totfact>
</mgrwt>
</event>
<event>
12    7  0.1857704E-007  0.2724639E+04  0.7818608E-02  0.8327055E-01
         -1   -1    0    0    0  501 -0.00000000000E+00  0.00000000000E+00  0.18187098217E+04  0.18187098217E+04  0.00000000000E+00 0.  1.
          2   -1    0    0  501    0  0.00000000000E+00 -0.00000000000E+00 -0.10204563711E+04  0.10204563711E+04  0.00000000000E+00 0. -1.
         24    2    1    2    0    0 -0.60717291550E+03 -0.10523013544E+04  0.16488854223E+03  0.12287155141E+04  0.80972176284E+02 0.  0.
        254    2    1    2    0    0  0.60717291550E+03  0.10523013544E+04  0.63336490832E+03  0.16104506787E+04  0.84640604423E+03 0.  0.
         23    2    4    4    0    0  0.58487212534E+02  0.78099183193E+03  0.10313382083E+03  0.79561646467E+03  0.94868215381E+02 0.  0.
         23    2    4    4    0    0  0.54868570297E+03  0.27130952249E+03  0.53023108749E+03  0.81483421406E+03  0.90249280469E+02 0.  0.
          4    1    3    3  502    0 -0.20807043907E+03 -0.40139574733E+03  0.95109399047E+02  0.46201477398E+03  0.00000000000E+00 0. -1.
         -3    1    3    3    0  502 -0.39910247643E+03 -0.65090560709E+03  0.69779143186E+02  0.76670074009E+03  0.00000000000E+00 0.  1.
         13    1    5    5    0    0 -0.22528133309E+02  0.87006045719E+02  0.44739269476E+01  0.89986581246E+02  0.00000000000E+00 0. -1.
        -13    1    5    5    0    0  0.81015345843E+02  0.69398578621E+03  0.98659893882E+02  0.70562988342E+03  0.00000000000E+00 0.  1.
          4    1    6    6  503    0  0.20651549442E+03  0.61944544065E+02  0.21685567658E+03  0.30579758083E+03  0.00000000000E+00 0.  1.
         -4    1    6    6    0  503  0.34217020854E+03  0.20936497843E+03  0.31337541091E+03  0.50903663323E+03  0.00000000000E+00 0. -1.
<mgrwt>
<rscale>  0 0.27246387E+04</rscale>
<asrwt>0</asrwt>
<pdfrwt beam="1">  1        2 0.15699329E+00 0.27246387E+04</pdfrwt>
<pdfrwt beam="2">  1       -1 0.27980151E+00 0.27246387E+04</pdfrwt>
<totfact> 0.10886784E+00</totfact>
</mgrwt>
</event>
<event>
12    7  0.1857704E-007  0.1970784E+04  0.7818608E-02  0.8620403E-01
         -1   -1    0    0    0  501 -0.00000000000E+00  0.00000000000E+00  0.23193173604E+04  0.23193173604E+04  0.00000000000E+00 0.  1.
          2   -1    0    0  501    0  0.00000000000E+00 -0.00000000000E+00 -0.41865657118E+03  0.41865657118E+03  0.00000000000E+00 0. -1.
         24    2    1    2    0    0 -0.21759363914E+03  0.40986332184E+03 -0.11971433155E+03  0.48578746976E+03  0.79517357916E+02 0.  0.
        254    2    1    2    0    0  0.21759363914E+03 -0.40986332184E+03  0.20203751208E+04  0.22521864618E+04  0.88039382996E+03 0.  0.
         23    2    4    4    0    0  0.32235552071E+03 -0.61492756618E+03  0.17528133578E+04  0.18875420180E+04  0.91712643199E+02 0.  0.
         23    2    4    4    0    0 -0.10476188157E+03  0.20506424434E+03  0.26756176297E+03  0.36464444386E+03  0.91377663037E+02 0.  0.
          2    1    3    3  502    0 -0.19796401065E+03  0.38703002362E+03 -0.13036703014E+03  0.45384749779E+03  0.00000000000E+00 0. -1.
         -1    1    3    3    0  502 -0.19629628496E+02  0.22833298216E+02  0.10652698592E+02  0.31939971973E+02  0.00000000000E+00 0.  1.
         13    1    5    5    0    0  0.30501755724E+03 -0.57257626303E+03  0.15630172066E+04  0.16923067320E+04  0.00000000000E+00 0. -1.
        -13    1    5    5    0    0  0.17337963468E+02 -0.42351303147E+02  0.18979615123E+03  0.19523528594E+03  0.00000000000E+00 0.  1.
          3    1    6    6  503    0 -0.11338829151E+03  0.18079216209E+03  0.26265243728E+03  0.33842135473E+03  0.00000000000E+00 0. -1.
         -3    1    6    6    0  503  0.86264099431E+01  0.24272082247E+02  0.49093256856E+01  0.26223089135E+02  0.00000000000E+00 0.  1.
<mgrwt>
<rscale>  0 0.19707841E+04</rscale>
<asrwt>0</asrwt>
<pdfrwt beam="1">  1        2 0.64408705E-01 0.19707841E+04</pdfrwt>
<pdfrwt beam="2">  1       -1 0.35681805E+00 0.19707841E+04</pdfrwt>
<totfact> 0.11271050E+00</totfact>
</mgrwt>
</event>
<event>
12    7  0.1857704E-007  0.2289592E+04  0.7818608E-02  0.8482036E-01
          2   -1    0    0  501    0  0.00000000000E+00  0.00000000000E+00  0.89113468141E+03  0.89113468141E+03  0.00000000000E+00 0. -1.
         -1   -1    0    0    0  501 -0.00000000000E+00 -0.00000000000E+00 -0.14706616819E+04  0.14706616819E+04  0.00000000000E+00 0.  1.
         24    2    1    2    0    0  0.62220406040E+03 -0.71396867260E+03 -0.38114602644E+03  0.10258008785E+04  0.10052855652E+03 0.  0.
        254    2    1    2    0    0 -0.62220406040E+03  0.71396867260E+03 -0.19838097401E+03  0.13359954847E+04  0.92121645999E+03 0.  0.
         23    2    4    4    0    0 -0.28836759058E+02  0.55224186242E+03  0.20247578486E+03  0.59603185136E+03  0.91950481794E+02 0.  0.
         23    2    4    4    0    0 -0.59336730134E+03  0.16172681018E+03 -0.40085675887E+03  0.73996363338E+03  0.92842458814E+02 0.  0.
          2    1    3    3  502    0  0.57981122711E+03 -0.65490046212E+03 -0.32199070835E+03  0.93206957393E+03  0.00000000000E+00 0. -1.
         -1    1    3    3    0  502  0.42392833286E+02 -0.59068210474E+02 -0.59155318090E+02  0.93731304595E+02  0.00000000000E+00 0.  1.
         13    1    5    5    0    0 -0.42656657568E+02  0.10801937550E+03  0.40338787719E+02  0.12294305069E+03  0.00000000000E+00 0.  1.
        -13    1    5    5    0    0  0.13819898510E+02  0.44422248692E+03  0.16213699714E+03  0.47308880067E+03  0.00000000000E+00 0. -1.
          1    1    6    6  503    0 -0.41503847129E+03  0.68182835580E+02 -0.27240276560E+03  0.50110787105E+03  0.00000000000E+00 0. -1.
         -1    1    6    6    0  503 -0.17832883004E+03  0.93543974604E+02 -0.12845399328E+03  0.23885576233E+03  0.00000000000E+00 0.  1.
<mgrwt>
<rscale>  0 0.22895918E+04</rscale>
<asrwt>0</asrwt>
<pdfrwt beam="1">  1        2 0.13709765E+00 0.22895918E+04</pdfrwt>
<pdfrwt beam="2">  1       -1 0.22625564E+00 0.22895918E+04</pdfrwt>
<totfact> 0.30755418E+00</totfact>
</mgrwt>
</event>
<event>
12    7  0.1857704E-007  0.1723094E+04  0.7818608E-02  0.8748301E-01
          2   -1    0    0  501    0  0.00000000000E+00  0.00000000000E+00  0.22639241478E+04  0.22639241478E+04  0.00000000000E+00 0. -1.
         -1   -1    0    0    0  501 -0.00000000000E+00 -0.00000000000E+00 -0.32786584613E+03  0.32786584613E+03  0.00000000000E+00 0.  1.
         24    2    1    2    0    0 -0.42895057729E+03 -0.98769872894E+01  0.13935310658E+04  0.14601394950E+04  0.77345724228E+02 0.  0.
        254    2    1    2    0    0  0.42895057729E+03  0.98769872894E+01  0.54252723592E+03  0.11316504989E+04  0.89565668499E+03 0.  0.
         23    2    4    4    0    0  0.13157520355E+03  0.16369163819E+03 -0.20519043701E+03  0.30712083896E+03  0.90072791027E+02 0.  0.
         23    2    4    4    0    0  0.29737537374E+03 -0.15381465090E+03  0.74771767293E+03  0.82452965996E+03  0.93147098797E+02 0.  0.
          4    1    3    3  502    0 -0.34408340242E+03 -0.50570291405E+01  0.10006526690E+04  0.10581704614E+04  0.00000000000E+00 0. -1.
         -3    1    3    3    0  502 -0.84867174865E+02 -0.48199581489E+01  0.39287839673E+03  0.40196903361E+03  0.00000000000E+00 0.  1.
         13    1    5    5    0    0  0.46080266458E+02  0.97426016083E+02 -0.52191271216E+02  0.11974618306E+03  0.00000000000E+00 0.  1.
        -13    1    5    5    0    0  0.85494937091E+02  0.66265622110E+02 -0.15299916579E+03  0.18737465590E+03  0.00000000000E+00 0. -1.
          3    1    6    6  503    0  0.27015796922E+03 -0.14263125730E+03  0.59330052382E+03  0.66733388604E+03  0.00000000000E+00 0. -1.
         -3    1    6    6    0  503  0.27217404519E+02 -0.11183393601E+02  0.15441714911E+03  0.15719577392E+03  0.00000000000E+00 0.  1.
<mgrwt>
<rscale>  0 0.17230942E+04</rscale>
<asrwt>0</asrwt>
<pdfrwt beam="1">  1        2 0.34829601E+00 0.17230942E+04</pdfrwt>
<pdfrwt beam="2">  1       -1 0.50440901E-01 0.17230942E+04</pdfrwt>
<totfact> 0.20302207E+01</totfact>
</mgrwt>
</event>
<event>
12    7  0.1857704E-007  0.1925657E+04  0.7818608E-02  0.8642190E-01
         -3   -1    0    0    0  501 -0.00000000000E+00  0.00000000000E+00  0.60471694061E+03  0.60471694061E+03  0.00000000000E+00 0.  1.
          2   -1    0    0  501    0  0.00000000000E+00 -0.00000000000E+00 -0.15330119271E+04  0.15330119271E+04  0.00000000000E+00 0. -1.
         24    2    1    2    0    0 -0.36834221415E+03 -0.65878876299E+03 -0.63457123987E+03  0.98930630666E+03  0.79797800527E+02 0.  0.
        254    2    1    2    0    0  0.36834221415E+03  0.65878876299E+03 -0.29372374658E+03  0.11484225610E+04  0.81420029376E+03 0.  0.
         23    2    4    4    0    0  0.43087133659E+03  0.13990885931E+03  0.11679339820E+03  0.47768826602E+03  0.96544207570E+02 0.  0.
         23    2    4    4    0    0 -0.62529122447E+02  0.51887990368E+03 -0.41051714478E+03  0.67073429499E+03  0.90630694162E+02 0.  0.
          4    1    3    3  502    0 -0.35493415511E+03 -0.65399365273E+03 -0.61658661107E+03  0.96636690818E+03  0.00000000000E+00 0. -1.
         -3    1    3    3    0  502 -0.13408059039E+02 -0.47951102542E+01 -0.17984628800E+02  0.22939398480E+02  0.00000000000E+00 0.  1.
         13    1    5    5    0    0  0.38344573483E+03  0.15401097749E+03  0.11103074456E+03  0.42787596215E+03  0.00000000000E+00 0. -1.
        -13    1    5    5    0    0  0.47425601761E+02 -0.14102118177E+02  0.57626536374E+01  0.49812303866E+02  0.00000000000E+00 0.  1.
          3    1    6    6  503    0 -0.59703495573E+02  0.49811647256E+03 -0.41276259501E+03  0.64965951657E+03  0.00000000000E+00 0. -1.
         -3    1    6    6    0  503 -0.28256268735E+01  0.20763431112E+02  0.22454502354E+01  0.21074778422E+02  0.00000000000E+00 0.  1.
<mgrwt>
<rscale>  0 0.19256565E+04</rscale>
<asrwt>0</asrwt>
<pdfrwt beam="1">  1        2 0.23584799E+00 0.19256565E+04</pdfrwt>
<pdfrwt beam="2">  1       -3 0.93033375E-01 0.19256565E+04</pdfrwt>
<totfact> 0.74781500E+00</totfact>
</mgrwt>
</event>
<event>
12    7  0.1857704E-007  0.1334694E+04  0.7818608E-02  0.9002496E-01
          2   -1    0    0  501    0  0.00000000000E+00  0.00000000000E+00  0.67932222203E+03  0.67932222203E+03  0.00000000000E+00 0. -1.
         -1   -1    0    0    0  501 -0.00000000000E+00 -0.00000000000E+00 -0.65558320764E+03  0.65558320764E+03  0.00000000000E+00 0.  1.
         24    2    1    2    0    0 -0.49205691908E+02 -0.40129064729E+02  0.35868002829E+03  0.37273018616E+03  0.79024597594E+02 0.  0.
        254    2    1    2    0    0  0.49205691908E+02  0.40129064729E+02 -0.33494101390E+03  0.96217524351E+03  0.89975784213E+03 0.  0.
         23    2    4    4    0    0 -0.18655679915E+03 -0.21639949996E+03 -0.48570046928E+03  0.57205434727E+03  0.98534498951E+02 0.  0.
         23    2    4    4    0    0  0.23576249105E+03  0.25652856469E+03  0.15075945538E+03  0.39012089624E+03  0.89861246426E+02 0.  0.
          2    1    3    3  502    0 -0.28468553829E+02 -0.37091041331E+02  0.34394908875E+03  0.34711263238E+03  0.00000000000E+00 0. -1.
         -1    1    3    3    0  502 -0.20737138079E+02 -0.30380233978E+01  0.14730939543E+02  0.25617553780E+02  0.00000000000E+00 0.  1.
         13    1    5    5    0    0 -0.15062247647E+03 -0.17374586684E+03 -0.29895886738E+03  0.37716198250E+03  0.00000000000E+00 0. -1.
        -13    1    5    5    0    0 -0.35934322677E+02 -0.42653633121E+02 -0.18674160190E+03  0.19489236477E+03  0.00000000000E+00 0.  1.
          2    1    6    6  503    0  0.94189435226E+02  0.15467323993E+03  0.10686893984E+03  0.21027703431E+03  0.00000000000E+00 0. -1.
         -2    1    6    6    0  503  0.14157305583E+03  0.10185532476E+03  0.43890515542E+02  0.17984386193E+03  0.00000000000E+00 0.  1.
<mgrwt>
<rscale>  0 0.13346943E+04</rscale>
<asrwt>0</asrwt>
<pdfrwt beam="1">  1        2 0.10451111E+00 0.13346943E+04</pdfrwt>
<pdfrwt beam="2">  1       -1 0.10085896E+00 0.13346943E+04</pdfrwt>
<totfact> 0.44444347E+01</totfact>
</mgrwt>
</event>
<event>
12    7  0.1857704E-007  0.2150241E+04  0.7818608E-02  0.8539429E-01
          2   -1    0    0  501    0  0.00000000000E+00  0.00000000000E+00  0.46250814141E+03  0.46250814141E+03  0.00000000000E+00 0. -1.
         -1   -1    0    0    0  501 -0.00000000000E+00 -0.00000000000E+00 -0.24991648819E+04  0.24991648819E+04  0.00000000000E+00 0.  1.
         24    2    1    2    0    0  0.82397008311E+03  0.19995507945E+03 -0.11365339394E+04  0.14204596197E+04  0.84186721242E+02 0.  0.
        254    2    1    2    0    0 -0.82397008311E+03 -0.19995507945E+03 -0.90012280109E+03  0.15412134037E+04  0.91989617180E+03 0.  0.
         23    2    4    4    0    0 -0.24447400940E+03 -0.13396747805E+03  0.15569442357E+03  0.33168474642E+03  0.89772997243E+02 0.  0.
         23    2    4    4    0    0 -0.57949607372E+03 -0.65987601409E+02 -0.10558172247E+04  0.12095286572E+04  0.89663246590E+02 0.  0.
          4    1    3    3  502    0  0.17679583118E+03  0.84926320305E+01 -0.22534855229E+03  0.28654992713E+03  0.00000000000E+00 0. -1.
         -3    1    3    3    0  502  0.64717425193E+03  0.19146244742E+03 -0.91118538712E+03  0.11339096925E+04  0.00000000000E+00 0.  1.
         13    1    5    5    0    0 -0.19742960048E+03 -0.77322669378E+02  0.81502733856E+02  0.22715619730E+03  0.00000000000E+00 0.  1.
        -13    1    5    5    0    0 -0.47044408918E+02 -0.56644808667E+02  0.74191689713E+02  0.10452854912E+03  0.00000000000E+00 0. -1.
          1    1    6    6  503    0 -0.77038145646E+02  0.14341288936E+02 -0.10377684860E+03  0.13003915856E+03  0.00000000000E+00 0. -1.
         -1    1    6    6    0  503 -0.50245792807E+03 -0.80328890345E+02 -0.95204037606E+03  0.10794894987E+04  0.00000000000E+00 0.  1.
<mgrwt>
<rscale>  0 0.21502410E+04</rscale>
<asrwt>0</asrwt>
<pdfrwt beam="1">  1        2 0.71155098E-01 0.21502410E+04</pdfrwt>
<pdfrwt beam="2">  1       -1 0.38448691E+00 0.21502410E+04</pdfrwt>
<totfact> 0.64530871E-01</totfact>
</mgrwt>
</event>
<event>
12    7  0.1857704E-007  0.1898236E+04  0.7818608E-02  0.8655735E-01
         -1   -1    0    0    0  501 -0.00000000000E+00  0.00000000000E+00  0.11662887153E+04  0.11662887153E+04  0.00000000000E+00 0.  1.
          2   -1    0    0  501    0  0.00000000000E+00 -0.00000000000E+00 -0.77238611803E+03  0.77238611803E+03  0.00000000000E+00 0. -1.
         24    2    1    2    0    0  0.51603663812E+03  0.50477222456E+03  0.26124381536E+03  0.77180880541E+03  0.79697493542E+02 0.  0.
        254    2    1    2    0    0 -0.51603663812E+03 -0.50477222456E+03  0.13265878191E+03  0.11668660279E+04  0.90713238512E+03 0.  0.
         23    2    4    4    0    0 -0.67112333911E+03 -0.18057620842E+03  0.29708685471E+03  0.76166378930E+03  0.94110707842E+02 0.  0.
         23    2    4    4    0    0  0.15508670099E+03 -0.32419601614E+03 -0.16442807281E+03  0.40520223863E+03  0.89427743751E+02 0.  0.
          2    1    3    3  502    0  0.36239954692E+03  0.36515988608E+03  0.22301057296E+03  0.56072175779E+03  0.00000000000E+00 0. -1.
         -1    1    3    3    0  502  0.15363709120E+03  0.13961233848E+03  0.38233242403E+02  0.21108704762E+03  0.00000000000E+00 0.  1.
         13    1    5    5    0    0 -0.66692896805E+03 -0.18278826195E+03  0.28369073758E+03  0.74745316356E+03  0.00000000000E+00 0.  1.
        -13    1    5    5    0    0 -0.41943710666E+01  0.22120535335E+01  0.13396117137E+02  0.14210625736E+02  0.00000000000E+00 0. -1.
          3    1    6    6  503    0  0.33951462706E+02 -0.10996343758E+03 -0.11989964547E+02  0.11570833451E+03  0.00000000000E+00 0. -1.
         -3    1    6    6    0  503  0.12113523829E+03 -0.21423257856E+03 -0.15243810826E+03  0.28949390412E+03  0.00000000000E+00 0.  1.
<mgrwt>
<rscale>  0 0.18982362E+04</rscale>
<asrwt>0</asrwt>
<pdfrwt beam="1">  1        2 0.11882863E+00 0.18982362E+04</pdfrwt>
<pdfrwt beam="2">  1       -1 0.17942903E+00 0.18982362E+04</pdfrwt>
<totfact> 0.81053918E+00</totfact>
</mgrwt>
</event>
<event>
12    7  0.1857704E-007  0.2858636E+04  0.7818608E-02  0.8285292E-01
          2   -1    0    0  501    0  0.00000000000E+00  0.00000000000E+00  0.15605450185E+04  0.15605450185E+04  0.00000000000E+00 0. -1.
         -1   -1    0    0    0  501 -0.00000000000E+00 -0.00000000000E+00 -0.13091259223E+04  0.13091259223E+04  0.00000000000E+00 0.  1.
         24    2    1    2    0    0 -0.27538138800E+03 -0.81641107628E+03 -0.85468003108E+03  0.12159949181E+04  0.76182222566E+02 0.  0.
        254    2    1    2    0    0  0.27538138800E+03  0.81641107628E+03  0.11060991273E+04  0.16536760227E+04  0.87682789318E+03 0.  0.
         23    2    4    4    0    0  0.33021074652E+03  0.13654430159E+03  0.22387487181E+02  0.36982618862E+03  0.92664593001E+02 0.  0.
         23    2    4    4    0    0 -0.54829358515E+02  0.67986677469E+03  0.10837116401E+04  0.12838498341E+04  0.92813725263E+02 0.  0.
          2    1    3    3  502    0 -0.64715426096E+02 -0.29260766315E+03 -0.31997423450E+03  0.43839575916E+03  0.00000000000E+00 0. -1.
         -1    1    3    3    0  502 -0.21066596191E+03 -0.52380341313E+03 -0.53470579658E+03  0.77759915896E+03  0.00000000000E+00 0.  1.
         13    1    5    5    0    0  0.13616879145E+03  0.10556698714E+03  0.18513021217E+02  0.17328895086E+03  0.00000000000E+00 0. -1.
        -13    1    5    5    0    0  0.19404195507E+03  0.30977314449E+02  0.38744659642E+01  0.19653723776E+03  0.00000000000E+00 0.  1.
          2    1    6    6  503    0  0.82734253487E+01  0.80945486504E+02  0.18392748610E+03  0.20112170817E+03  0.00000000000E+00 0. -1.
         -2    1    6    6    0  503 -0.63102783863E+02  0.59892128819E+03  0.89978415404E+03  0.10827281259E+04  0.00000000000E+00 0.  1.
<mgrwt>
<rscale>  0 0.28586360E+04</rscale>
<asrwt>0</asrwt>
<pdfrwt beam="1">  1        2 0.24008385E+00 0.28586360E+04</pdfrwt>
<pdfrwt beam="2">  1       -1 0.20140399E+00 0.28586360E+04</pdfrwt>
<totfact> 0.17031128E+00</totfact>
</mgrwt>
</event>
<event>
12    7  0.1857704E-007  0.1560239E+04  0.7818608E-02  0.8845354E-01
          2   -1    0    0  501    0  0.00000000000E+00  0.00000000000E+00  0.46440596590E+03  0.46440596590E+03  0.00000000000E+00 0. -1.
         -1   -1    0    0    0  501 -0.00000000000E+00 -0.00000000000E+00 -0.13104622969E+04  0.13104622969E+04  0.00000000000E+00 0.  1.
         24    2    1    2    0    0 -0.47797513914E+03 -0.24161652330E+03 -0.44176994409E+03  0.69890359426E+03  0.80416245866E+02 0.  0.
        254    2    1    2    0    0  0.47797513914E+03  0.24161652330E+03 -0.40428638694E+03  0.10759646686E+04  0.84107889486E+03 0.  0.
         23    2    4    4    0    0  0.10773869706E+03  0.43410756888E+03 -0.45663580684E+03  0.64526924546E+03  0.88312687870E+02 0.  0.
         23    2    4    4    0    0  0.37023644209E+03 -0.19249104558E+03  0.52349419901E+02  0.43069542312E+03  0.92899192977E+02 0.  0.
          2    1    3    3  502    0 -0.46262613912E+03 -0.21346495573E+03 -0.41674323204E+03  0.65822880017E+03  0.00000000000E+00 0. -1.
         -1    1    3    3    0  502 -0.15349000025E+02 -0.28151567571E+02 -0.25026712051E+02  0.40674794094E+02  0.00000000000E+00 0.  1.
         13    1    5    5    0    0  0.97318806064E+00  0.42523094894E+01  0.42277019873E+01  0.60747588502E+01  0.00000000000E+00 0. -1.
        -13    1    5    5    0    0  0.10676550900E+03  0.42985525939E+03 -0.46086350883E+03  0.63919448661E+03  0.00000000000E+00 0.  1.
          3    1    6    6  503    0  0.76583077717E+02 -0.65915671861E+02 -0.19606254997E+02  0.10292836744E+03  0.00000000000E+00 0. -1.
         -3    1    6    6    0  503  0.29365336437E+03 -0.12657537372E+03  0.71955674897E+02  0.32776705568E+03  0.00000000000E+00 0.  1.
<mgrwt>
<rscale>  0 0.15602391E+04</rscale>
<asrwt>0</asrwt>
<pdfrwt beam="1">  1        2 0.71447073E-01 0.15602391E+04</pdfrwt>
<pdfrwt beam="2">  1       -1 0.20160958E+00 0.15602391E+04</pdfrwt>
<totfact> 0.10820709E+01</totfact>
</mgrwt>
</event>
<event>
12    7  0.1857704E-007  0.1947971E+04  0.7818608E-02  0.8631340E-01
         -1   -1    0    0    0  501 -0.00000000000E+00  0.00000000000E+00  0.80583531894E+03  0.80583531894E+03  0.00000000000E+00 0.  1.
          2   -1    0    0  501    0  0.00000000000E+00 -0.00000000000E+00 -0.11772231077E+04  0.11772231077E+04  0.00000000000E+00 0. -1.
         24    2    1    2    0    0 -0.99590837193E+02 -0.50914981534E+03 -0.71848387173E+03  0.88971061083E+03  0.78829104849E+02 0.  0.
        254    2    1    2    0    0  0.99590837193E+02  0.50914981534E+03  0.34709608294E+03  0.10933478159E+04  0.89765354471E+03 0.  0.
         23    2    4    4    0    0  0.30705145393E+03 -0.83926397871E+02  0.31553236304E+03  0.45774626340E+03  0.92987815894E+02 0.  0.
         23    2    4    4    0    0 -0.20746061674E+03  0.59307621321E+03  0.31563719892E+02  0.63560155246E+03  0.90629812370E+02 0.  0.
          4    1    3    3  502    0 -0.95958433542E+02 -0.44882066983E+03 -0.58806450249E+03  0.74596774309E+03  0.00000000000E+00 0. -1.
         -3    1    3    3    0  502 -0.36324036513E+01 -0.60329145511E+02 -0.13041936924E+03  0.14374286774E+03  0.00000000000E+00 0.  1.
         13    1    5    5    0    0  0.23229243550E+03 -0.57881864512E+02  0.17531646969E+03  0.29672537871E+03  0.00000000000E+00 0.  1.
        -13    1    5    5    0    0  0.74759018438E+02 -0.26044533359E+02  0.14021589335E+03  0.16102088469E+03  0.00000000000E+00 0. -1.
          3    1    6    6  503    0 -0.18686192030E+02  0.16899554831E+03  0.20649294901E+02  0.17127481572E+03  0.00000000000E+00 0. -1.
         -3    1    6    6    0  503 -0.18877442471E+03  0.42408066491E+03  0.10914424991E+02  0.46432673673E+03  0.00000000000E+00 0.  1.
<mgrwt>
<rscale>  0 0.19479712E+04</rscale>
<asrwt>0</asrwt>
<pdfrwt beam="1">  1        2 0.18111125E+00 0.19479712E+04</pdfrwt>
<pdfrwt beam="2">  1       -1 0.12397466E+00 0.19479712E+04</pdfrwt>
<totfact> 0.11879218E+01</totfact>
</mgrwt>
</event>
<event>
12    7  0.1857704E-007  0.1645218E+04  0.7818608E-02  0.8793240E-01
         -1   -1    0    0    0  501 -0.00000000000E+00  0.00000000000E+00  0.28997352816E+03  0.28997352816E+03  0.00000000000E+00 0.  1.
          2   -1    0    0  501    0  0.00000000000E+00 -0.00000000000E+00 -0.23336117830E+04  0.23336117830E+04  0.00000000000E+00 0. -1.
         24    2    1    2    0    0 -0.47290807463E+03 -0.26910039589E+03 -0.40241278317E+03  0.68139239409E+03  0.79388138585E+02 0.  0.
        254    2    1    2    0    0  0.47290807463E+03  0.26910039589E+03 -0.16412254717E+04  0.19421929171E+04  0.88455367737E+03 0.  0.
         23    2    4    4    0    0  0.48847804551E+03 -0.17576580685E+03 -0.55831037092E+03  0.76772358504E+03  0.90468850698E+02 0.  0.
         23    2    4    4    0    0 -0.15569970880E+02  0.44486620274E+03 -0.10829151008E+04  0.11744693320E+04  0.92329486699E+02 0.  0.
          2    1    3    3  502    0 -0.28048055315E+03 -0.13311768678E+03 -0.18889833794E+03  0.36341744772E+03  0.00000000000E+00 0. -1.
         -3    1    3    3    0  502 -0.19242752148E+03 -0.13598270911E+03 -0.21351444522E+03  0.31797494637E+03  0.00000000000E+00 0.  1.
         13    1    5    5    0    0  0.41104179496E+03 -0.15626820227E+03 -0.42042707473E+03  0.60838641784E+03  0.00000000000E+00 0.  1.
        -13    1    5    5    0    0  0.77436250548E+02 -0.19497604577E+02 -0.13788329618E+03  0.15933716719E+03  0.00000000000E+00 0. -1.
          1    1    6    6  503    0 -0.11762924480E+02  0.80344712589E+01 -0.15138641564E+02  0.20786957188E+02  0.00000000000E+00 0. -1.
         -1    1    6    6    0  503 -0.38070464005E+01  0.43683173149E+03 -0.10677764592E+04  0.11536823749E+04  0.00000000000E+00 0.  1.
<mgrwt>
<rscale>  0 0.16452181E+04</rscale>
<asrwt>0</asrwt>
<pdfrwt beam="1">  1        2 0.35901720E+00 0.16452181E+04</pdfrwt>
<pdfrwt beam="2">  1       -1 0.44611312E-01 0.16452181E+04</pdfrwt>
<totfact> 0.23526986E+01</totfact>
</mgrwt>
</event>
<event>
12    7  0.1857704E-007  0.1604013E+04  0.7818608E-02  0.8818087E-01
         -1   -1    0    0    0  501 -0.00000000000E+00  0.00000000000E+00  0.43718435716E+03  0.43718435716E+03  0.00000000000E+00 0.  1.
          2   -1    0    0  501    0  0.00000000000E+00 -0.00000000000E+00 -0.14712655349E+04  0.14712655349E+04  0.00000000000E+00 0. -1.
         24    2    1    2    0    0  0.50201610282E+03  0.25401183399E+02 -0.94848957509E+02  0.51789251830E+03  0.80937927830E+02 0.  0.
        254    2    1    2    0    0 -0.50201610282E+03 -0.25401183399E+02 -0.93923222025E+03  0.13905573738E+04  0.89377136819E+03 0.  0.
         23    2    4    4    0    0 -0.69288851036E+03 -0.22559602371E+03 -0.67354005522E+03  0.99688881333E+03  0.95619278688E+02 0.  0.
         23    2    4    4    0    0  0.19087240754E+03  0.20019484031E+03 -0.26569216503E+03  0.39366856045E+03  0.88726314469E+02 0.  0.
          4    1    3    3  502    0  0.25618958856E+03 -0.15269947988E+02 -0.18594073808E+02  0.25731695665E+03  0.00000000000E+00 0. -1.
         -3    1    3    3    0  502  0.24582651427E+03  0.40671131387E+02 -0.76254883702E+02  0.26057556166E+03  0.00000000000E+00 0.  1.
         13    1    5    5    0    0 -0.24399648005E+03 -0.55822138379E+02 -0.17869663206E+03  0.30754329731E+03  0.00000000000E+00 0. -1.
        -13    1    5    5    0    0 -0.44889203031E+03 -0.16977388533E+03 -0.49484342316E+03  0.68934551602E+03  0.00000000000E+00 0.  1.
          1    1    6    6  503    0  0.33891824469E+01 -0.58694680977E+01  0.22471469501E+01  0.71405099834E+01  0.00000000000E+00 0. -1.
         -1    1    6    6    0  503  0.18748322509E+03  0.20606430841E+03 -0.26793931198E+03  0.38652805047E+03  0.00000000000E+00 0.  1.
<mgrwt>
<rscale>  0 0.16040128E+04</rscale>
<asrwt>0</asrwt>
<pdfrwt beam="1">  1        2 0.22634854E+00 0.16040128E+04</pdfrwt>
<pdfrwt beam="2">  1       -1 0.67259133E-01 0.16040128E+04</pdfrwt>
<totfact> 0.32233598E+01</totfact>
</mgrwt>
</event>
<event>
12    7  0.1857704E-007  0.2116178E+04  0.7818608E-02  0.8554150E-01
          2   -1    0    0  501    0  0.00000000000E+00  0.00000000000E+00  0.11937381390E+04  0.11937381390E+04  0.00000000000E+00 0. -1.
         -1   -1    0    0    0  501 -0.00000000000E+00 -0.00000000000E+00 -0.93785416418E+03  0.93785416418E+03  0.00000000000E+00 0.  1.
         24    2    1    2    0    0 -0.55986293301E+03  0.65584420095E+03  0.43761159409E+02  0.86761879168E+03  0.85259655939E+02 0.  0.
        254    2    1    2    0    0  0.55986293301E+03 -0.65584420095E+03  0.21212281539E+03  0.12639735115E+04  0.89947475185E+03 0.  0.
         23    2    4    4    0    0  0.98001619642E+02 -0.69616187969E+03  0.32079261240E+03  0.77824648260E+03  0.92271378651E+02 0.  0.
         23    2    4    4    0    0  0.46186131336E+03  0.40317678733E+02 -0.10866979702E+03  0.48572702888E+03  0.95813536622E+02 0.  0.
          2    1    3    3  502    0 -0.89777211332E+02  0.13468908168E+03 -0.18983708189E+02  0.16297692345E+03  0.00000000000E+00 0. -1.
         -1    1    3    3    0  502 -0.47008572167E+03  0.52115511927E+03  0.62744867598E+02  0.70464186824E+03  0.00000000000E+00 0.  1.
         13    1    5    5    0    0  0.10078976059E+03 -0.67095185400E+03  0.32538637025E+03  0.75247010318E+03  0.00000000000E+00 0. -1.
        -13    1    5    5    0    0 -0.27881409511E+01 -0.25210025681E+02 -0.45937578420E+01  0.25776379418E+02  0.00000000000E+00 0.  1.
          1    1    6    6  503    0  0.42429982519E+03  0.60648655862E+02 -0.85220436754E+02  0.43700243015E+03  0.00000000000E+00 0. -1.
         -1    1    6    6    0  503  0.37561488171E+02 -0.20330977129E+02 -0.23449360262E+02  0.48724598730E+02  0.00000000000E+00 0.  1.
<mgrwt>
<rscale>  0 0.21161780E+04</rscale>
<asrwt>0</asrwt>
<pdfrwt beam="1">  1        2 0.18365202E+00 0.21161780E+04</pdfrwt>
<pdfrwt beam="2">  1       -1 0.14428526E+00 0.21161780E+04</pdfrwt>
<totfact> 0.77610172E+00</totfact>
</mgrwt>
</event>
<event>
12    7  0.1857704E-007  0.1821994E+04  0.7818608E-02  0.8694690E-01
          2   -1    0    0  501    0  0.00000000000E+00  0.00000000000E+00  0.11507601552E+04  0.11507601552E+04  0.00000000000E+00 0. -1.
         -1   -1    0    0    0  501 -0.00000000000E+00 -0.00000000000E+00 -0.72118909699E+03  0.72118909699E+03  0.00000000000E+00 0.  1.
         24    2    1    2    0    0  0.47167422321E+03 -0.99673224736E+02  0.66478221747E+03  0.82516259400E+03  0.80910971457E+02 0.  0.
        254    2    1    2    0    0 -0.47167422321E+03  0.99673224736E+02 -0.23521115929E+03  0.10467866582E+04  0.89890305021E+03 0.  0.
         23    2    4    4    0    0 -0.20866482209E+03 -0.20042741200E+03  0.26332259782E+03  0.40175578282E+03  0.91415332679E+02 0.  0.
         23    2    4    4    0    0 -0.26300940112E+03  0.30010063673E+03 -0.49853375711E+03  0.64503087534E+03  0.91074617334E+02 0.  0.
          4    1    3    3  502    0  0.17606459018E+03 -0.41466810361E+02  0.18582666831E+03  0.25932563879E+03  0.00000000000E+00 0. -1.
         -3    1    3    3    0  502  0.29560963303E+03 -0.58206414375E+02  0.47895554916E+03  0.56583695522E+03  0.00000000000E+00 0.  1.
         13    1    5    5    0    0 -0.21424582451E+03 -0.18800660361E+03  0.23172028296E+03  0.36734458735E+03  0.00000000000E+00 0. -1.
        -13    1    5    5    0    0  0.55810024210E+01 -0.12420808385E+02  0.31602314861E+02  0.34411195467E+02  0.00000000000E+00 0.  1.
          3    1    6    6  503    0 -0.65232304433E+02  0.14088907279E+03 -0.19761473425E+03  0.25130970448E+03  0.00000000000E+00 0. -1.
         -3    1    6    6    0  503 -0.19777709668E+03  0.15921156394E+03 -0.30091902286E+03  0.39372117086E+03  0.00000000000E+00 0.  1.
<mgrwt>
<rscale>  0 0.18219942E+04</rscale>
<asrwt>0</asrwt>
<pdfrwt beam="1">  1        2 0.17704002E+00 0.18219942E+04</pdfrwt>
<pdfrwt beam="2">  1       -1 0.11095217E+00 0.18219942E+04</pdfrwt>
<totfact> 0.16299827E+01</totfact>
</mgrwt>
</event>
<event>
12    7  0.1857704E-007  0.4620485E+04  0.7818608E-02  0.7889876E-01
          2   -1    0    0  501    0  0.00000000000E+00  0.00000000000E+00  0.21967751874E+04  0.21967751874E+04  0.00000000000E+00 0. -1.
         -1   -1    0    0    0  501 -0.00000000000E+00 -0.00000000000E+00 -0.24295702015E+04  0.24295702015E+04  0.00000000000E+00 0.  1.
         24    2    1    2    0    0  0.20721533545E+04  0.60304096251E+03  0.41601346096E+03  0.21992566655E+04  0.78643207670E+02 0.  0.
        254    2    1    2    0    0 -0.20721533545E+04 -0.60304096251E+03 -0.64880847508E+03  0.24270887234E+04  0.90129313051E+03 0.  0.
         23    2    4    4    0    0 -0.14689689193E+04 -0.82557154299E+03 -0.51075371904E+03  0.17631623229E+04  0.91836577068E+02 0.  0.
         23    2    4    4    0    0 -0.60318443515E+03  0.22253058048E+03 -0.13805475604E+03  0.66392640051E+03  0.91585083809E+02 0.  0.
          4    1    3    3  502    0  0.12066343301E+04  0.31109725430E+03  0.24562744425E+03  0.12700711592E+04  0.00000000000E+00 0. -1.
         -3    1    3    3    0  502  0.86551902439E+03  0.29194370821E+03  0.17038601671E+03  0.92918550625E+03  0.00000000000E+00 0.  1.
         13    1    5    5    0    0 -0.13523555327E+03 -0.54169734951E+02 -0.26220012148E+02  0.14802197165E+03  0.00000000000E+00 0.  1.
        -13    1    5    5    0    0 -0.13337333660E+04 -0.77140180804E+03 -0.48453370689E+03  0.16151403513E+04  0.00000000000E+00 0. -1.
          3    1    6    6  503    0 -0.55542671784E+03  0.18633394388E+03 -0.10402392943E+03  0.59501273552E+03  0.00000000000E+00 0. -1.
         -3    1    6    6    0  503 -0.47757717310E+02  0.36196636593E+02 -0.34030826606E+02  0.68913664993E+02  0.00000000000E+00 0.  1.
<mgrwt>
<rscale>  0 0.46204846E+04</rscale>
<asrwt>0</asrwt>
<pdfrwt beam="1">  1        2 0.33796541E+00 0.46204846E+04</pdfrwt>
<pdfrwt beam="2">  1       -1 0.37378003E+00 0.46204846E+04</pdfrwt>
<totfact> 0.47714844E-02</totfact>
</mgrwt>
</event>
<event>
12    7  0.1857704E-007  0.1513329E+04  0.7818608E-02  0.8875637E-01
          2   -1    0    0  501    0  0.00000000000E+00  0.00000000000E+00  0.73114307636E+03  0.73114307636E+03  0.00000000000E+00 0. -1.
         -1   -1    0    0    0  501 -0.00000000000E+00 -0.00000000000E+00 -0.78307720307E+03  0.78307720307E+03  0.00000000000E+00 0.  1.
         24    2    1    2    0    0  0.66340967891E+02 -0.11809389317E+03  0.45359735827E+03  0.47998411609E+03  0.79289953041E+02 0.  0.
        254    2    1    2    0    0 -0.66340967891E+02  0.11809389317E+03 -0.50553148498E+03  0.10342361633E+04  0.89203983522E+03 0.  0.
         23    2    4    4    0    0  0.19420622943E+03  0.25519715814E+03  0.10652883020E+03  0.34908982130E+03  0.87599444076E+02 0.  0.
         23    2    4    4    0    0 -0.26054719732E+03 -0.13710326497E+03 -0.61206031518E+03  0.68514634203E+03  0.90141740004E+02 0.  0.
          4    1    3    3  502    0  0.65794504105E+02 -0.11875026732E+03  0.33608774395E+03  0.36247139803E+03  0.00000000000E+00 0. -1.
         -3    1    3    3    0  502  0.54646378574E+00  0.65637414986E+00  0.11750961431E+03  0.11751271806E+03  0.00000000000E+00 0.  1.
         13    1    5    5    0    0  0.53513239984E+02  0.12411315275E+03  0.14581949825E+02  0.13594254227E+03  0.00000000000E+00 0. -1.
        -13    1    5    5    0    0  0.14069298944E+03  0.13108400539E+03  0.91946880371E+02  0.21314727903E+03  0.00000000000E+00 0.  1.
          2    1    6    6  503    0 -0.17330316129E+03 -0.10970055346E+03 -0.32915749148E+03  0.38783095717E+03  0.00000000000E+00 0. -1.
         -2    1    6    6    0  503 -0.87244036028E+02 -0.27402711515E+02 -0.28290282370E+03  0.29731538487E+03  0.00000000000E+00 0.  1.
<mgrwt>
<rscale>  0 0.15133294E+04</rscale>
<asrwt>0</asrwt>
<pdfrwt beam="1">  1        2 0.11248355E+00 0.15133294E+04</pdfrwt>
<pdfrwt beam="2">  1       -1 0.12047342E+00 0.15133294E+04</pdfrwt>
<totfact> 0.26200668E+01</totfact>
</mgrwt>
</event>
<event>
12    7  0.1857704E-007  0.2091856E+04  0.7818608E-02  0.8564839E-01
          2   -1    0    0  501    0  0.00000000000E+00  0.00000000000E+00  0.78851477698E+03  0.78851477698E+03  0.00000000000E+00 0. -1.
         -1   -1    0    0    0  501 -0.00000000000E+00 -0.00000000000E+00 -0.13873750147E+04  0.13873750147E+04  0.00000000000E+00 0.  1.
         24    2    1    2    0    0 -0.19942566322E+03 -0.69570441355E+03  0.22107849410E+03  0.76082338024E+03  0.78748264695E+02 0.  0.
        254    2    1    2    0    0  0.19942566322E+03  0.69570441355E+03 -0.81993873180E+03  0.14150664114E+04  0.89796336153E+03 0.  0.
         23    2    4    4    0    0 -0.68533397049E+02  0.28591204780E+02 -0.66337904909E+03  0.67327221138E+03  0.87803327646E+02 0.  0.
         23    2    4    4    0    0  0.26795906027E+03  0.66711320877E+03 -0.15655968271E+03  0.74179420005E+03  0.94369537874E+02 0.  0.
          2    1    3    3  502    0 -0.14417066256E+03 -0.45940327412E+03  0.10981962473E+03  0.49385918863E+03  0.00000000000E+00 0. -1.
         -1    1    3    3    0  502 -0.55255000668E+02 -0.23630113943E+03  0.11125886937E+03  0.26696419162E+03  0.00000000000E+00 0.  1.
         13    1    5    5    0    0 -0.43921642029E+02  0.58074765906E+02 -0.50930378590E+03  0.51448239562E+03  0.00000000000E+00 0. -1.
        -13    1    5    5    0    0 -0.24611755020E+02 -0.29483561125E+02 -0.15407526319E+03  0.15878981576E+03  0.00000000000E+00 0.  1.
          2    1    6    6  503    0  0.31216202803E+02  0.12119870221E+03  0.48665009755E+01  0.12524879068E+03  0.00000000000E+00 0. -1.
         -2    1    6    6    0  503  0.23674285747E+03  0.54591450655E+03 -0.16142618369E+03  0.61654540937E+03  0.00000000000E+00 0.  1.
<mgrwt>
<rscale>  0 0.20918563E+04</rscale>
<asrwt>0</asrwt>
<pdfrwt beam="1">  1        2 0.12130997E+00 0.20918563E+04</pdfrwt>
<pdfrwt beam="2">  1       -1 0.21344231E+00 0.20918563E+04</pdfrwt>
<totfact> 0.45014816E+00</totfact>
</mgrwt>
</event>
<event>
12    7  0.1857704E-007  0.1686270E+04  0.7818608E-02  0.8769234E-01
         -1   -1    0    0    0  501 -0.00000000000E+00  0.00000000000E+00  0.47166959933E+03  0.47166959933E+03  0.00000000000E+00 0.  1.
          2   -1    0    0  501    0  0.00000000000E+00 -0.00000000000E+00 -0.15071504472E+04  0.15071504472E+04  0.00000000000E+00 0. -1.
         24    2    1    2    0    0 -0.13461969122E+03  0.29229368024E+02  0.31194721020E+03  0.34997729096E+03  0.78716103956E+02 0.  0.
        254    2    1    2    0    0  0.13461969122E+03 -0.29229368024E+02 -0.13474280580E+04  0.16288427555E+04  0.90475937877E+03 0.  0.
         23    2    4    4    0    0  0.32686418854E+03 -0.13910764605E+03 -0.13406229287E+04  0.13899250528E+04  0.91818737043E+02 0.  0.
         23    2    4    4    0    0 -0.19224449732E+03  0.10987827803E+03 -0.68051292775E+01  0.23891770269E+03  0.89466061404E+02 0.  0.
          4    1    3    3  502    0 -0.93081018598E+02 -0.18879669104E+02  0.18007509927E+03  0.20358673657E+03  0.00000000000E+00 0. -1.
         -3    1    3    3    0  502 -0.41538672621E+02  0.48109037128E+02  0.13187211093E+03  0.14639055440E+03  0.00000000000E+00 0.  1.
         13    1    5    5    0    0  0.27561068488E+03 -0.12156697776E+03 -0.12351751919E+04  0.12713762363E+04  0.00000000000E+00 0. -1.
        -13    1    5    5    0    0  0.51253503660E+02 -0.17540668288E+02 -0.10544773690E+03  0.11854881652E+03  0.00000000000E+00 0.  1.
          1    1    6    6  503    0 -0.13532698076E+03  0.98754940017E+02  0.30051321505E+02  0.17020285492E+03  0.00000000000E+00 0. -1.
         -1    1    6    6    0  503 -0.56917516561E+02  0.11123338011E+02 -0.36856450782E+02  0.68714847771E+02  0.00000000000E+00 0.  1.
<mgrwt>
<rscale>  0 0.16862705E+04</rscale>
<asrwt>0</asrwt>
<pdfrwt beam="1">  1        2 0.23186930E+00 0.16862705E+04</pdfrwt>
<pdfrwt beam="2">  1       -1 0.72564554E-01 0.16862705E+04</pdfrwt>
<totfact> 0.26145789E+01</totfact>
</mgrwt>
</event>
<event>
12    7  0.1857704E-007  0.1989318E+04  0.7818608E-02  0.8611631E-01
          2   -1    0    0  501    0  0.00000000000E+00  0.00000000000E+00  0.14013222948E+04  0.14013222948E+04  0.00000000000E+00 0. -1.
         -1   -1    0    0    0  501 -0.00000000000E+00 -0.00000000000E+00 -0.70600926037E+03  0.70600926037E+03  0.00000000000E+00 0.  1.
         24    2    1    2    0    0 -0.51906890204E+03  0.20526555239E+03  0.85910152596E+03  0.10276727933E+04  0.80557223073E+02 0.  0.
        254    2    1    2    0    0  0.51906890204E+03 -0.20526555239E+03 -0.16378849158E+03  0.10796587618E+04  0.90954378667E+03 0.  0.
         23    2    4    4    0    0  0.57165284403E+03  0.21873813738E+03 -0.17029481478E+03  0.64192486642E+03  0.91836067804E+02 0.  0.
         23    2    4    4    0    0 -0.52583941996E+02 -0.42400368977E+03  0.65063232007E+01  0.43773389537E+03  0.94997005290E+02 0.  0.
          4    1    3    3  502    0 -0.43755794216E+03  0.19135404962E+03  0.77032148254E+03  0.90634900095E+03  0.00000000000E+00 0. -1.
         -3    1    3    3    0  502 -0.81510959876E+02  0.13911502772E+02  0.88780043417E+02  0.12132379238E+03  0.00000000000E+00 0.  1.
         13    1    5    5    0    0  0.41643306395E+03  0.15371861023E+03 -0.16494155778E+03  0.47355213585E+03  0.00000000000E+00 0. -1.
        -13    1    5    5    0    0  0.15521978008E+03  0.65019527158E+02 -0.53532570025E+01  0.16837273058E+03  0.00000000000E+00 0.  1.
          4    1    6    6  503    0  0.16853239241E+02 -0.17385116278E+02 -0.63391814909E+01  0.25029166244E+02  0.00000000000E+00 0.  1.
         -4    1    6    6    0  503 -0.69437181237E+02 -0.40661857350E+03  0.12845504692E+02  0.41270472912E+03  0.00000000000E+00 0. -1.
<mgrwt>
<rscale>  0 0.19893180E+04</rscale>
<asrwt>0</asrwt>
<pdfrwt beam="1">  1        2 0.21558805E+00 0.19893180E+04</pdfrwt>
<pdfrwt beam="2">  1       -1 0.10861681E+00 0.19893180E+04</pdfrwt>
<totfact> 0.12037730E+01</totfact>
</mgrwt>
</event>
<event>
12    7  0.1857704E-007  0.1239023E+04  0.7818608E-02  0.9079369E-01
          2   -1    0    0  501    0  0.00000000000E+00  0.00000000000E+00  0.17555581419E+04  0.17555581419E+04  0.00000000000E+00 0. -1.
         -1   -1    0    0    0  501 -0.00000000000E+00 -0.00000000000E+00 -0.21861678057E+03  0.21861678057E+03  0.00000000000E+00 0.  1.
         24    2    1    2    0    0 -0.17309575490E+03 -0.19343135614E+03  0.10086427604E+03  0.28969626133E+03  0.79827888275E+02 0.  0.
        254    2    1    2    0    0  0.17309575490E+03  0.19343135614E+03  0.14360770853E+04  0.16844786612E+04  0.84129253831E+03 0.  0.
         23    2    4    4    0    0  0.71953593525E+02 -0.28339617809E+03  0.91598478631E+03  0.96574544438E+03  0.90251987402E+02 0.  0.
         23    2    4    4    0    0  0.10114216137E+03  0.47682753423E+03  0.52009229902E+03  0.71873321678E+03  0.92126018019E+02 0.  0.
          2    1    3    3  502    0 -0.44309412755E+02 -0.69099859910E+02  0.70344893527E+02  0.10810420317E+03  0.00000000000E+00 0. -1.
         -1    1    3    3    0  502 -0.12878634214E+03 -0.12433149623E+03  0.30519382513E+02  0.18159205816E+03  0.00000000000E+00 0.  1.
         13    1    5    5    0    0 -0.20717727327E+02 -0.70407977480E+02  0.20123657167E+03  0.21420239330E+03  0.00000000000E+00 0.  1.
        -13    1    5    5    0    0  0.92671320852E+02 -0.21298820061E+03  0.71474821464E+03  0.75154305109E+03  0.00000000000E+00 0. -1.
          4    1    6    6  503    0  0.10939290828E+03  0.31069089707E+03  0.35798239408E+03  0.48646380787E+03  0.00000000000E+00 0.  1.
         -4    1    6    6    0  503 -0.82507469108E+01  0.16613663716E+03  0.16210990494E+03  0.23226940890E+03  0.00000000000E+00 0. -1.
<mgrwt>
<rscale>  0 0.12390230E+04</rscale>
<asrwt>0</asrwt>
<pdfrwt beam="1">  1        2 0.27008586E+00 0.12390230E+04</pdfrwt>
<pdfrwt beam="2">  1       -1 0.33633352E-01 0.12390230E+04</pdfrwt>
<totfact> 0.85344688E+01</totfact>
</mgrwt>
</event>
<event>
12    7  0.1857704E-007  0.1696786E+04  0.7818608E-02  0.8763199E-01
          2   -1    0    0  501    0  0.00000000000E+00  0.00000000000E+00  0.25827714427E+04  0.25827714427E+04  0.00000000000E+00 0. -1.
         -1   -1    0    0    0  501 -0.00000000000E+00 -0.00000000000E+00 -0.27868159687E+03  0.27868159687E+03  0.00000000000E+00 0.  1.
         24    2    1    2    0    0  0.46460503818E+02 -0.60123807715E+03  0.71729957062E+03  0.94081459304E+03  0.83472274679E+02 0.  0.
        254    2    1    2    0    0 -0.46460503818E+02  0.60123807715E+03  0.15867902752E+04  0.19206384465E+04  0.89850033999E+03 0.  0.
         23    2    4    4    0    0  0.22109767954E+03  0.66088160677E+03  0.14242895528E+04  0.15883130018E+04  0.92134573135E+02 0.  0.
         23    2    4    4    0    0 -0.26755818336E+03 -0.59643529615E+02  0.16250072239E+03  0.33232544467E+03  0.94281410094E+02 0.  0.
          2    1    3    3  502    0  0.46768857763E+02 -0.49635443914E+03  0.63597172135E+03  0.80809348820E+03  0.00000000000E+00 0. -1.
         -1    1    3    3    0  502 -0.30835394440E+00 -0.10488363801E+03  0.81327849271E+02  0.13272110485E+03  0.00000000000E+00 0.  1.
         13    1    5    5    0    0  0.16911013387E+03  0.52948022731E+03  0.12108873512E+04  0.13323647120E+04  0.00000000000E+00 0.  1.
        -13    1    5    5    0    0  0.51987545665E+02  0.13140137946E+03  0.21340220159E+03  0.25594828984E+03  0.00000000000E+00 0. -1.
          2    1    6    6  503    0 -0.33590739908E+02 -0.11072791902E+02  0.65485735372E+02  0.74426648892E+02  0.00000000000E+00 0. -1.
         -2    1    6    6    0  503 -0.23396744345E+03 -0.48570737713E+02  0.97014987021E+02  0.25789879578E+03  0.00000000000E+00 0.  1.
<mgrwt>
<rscale>  0 0.16967862E+04</rscale>
<asrwt>0</asrwt>
<pdfrwt beam="1">  1        2 0.39734944E+00 0.16967862E+04</pdfrwt>
<pdfrwt beam="2">  1       -1 0.42874094E-01 0.16967862E+04</pdfrwt>
<totfact> 0.18130225E+01</totfact>
</mgrwt>
</event>
<event>
12    7  0.1857704E-007  0.1379387E+04  0.7818608E-02  0.8968876E-01
          2   -1    0    0  501    0  0.00000000000E+00  0.00000000000E+00  0.53905640489E+03  0.53905640489E+03  0.00000000000E+00 0. -1.
         -1   -1    0    0    0  501 -0.00000000000E+00 -0.00000000000E+00 -0.88242598871E+03  0.88242598871E+03  0.00000000000E+00 0.  1.
         24    2    1    2    0    0  0.11600766293E+03  0.59530825271E+02  0.27584657582E+03  0.31544550958E+03  0.80080204200E+02 0.  0.
        254    2    1    2    0    0 -0.11600766293E+03 -0.59530825271E+02 -0.61921615964E+03  0.11060368840E+04  0.90713132426E+03 0.  0.
         23    2    4    4    0    0 -0.48935980595E+03  0.24686347050E+02 -0.21853735398E+03  0.54421820858E+03  0.91282243928E+02 0.  0.
         23    2    4    4    0    0  0.37335214303E+03 -0.84217172321E+02 -0.40067880567E+03  0.56181867544E+03  0.92802822971E+02 0.  0.
          2    1    3    3  502    0  0.96275988782E+02  0.64644731459E+02  0.27059375355E+03  0.29439596937E+03  0.00000000000E+00 0. -1.
         -1    1    3    3    0  502  0.19731674143E+02 -0.51139061879E+01  0.52528222693E+01  0.21049540204E+02  0.00000000000E+00 0.  1.
         13    1    5    5    0    0 -0.33102945782E+03  0.52611486085E+02 -0.17258102636E+03  0.37700488203E+03  0.00000000000E+00 0. -1.
        -13    1    5    5    0    0 -0.15833034813E+03 -0.27925139035E+02 -0.45956327620E+02  0.16721332655E+03  0.00000000000E+00 0.  1.
          1    1    6    6  503    0  0.19342650324E+03 -0.90865461187E+02 -0.21223559882E+03  0.30118813655E+03  0.00000000000E+00 0. -1.
         -1    1    6    6    0  503  0.17992563979E+03  0.66482888657E+01 -0.18844320684E+03  0.26063053889E+03  0.00000000000E+00 0.  1.
<mgrwt>
<rscale>  0 0.13793874E+04</rscale>
<asrwt>0</asrwt>
<pdfrwt beam="1">  1        2 0.82931756E-01 0.13793874E+04</pdfrwt>
<pdfrwt beam="2">  1       -1 0.13575784E+00 0.13793874E+04</pdfrwt>
<totfact> 0.28531357E+01</totfact>
</mgrwt>
</event>
<event>
12    7  0.1857704E-007  0.2176773E+04  0.7818608E-02  0.8528158E-01
         -1   -1    0    0    0  501 -0.00000000000E+00  0.00000000000E+00  0.12510723667E+04  0.12510723667E+04  0.00000000000E+00 0.  1.
          2   -1    0    0  501    0  0.00000000000E+00 -0.00000000000E+00 -0.94685549497E+03  0.94685549497E+03  0.00000000000E+00 0. -1.
         24    2    1    2    0    0 -0.28368137721E+03  0.80596521799E+03 -0.15595762741E+03  0.87217260012E+03  0.79417922823E+02 0.  0.
        254    2    1    2    0    0  0.28368137721E+03 -0.80596521799E+03  0.46017449915E+03  0.13257552616E+04  0.90322277843E+03 0.  0.
         23    2    4    4    0    0  0.59710824325E+03 -0.62932637663E+03  0.32197893734E+03  0.92975787857E+03  0.90494940167E+02 0.  0.
         23    2    4    4    0    0 -0.31342686603E+03 -0.17663884136E+03  0.13819556181E+03  0.39599738298E+03  0.90984797612E+02 0.  0.
          4    1    3    3  502    0 -0.69654876148E+02  0.31229844347E+03 -0.52467914241E+02  0.32424527998E+03  0.00000000000E+00 0. -1.
         -3    1    3    3    0  502 -0.21402650107E+03  0.49366677452E+03 -0.10348971317E+03  0.54792732014E+03  0.00000000000E+00 0.  1.
         13    1    5    5    0    0 -0.12528799325E+01 -0.13394119019E+02  0.37675470796E+01  0.13970201982E+02  0.00000000000E+00 0. -1.
        -13    1    5    5    0    0  0.59836112318E+03 -0.61593225761E+03  0.31821139026E+03  0.91578767659E+03  0.00000000000E+00 0.  1.
          1    1    6    6  503    0 -0.13090606954E+03 -0.12590423638E+03  0.64989710033E+02  0.19290396105E+03  0.00000000000E+00 0. -1.
         -1    1    6    6    0  503 -0.18252079650E+03 -0.50734604980E+02  0.73205851773E+02  0.20309342193E+03  0.00000000000E+00 0.  1.
<mgrwt>
<rscale>  0 0.21767726E+04</rscale>
<asrwt>0</asrwt>
<pdfrwt beam="1">  1        2 0.14567008E+00 0.21767726E+04</pdfrwt>
<pdfrwt beam="2">  1       -1 0.19247267E+00 0.21767726E+04</pdfrwt>
<totfact> 0.48379080E+00</totfact>
</mgrwt>
</event>
<event>
12    7  0.1857704E-007  0.1281402E+04  0.7818608E-02  0.9044445E-01
         -1   -1    0    0    0  501 -0.00000000000E+00  0.00000000000E+00  0.16583749090E+03  0.16583749090E+03  0.00000000000E+00 0.  1.
          2   -1    0    0  501    0  0.00000000000E+00 -0.00000000000E+00 -0.24753011653E+04  0.24753011653E+04  0.00000000000E+00 0. -1.
         24    2    1    2    0    0  0.15612091322E+03 -0.27346918796E+03 -0.65925742556E+03  0.73509388455E+03  0.81138952655E+02 0.  0.
        254    2    1    2    0    0 -0.15612091322E+03  0.27346918796E+03 -0.16502062488E+04  0.19060447716E+04  0.90037040794E+03 0.  0.
         23    2    4    4    0    0  0.10687124188E+03  0.48363659299E+03 -0.52039371632E+03  0.72433871393E+03  0.92364149418E+02 0.  0.
         23    2    4    4    0    0 -0.26299215510E+03 -0.21016740502E+03 -0.11298125325E+04  0.11817060577E+04  0.81348856319E+02 0.  0.
          4    1    3    3  502    0  0.12442031409E+03 -0.19541269317E+03 -0.55247308884E+03  0.59907683072E+03  0.00000000000E+00 0. -1.
         -3    1    3    3    0  502  0.31700599132E+02 -0.78056494794E+02 -0.10678433672E+03  0.13601705383E+03  0.00000000000E+00 0.  1.
         13    1    5    5    0    0  0.27228996342E+02  0.22466906721E+03 -0.29561584726E+03  0.37229872032E+03  0.00000000000E+00 0. -1.
        -13    1    5    5    0    0  0.79642245534E+02  0.25896752578E+03 -0.22477786907E+03  0.35203999361E+03  0.00000000000E+00 0.  1.
          1    1    6    6  503    0 -0.12870070936E+03 -0.14750854896E+03 -0.71060268605E+03  0.73707450236E+03  0.00000000000E+00 0. -1.
         -1    1    6    6    0  503 -0.13429144573E+03 -0.62658856066E+02 -0.41920984645E+03  0.44463155534E+03  0.00000000000E+00 0.  1.
<mgrwt>
<rscale>  0 0.12814019E+04</rscale>
<asrwt>0</asrwt>
<pdfrwt beam="1">  1        2 0.38081554E+00 0.12814019E+04</pdfrwt>
<pdfrwt beam="2">  1       -1 0.25513462E-01 0.12814019E+04</pdfrwt>
<totfact> 0.54654488E+01</totfact>
</mgrwt>
</event>
<event>
12    7  0.1857704E-007  0.1499751E+04  0.7818608E-02  0.8884618E-01
          2   -1    0    0  501    0  0.00000000000E+00  0.00000000000E+00  0.14039792459E+04  0.14039792459E+04  0.00000000000E+00 0. -1.
         -1   -1    0    0    0  501 -0.00000000000E+00 -0.00000000000E+00 -0.40051407594E+03  0.40051407594E+03  0.00000000000E+00 0.  1.
         24    2    1    2    0    0  0.29084759297E+02 -0.19411539024E+03 -0.19107022219E+03  0.28639974910E+03  0.83607885536E+02 0.  0.
        254    2    1    2    0    0 -0.29084759297E+02  0.19411539024E+03  0.11945353922E+04  0.15180935728E+04  0.91606036077E+03 0.  0.
         23    2    4    4    0    0 -0.42860022710E+03 -0.74583193451E+02  0.61692080458E+03  0.76050034873E+03  0.92242581746E+02 0.  0.
         23    2    4    4    0    0  0.39951546780E+03  0.26869858369E+03  0.57761458761E+03  0.75759322405E+03  0.92181036080E+02 0.  0.
          4    1    3    3  502    0 -0.22421665390E+02 -0.15053678758E+02 -0.22949877586E+02  0.35440671611E+02  0.00000000000E+00 0. -1.
         -3    1    3    3    0  502  0.51506424688E+02 -0.17906171149E+03 -0.16812034460E+03  0.25095907749E+03  0.00000000000E+00 0.  1.
         13    1    5    5    0    0 -0.24573032203E+03 -0.13341436815E+02  0.40551710157E+03  0.47434745153E+03  0.00000000000E+00 0. -1.
        -13    1    5    5    0    0 -0.18286990507E+03 -0.61241756636E+02  0.21140370301E+03  0.28615289721E+03  0.00000000000E+00 0.  1.
          1    1    6    6  503    0  0.86039819985E+02  0.55073352074E+02  0.69766423443E+02  0.12370642090E+03  0.00000000000E+00 0. -1.
         -1    1    6    6    0  503  0.31347564781E+03  0.21362523162E+03  0.50784816417E+03  0.63388680315E+03  0.00000000000E+00 0.  1.
<mgrwt>
<rscale>  0 0.14997512E+04</rscale>
<asrwt>0</asrwt>
<pdfrwt beam="1">  1        2 0.21599680E+00 0.14997512E+04</pdfrwt>
<pdfrwt beam="2">  1       -1 0.61617551E-01 0.14997512E+04</pdfrwt>
<totfact> 0.42344233E+01</totfact>
</mgrwt>
</event>
<event>
12    7  0.1857704E-007  0.2215253E+04  0.7818608E-02  0.8512106E-01
         -1   -1    0    0    0  501 -0.00000000000E+00  0.00000000000E+00  0.69039955191E+03  0.69039955191E+03  0.00000000000E+00 0.  1.
          2   -1    0    0  501    0  0.00000000000E+00 -0.00000000000E+00 -0.17769950367E+04  0.17769950367E+04  0.00000000000E+00 0. -1.
         24    2    1    2    0    0 -0.53600655267E+02 -0.20552052650E+03 -0.14491101046E+04  0.14667928793E+04  0.80309017658E+02 0.  0.
        254    2    1    2    0    0  0.53600655267E+02  0.20552052650E+03  0.36251461987E+03  0.10006017093E+04  0.90811629980E+03 0.  0.
         23    2    4    4    0    0 -0.34360990989E+03  0.17365221500E+03 -0.74347599310E+02  0.40185083393E+03  0.87941260258E+02 0.  0.
         23    2    4    4    0    0  0.39721056515E+03  0.31868311498E+02  0.43686221918E+03  0.59875087537E+03  0.94139204687E+02 0.  0.
          4    1    3    3  502    0 -0.33590494270E+02 -0.20114959724E+03 -0.13689749349E+04  0.13840815923E+04  0.00000000000E+00 0. -1.
         -3    1    3    3    0  502 -0.20010160998E+02 -0.43709292634E+01 -0.80135169698E+02  0.82711286946E+02  0.00000000000E+00 0.  1.
         13    1    5    5    0    0 -0.33639835216E+02 -0.85200532363E+01 -0.13313789832E+02  0.37168357782E+02  0.00000000000E+00 0.  1.
        -13    1    5    5    0    0 -0.30997007467E+03  0.18217226824E+03 -0.61033809478E+02  0.36468247614E+03  0.00000000000E+00 0. -1.
          1    1    6    6  503    0  0.31748458409E+03 -0.31532161567E+01  0.37796937223E+03  0.49362663041E+03  0.00000000000E+00 0. -1.
         -1    1    6    6    0  503  0.79725981068E+02  0.35021527655E+02  0.58892846952E+02  0.10512424496E+03  0.00000000000E+00 0.  1.
<mgrwt>
<rscale>  0 0.22152531E+04</rscale>
<asrwt>0</asrwt>
<pdfrwt beam="1">  1        2 0.27338385E+00 0.22152531E+04</pdfrwt>
<pdfrwt beam="2">  1       -1 0.10621532E+00 0.22152531E+04</pdfrwt>
<totfact> 0.76547276E+00</totfact>
</mgrwt>
</event>
<event>
12    7  0.1857704E-007  0.1815977E+04  0.7818608E-02  0.8697849E-01
          2   -1    0    0  501    0  0.00000000000E+00  0.00000000000E+00  0.26933485873E+04  0.26933485873E+04  0.00000000000E+00 0. -1.
         -1   -1    0    0    0  501 -0.00000000000E+00 -0.00000000000E+00 -0.30610330588E+03  0.30610330588E+03  0.00000000000E+00 0.  1.
         24    2    1    2    0    0  0.86800460505E+02  0.31629242240E+03  0.18982161723E+04  0.19278760318E+04  0.76851420776E+02 0.  0.
        254    2    1    2    0    0 -0.86800460505E+02 -0.31629242240E+03  0.48902910909E+03  0.10715758613E+04  0.89529332660E+03 0.  0.
         23    2    4    4    0    0 -0.97462061733E+02 -0.67499627608E+02 -0.24738771665E+03  0.28917322732E+03  0.91462669119E+02 0.  0.
         23    2    4    4    0    0  0.10661601228E+02 -0.24879279479E+03  0.73641682574E+03  0.78240263402E+03  0.88502067822E+02 0.  0.
          4    1    3    3  502    0  0.10123361180E+03  0.28015721972E+03  0.16913852807E+04  0.17174168043E+04  0.00000000000E+00 0. -1.
         -3    1    3    3    0  502 -0.14433151294E+02  0.36135202673E+02  0.20683089158E+03  0.21045922750E+03  0.00000000000E+00 0.  1.
         13    1    5    5    0    0 -0.11112427941E+03 -0.60692090170E+02 -0.24174933609E+03  0.27290085523E+03  0.00000000000E+00 0. -1.
        -13    1    5    5    0    0  0.13662217681E+02 -0.68075374387E+01 -0.56383805558E+01  0.16272372084E+02  0.00000000000E+00 0.  1.
          3    1    6    6  503    0  0.21699380282E+01 -0.21583313967E+03  0.51526752370E+03  0.55864950889E+03  0.00000000000E+00 0. -1.
         -3    1    6    6    0  503  0.84916631998E+01 -0.32959655120E+02  0.22114930205E+03  0.22375312513E+03  0.00000000000E+00 0.  1.
<mgrwt>
<rscale>  0 0.18159768E+04</rscale>
<asrwt>0</asrwt>
<pdfrwt beam="1">  1        2 0.41436131E+00 0.18159768E+04</pdfrwt>
<pdfrwt beam="2">  1       -1 0.47092818E-01 0.18159768E+04</pdfrwt>
<totfact> 0.12961029E+01</totfact>
</mgrwt>
</event>
<event>
12    7  0.1857704E-007  0.2264207E+04  0.7818608E-02  0.8492169E-01
         -1   -1    0    0    0  501 -0.00000000000E+00  0.00000000000E+00  0.75297259847E+03  0.75297259847E+03  0.00000000000E+00 0.  1.
          2   -1    0    0  501    0  0.00000000000E+00 -0.00000000000E+00 -0.17021313466E+04  0.17021313466E+04  0.00000000000E+00 0. -1.
         24    2    1    2    0    0  0.66708462076E+03 -0.40374666998E+03 -0.99249217330E+03  0.12647196009E+04  0.80384638137E+02 0.  0.
        254    2    1    2    0    0 -0.66708462076E+03  0.40374666998E+03  0.43333425205E+02  0.11903843441E+04  0.89840071031E+03 0.  0.
         23    2    4    4    0    0 -0.65982351145E+03  0.41604871338E+03 -0.29539465148E+03  0.83928300220E+03  0.93136241567E+02 0.  0.
         23    2    4    4    0    0 -0.72611093155E+01 -0.12302043404E+02  0.33872807669E+03  0.35110134195E+03  0.91276384681E+02 0.  0.
          4    1    3    3  502    0  0.57190458509E+03 -0.37706789760E+03 -0.86479152023E+03  0.11032313571E+04  0.00000000000E+00 0. -1.
         -3    1    3    3    0  502  0.95180035671E+02 -0.26678772377E+02 -0.12770065307E+03  0.16148824378E+03  0.00000000000E+00 0.  1.
         13    1    5    5    0    0 -0.35495728835E+03  0.17889822694E+03 -0.17856285688E+03  0.43575675096E+03  0.00000000000E+00 0.  1.
        -13    1    5    5    0    0 -0.30486622310E+03  0.23715048645E+03 -0.11683179461E+03  0.40352625124E+03  0.00000000000E+00 0. -1.
          4    1    6    6  503    0  0.19707671564E+02 -0.57519128842E+01  0.13232816128E+02  0.24425074063E+02  0.00000000000E+00 0. -1.
         -4    1    6    6    0  503 -0.26968780880E+02 -0.65501305193E+01  0.32549526056E+03  0.32667626789E+03  0.00000000000E+00 0.  1.
<mgrwt>
<rscale>  0 0.22642069E+04</rscale>
<asrwt>0</asrwt>
<pdfrwt beam="1">  1        2 0.26186636E+00 0.22642069E+04</pdfrwt>
<pdfrwt beam="2">  1       -1 0.11584194E+00 0.22642069E+04</pdfrwt>
<totfact> 0.68296396E+00</totfact>
</mgrwt>
</event>
<event>
12    7  0.1857704E-007  0.1338087E+04  0.7818608E-02  0.8999895E-01
         -1   -1    0    0    0  501 -0.00000000000E+00  0.00000000000E+00  0.37355780550E+03  0.37355780550E+03  0.00000000000E+00 0.  1.
          2   -1    0    0  501    0  0.00000000000E+00 -0.00000000000E+00 -0.11982601553E+04  0.11982601553E+04  0.00000000000E+00 0. -1.
         24    2    1    2    0    0 -0.13067634137E+03 -0.23268610609E+03  0.54531768900E+02  0.28376271791E+03  0.79551468212E+02 0.  0.
        254    2    1    2    0    0  0.13067634137E+03  0.23268610609E+03 -0.87923411866E+03  0.12880552429E+04  0.90267078333E+03 0.  0.
         23    2    4    4    0    0  0.12284819968E+03 -0.29115958136E+03 -0.95989218882E+02  0.34135648541E+03  0.86282895235E+02 0.  0.
         23    2    4    4    0    0  0.78281416911E+01  0.52384568745E+03 -0.78324489978E+03  0.94669875744E+03  0.91051525256E+02 0.  0.
          4    1    3    3  502    0 -0.92449738130E+01 -0.53589146620E+02 -0.15125025153E+02  0.56444951609E+02  0.00000000000E+00 0. -1.
         -3    1    3    3    0  502 -0.12143136756E+03 -0.17909695947E+03  0.69656794052E+02  0.22731776630E+03  0.00000000000E+00 0.  1.
         13    1    5    5    0    0  0.17108207763E+02 -0.18466827211E+02 -0.34131155296E+02  0.42410496837E+02  0.00000000000E+00 0.  1.
        -13    1    5    5    0    0  0.10573999192E+03 -0.27269275415E+03 -0.61858063586E+02  0.29894598858E+03  0.00000000000E+00 0. -1.
          3    1    6    6  503    0  0.45726572783E+02  0.20113211946E+03 -0.32552163768E+03  0.38536915488E+03  0.00000000000E+00 0. -1.
         -3    1    6    6    0  503 -0.37898431092E+02  0.32271356799E+03 -0.45772326210E+03  0.56132960256E+03  0.00000000000E+00 0.  1.
<mgrwt>
<rscale>  0 0.13380873E+04</rscale>
<asrwt>0</asrwt>
<pdfrwt beam="1">  1        2 0.18434771E+00 0.13380873E+04</pdfrwt>
<pdfrwt beam="2">  1       -1 0.57470432E-01 0.13380873E+04</pdfrwt>
<totfact> 0.64886900E+01</totfact>
</mgrwt>
</event>
<event>
12    7  0.1857704E-007  0.1765981E+04  0.7818608E-02  0.8724603E-01
          2   -1    0    0  501    0  0.00000000000E+00  0.00000000000E+00  0.17080103820E+04  0.17080103820E+04  0.00000000000E+00 0. -1.
         -1   -1    0    0    0  501 -0.00000000000E+00 -0.00000000000E+00 -0.45647965854E+03  0.45647965854E+03  0.00000000000E+00 0.  1.
         24    2    1    2    0    0 -0.62429513385E+03  0.11860103164E+03  0.27904635300E+03  0.69672001218E+03  0.61166080374E+02 0.  0.
        254    2    1    2    0    0  0.62429513385E+03 -0.11860103164E+03  0.97248437044E+03  0.14677700283E+04  0.89711336324E+03 0.  0.
         23    2    4    4    0    0  0.44514148656E+03 -0.33776484020E+02 -0.15558542844E+02  0.45581733070E+03  0.90750078675E+02 0.  0.
         23    2    4    4    0    0  0.17915364729E+03 -0.84824547617E+02  0.98804291328E+03  0.10119526976E+04  0.92348419389E+02 0.  0.
          2    1    3    3  502    0 -0.42349374358E+03  0.68518347057E+02  0.15931321880E+03  0.45762694022E+03  0.00000000000E+00 0. -1.
         -1    1    3    3    0  502 -0.20080139027E+03  0.50082684580E+02  0.11973313421E+03  0.23909307195E+03  0.00000000000E+00 0.  1.
         13    1    5    5    0    0  0.40964950390E+03 -0.53087597355E+02 -0.26599334663E+02  0.41393059037E+03  0.00000000000E+00 0. -1.
        -13    1    5    5    0    0  0.35491982659E+02  0.19311113335E+02  0.11040791819E+02  0.41886740328E+02  0.00000000000E+00 0.  1.
          1    1    6    6  503    0  0.93147926603E+02 -0.91600921566E+02  0.65622981062E+03  0.66910748719E+03  0.00000000000E+00 0. -1.
         -1    1    6    6    0  503  0.86005720686E+02  0.67763739491E+01  0.33181310266E+03  0.34284521045E+03  0.00000000000E+00 0.  1.
<mgrwt>
<rscale>  0 0.17659807E+04</rscale>
<asrwt>0</asrwt>
<pdfrwt beam="1">  1        2 0.26277082E+00 0.17659807E+04</pdfrwt>
<pdfrwt beam="2">  1       -1 0.70227641E-01 0.17659807E+04</pdfrwt>
<totfact> 0.21450828E+01</totfact>
</mgrwt>
</event>
<event>
12    7  0.1857704E-007  0.3247763E+04  0.7818608E-02  0.8176316E-01
          2   -1    0    0  501    0  0.00000000000E+00  0.00000000000E+00  0.33298927432E+04  0.33298927432E+04  0.00000000000E+00 0. -1.
         -1   -1    0    0    0  501 -0.00000000000E+00 -0.00000000000E+00 -0.79191464273E+03  0.79191464273E+03  0.00000000000E+00 0.  1.
         24    2    1    2    0    0  0.53575566741E+03  0.10283589976E+04 -0.29870967174E+02  0.11627326571E+04  0.80613857890E+02 0.  0.
        254    2    1    2    0    0 -0.53575566741E+03 -0.10283589976E+04  0.25678490676E+04  0.29590747288E+04  0.90427764193E+03 0.  0.
         23    2    4    4    0    0  0.77454739473E+02  0.74730217885E+02  0.63000607967E+03  0.64491113822E+03  0.86132883629E+02 0.  0.
         23    2    4    4    0    0 -0.61321040688E+03 -0.11030892155E+04  0.19378429879E+04  0.23141635906E+04  0.85351378549E+02 0.  0.
          4    1    3    3  502    0  0.21130714436E+03  0.42521720569E+03  0.26362561553E+02  0.47555795222E+03  0.00000000000E+00 0. -1.
         -3    1    3    3    0  502  0.32444852305E+03  0.60314179189E+03 -0.56233528727E+02  0.68717470485E+03  0.00000000000E+00 0.  1.
         13    1    5    5    0    0  0.65316922317E+02  0.33771085461E+01  0.30919215895E+03  0.31603401140E+03  0.00000000000E+00 0. -1.
        -13    1    5    5    0    0  0.12137817157E+02  0.71353109339E+02  0.32081392072E+03  0.32887712682E+03  0.00000000000E+00 0.  1.
          1    1    6    6  503    0 -0.45129891778E+03 -0.73089201734E+03  0.13044032942E+04  0.15618392389E+04  0.00000000000E+00 0. -1.
         -1    1    6    6    0  503 -0.16191148910E+03 -0.37219719813E+03  0.63343969375E+03  0.75232435174E+03  0.00000000000E+00 0.  1.
<mgrwt>
<rscale>  0 0.32477628E+04</rscale>
<asrwt>0</asrwt>
<pdfrwt beam="1">  1        2 0.51229118E+00 0.32477628E+04</pdfrwt>
<pdfrwt beam="2">  1       -1 0.12183302E+00 0.32477628E+04</pdfrwt>
<totfact> 0.60354371E-01</totfact>
</mgrwt>
</event>
<event>
12    7  0.1857704E-007  0.1098425E+04  0.7818608E-02  0.9206728E-01
          2   -1    0    0  501    0  0.00000000000E+00  0.00000000000E+00  0.48533041677E+03  0.48533041677E+03  0.00000000000E+00 0. -1.
         -1   -1    0    0    0  501 -0.00000000000E+00 -0.00000000000E+00 -0.62150302308E+03  0.62150302308E+03  0.00000000000E+00 0.  1.
         24    2    1    2    0    0  0.19457445550E+03 -0.50223951198E+02  0.77485985450E+02  0.22917281880E+03  0.78322659102E+02 0.  0.
        254    2    1    2    0    0 -0.19457445550E+03  0.50223951198E+02 -0.21365859176E+03  0.87766062104E+03  0.82719798591E+03 0.  0.
         23    2    4    4    0    0  0.33961148576E+02  0.11323396032E+03  0.28243895480E+03  0.31954726756E+03  0.91451646420E+02 0.  0.
         23    2    4    4    0    0 -0.22853560408E+03 -0.63010009122E+02 -0.49609754656E+03  0.55811335349E+03  0.95806868518E+02 0.  0.
          4    1    3    3  502    0 -0.21495334554E+01  0.97670200301E+01  0.39937243947E+01  0.10768705070E+02  0.00000000000E+00 0. -1.
         -3    1    3    3    0  502  0.19672398896E+03 -0.59990971228E+02  0.73492261055E+02  0.21840411373E+03  0.00000000000E+00 0.  1.
         13    1    5    5    0    0  0.52021121922E+02  0.22280535680E+02  0.10038528005E+03  0.11523811803E+03  0.00000000000E+00 0. -1.
        -13    1    5    5    0    0 -0.18059973347E+02  0.90953424641E+02  0.18205367475E+03  0.20430914953E+03  0.00000000000E+00 0.  1.
          2    1    6    6  503    0 -0.13861461412E+02  0.20988956867E+02 -0.47043585436E+02  0.53345809147E+02  0.00000000000E+00 0. -1.
         -2    1    6    6    0  503 -0.21467414266E+03 -0.83998965990E+02 -0.44905396112E+03  0.50476754434E+03  0.00000000000E+00 0.  1.
<mgrwt>
<rscale>  0 0.10984249E+04</rscale>
<asrwt>0</asrwt>
<pdfrwt beam="1">  1        2 0.74666218E-01 0.10984249E+04</pdfrwt>
<pdfrwt beam="2">  1       -1 0.95615849E-01 0.10984249E+04</pdfrwt>
<totfact> 0.76447043E+01</totfact>
</mgrwt>
</event>
<event>
12    7  0.1857704E-007  0.2153033E+04  0.7818608E-02  0.8538235E-01
         -1   -1    0    0    0  501 -0.00000000000E+00  0.00000000000E+00  0.67473175373E+03  0.67473175373E+03  0.00000000000E+00 0.  1.
          2   -1    0    0  501    0  0.00000000000E+00 -0.00000000000E+00 -0.17175527724E+04  0.17175527724E+04  0.00000000000E+00 0. -1.
         24    2    1    2    0    0 -0.35486472417E+03  0.63982007673E+03 -0.98157508767E+03  0.12268966118E+04  0.80541543057E+02 0.  0.
        254    2    1    2    0    0  0.35486472417E+03 -0.63982007673E+03 -0.61245931037E+02  0.11653879144E+04  0.90502995747E+03 0.  0.
         23    2    4    4    0    0  0.64816778645E+03 -0.47023328139E+03  0.15476130539E+02  0.80612895014E+03  0.91452475712E+02 0.  0.
         23    2    4    4    0    0 -0.29330306229E+03 -0.16958679535E+03 -0.76722061576E+02  0.35925896426E+03  0.91620746387E+02 0.  0.
          4    1    3    3  502    0 -0.35176222227E+03  0.63201268815E+03 -0.98050427945E+03  0.12184274049E+04  0.00000000000E+00 0. -1.
         -3    1    3    3    0  502 -0.31025018964E+01  0.78073885851E+01 -0.10708082223E+01  0.84692068570E+01  0.00000000000E+00 0.  1.
         13    1    5    5    0    0  0.14997496965E+03 -0.74722224589E+02  0.28119931034E+02  0.16990183310E+03  0.00000000000E+00 0.  1.
        -13    1    5    5    0    0  0.49819281680E+03 -0.39551105680E+03 -0.12643800495E+02  0.63622711704E+03  0.00000000000E+00 0. -1.
          4    1    6    6  503    0 -0.69926227704E+02 -0.33304642519E+01 -0.32987487286E+02  0.77388265457E+02  0.00000000000E+00 0. -1.
         -4    1    6    6    0  503 -0.22337683458E+03 -0.16625633109E+03 -0.43734574290E+02  0.28187069881E+03  0.00000000000E+00 0.  1.
<mgrwt>
<rscale>  0 0.21530326E+04</rscale>
<asrwt>0</asrwt>
<pdfrwt beam="1">  1        2 0.26423889E+00 0.21530326E+04</pdfrwt>
<pdfrwt beam="2">  1       -1 0.10380488E+00 0.21530326E+04</pdfrwt>
<totfact> 0.87602383E+00</totfact>
</mgrwt>
</event>
<event>
12    7  0.1857704E-007  0.1921957E+04  0.7818608E-02  0.8644004E-01
          2   -1    0    0  501    0  0.00000000000E+00  0.00000000000E+00  0.18998522048E+04  0.18998522048E+04  0.00000000000E+00 0. -1.
         -1   -1    0    0    0  501 -0.00000000000E+00 -0.00000000000E+00 -0.48607953387E+03  0.48607953387E+03  0.00000000000E+00 0.  1.
         24    2    1    2    0    0  0.49248873295E+03 -0.93585760420E+01  0.12568545025E+04  0.13523218992E+04  0.80365063041E+02 0.  0.
        254    2    1    2    0    0 -0.49248873295E+03  0.93585760420E+01  0.15691816837E+03  0.10336098395E+04  0.89503812976E+03 0.  0.
         23    2    4    4    0    0 -0.65194110461E+03  0.19679702678E+03  0.28196309929E+03  0.74292233626E+03  0.93135034899E+02 0.  0.
         23    2    4    4    0    0  0.15945237165E+03 -0.18743845074E+03 -0.12504493092E+03  0.29068750324E+03  0.91130445793E+02 0.  0.
          4    1    3    3  502    0  0.47699806232E+03 -0.68203119578E+01  0.11609435423E+04  0.12551348838E+04  0.00000000000E+00 0. -1.
         -3    1    3    3    0  502  0.15490670635E+02 -0.25382640842E+01  0.95910960232E+02  0.97187015357E+02  0.00000000000E+00 0.  1.
         13    1    5    5    0    0 -0.42235188625E+02  0.35157535709E+02  0.92586345672E+01  0.55727782922E+02  0.00000000000E+00 0. -1.
        -13    1    5    5    0    0 -0.60970591598E+03  0.16163949108E+03  0.27270446472E+03  0.68719455334E+03  0.00000000000E+00 0.  1.
          2    1    6    6  503    0  0.93688921735E+02 -0.89354998761E+02 -0.16909713856E+02  0.13056748555E+03  0.00000000000E+00 0. -1.
         -2    1    6    6    0  503  0.65763449919E+02 -0.98083451982E+02 -0.10813521706E+03  0.16012001770E+03  0.00000000000E+00 0.  1.
<mgrwt>
<rscale>  0 0.19219566E+04</rscale>
<asrwt>0</asrwt>
<pdfrwt beam="1">  1        2 0.29228495E+00 0.19219566E+04</pdfrwt>
<pdfrwt beam="2">  1       -1 0.74781468E-01 0.19219566E+04</pdfrwt>
<totfact> 0.14544502E+01</totfact>
</mgrwt>
</event>
<event>
12    7  0.1881123E-007  0.1614794E+04  0.7818608E-02  0.8811511E-01
         -1   -1    0    0    0  501 -0.00000000000E+00  0.00000000000E+00  0.35249950164E+03  0.35249950164E+03  0.00000000000E+00 0.  1.
          2   -1    0    0  501    0  0.00000000000E+00 -0.00000000000E+00 -0.18493349044E+04  0.18493349044E+04  0.00000000000E+00 0. -1.
         24    2    1    2    0    0  0.41040523363E+03  0.16495188636E+03 -0.64621369759E+02  0.45434813198E+03  0.81330947374E+02 0.  0.
        254    2    1    2    0    0 -0.41040523363E+03 -0.16495188636E+03 -0.14322140330E+04  0.17474862740E+04  0.89823697380E+03 0.  0.
         23    2    4    4    0    0 -0.52112293200E+03  0.22157143651E+03 -0.98077313216E+03  0.11361374533E+04  0.90715843588E+02 0.  0.
         23    2    4    4    0    0  0.11071769837E+03 -0.38652332287E+03 -0.45144090079E+03  0.61134882072E+03  0.91048370865E+02 0.  0.
          4    1    3    3  502    0  0.14409100944E+03  0.60920285104E+02  0.16081079540E+02  0.15726443100E+03  0.00000000000E+00 0. -1.
         -3    1    3    3    0  502  0.26631422418E+03  0.10403160125E+03 -0.80702449299E+02  0.29708370098E+03  0.00000000000E+00 0.  1.
         13    1    5    5    0    0 -0.18186449571E+03  0.12129449163E+03 -0.34053335315E+03  0.40466036760E+03  0.00000000000E+00 0. -1.
        -13    1    5    5    0    0 -0.33925843629E+03  0.10027694488E+03 -0.64023977901E+03  0.73147708570E+03  0.00000000000E+00 0.  1.
          2    1    6    6  503    0 -0.32072054847E+01 -0.11638231107E+03 -0.16076763991E+03  0.19849776457E+03  0.00000000000E+00 0. -1.
         -2    1    6    6    0  503  0.11392490386E+03 -0.27014101180E+03 -0.29067326088E+03  0.41285105615E+03  0.00000000000E+00 0.  1.
<mgrwt>
<rscale>  0 0.16147936E+04</rscale>
<asrwt>0</asrwt>
<pdfrwt beam="1">  1        2 0.28451306E+00 0.16147936E+04</pdfrwt>
<pdfrwt beam="2">  1       -1 0.54230693E-01 0.16147936E+04</pdfrwt>
<totfact> 0.30352234E+01</totfact>
</mgrwt>
</event>
<event>
12    7  0.1857704E-007  0.1732286E+04  0.7818608E-02  0.8743162E-01
         -1   -1    0    0    0  501 -0.00000000000E+00  0.00000000000E+00  0.60885094107E+03  0.60885094107E+03  0.00000000000E+00 0.  1.
          2   -1    0    0  501    0  0.00000000000E+00 -0.00000000000E+00 -0.12321626601E+04  0.12321626601E+04  0.00000000000E+00 0. -1.
         24    2    1    2    0    0 -0.38270149298E+03 -0.52840720874E+02 -0.75729373291E+03  0.85380270044E+03  0.78947317005E+02 0.  0.
        254    2    1    2    0    0  0.38270149298E+03  0.52840720874E+02  0.13398201388E+03  0.98721090074E+03  0.89854416029E+03 0.  0.
         23    2    4    4    0    0  0.35118555956E+03  0.40420693385E+03  0.25941819344E+03  0.60197052029E+03  0.91412064818E+02 0.  0.
         23    2    4    4    0    0  0.31515933418E+02 -0.35136621298E+03 -0.12543617956E+03  0.38524038045E+03  0.90688730867E+02 0.  0.
          2    1    3    3  502    0 -0.34107639280E+03 -0.58233762803E+02 -0.71443344159E+03  0.79381321437E+03  0.00000000000E+00 0. -1.
         -1    1    3    3    0  502 -0.41625100180E+02  0.53930419285E+01 -0.42860291322E+02  0.59989486066E+02  0.00000000000E+00 0.  1.
         13    1    5    5    0    0  0.33700993233E+02  0.89562183570E+01  0.27798686392E+02  0.44595266086E+02  0.00000000000E+00 0.  1.
        -13    1    5    5    0    0  0.31748456633E+03  0.39525071549E+03  0.23161950705E+03  0.55737525421E+03  0.00000000000E+00 0. -1.
          2    1    6    6  503    0  0.31929362817E+02 -0.29703989168E+03 -0.68420805037E+02  0.30648586920E+03  0.00000000000E+00 0. -1.
         -2    1    6    6    0  503 -0.41342939950E+00 -0.54326321296E+02 -0.57015374528E+02  0.78754511248E+02  0.00000000000E+00 0.  1.
<mgrwt>
<rscale>  0 0.17322857E+04</rscale>
<asrwt>0</asrwt>
<pdfrwt beam="1">  1        2 0.18956349E+00 0.17322857E+04</pdfrwt>
<pdfrwt beam="2">  1       -1 0.93669375E-01 0.17322857E+04</pdfrwt>
<totfact> 0.21678071E+01</totfact>
</mgrwt>
</event>
<event>
12    7  0.1857704E-007  0.2343074E+04  0.7818608E-02  0.8461129E-01
         -3   -1    0    0    0  501 -0.00000000000E+00  0.00000000000E+00  0.67830951153E+03  0.67830951153E+03  0.00000000000E+00 0.  1.
          4   -1    0    0  501    0  0.00000000000E+00 -0.00000000000E+00 -0.20234101775E+04  0.20234101775E+04  0.00000000000E+00 0. -1.
         24    2    1    2    0    0 -0.52992386051E+03 -0.84833954784E+03 -0.57881983923E+03  0.11584144044E+04  0.79951482683E+02 0.  0.
        254    2    1    2    0    0  0.52992386051E+03  0.84833954784E+03 -0.76628082678E+03  0.15433052847E+04  0.89112603482E+03 0.  0.
         23    2    4    4    0    0  0.37468513799E+03 -0.59059020098E+02 -0.36640669380E+03  0.53532597796E+03  0.91886434977E+02 0.  0.
         23    2    4    4    0    0  0.15523872252E+03  0.90739856794E+03 -0.39987413298E+03  0.10079793067E+04  0.93014722138E+02 0.  0.
          2    1    3    3  502    0 -0.52497165707E+03 -0.83534149866E+03 -0.55828021291E+03  0.11336081582E+04  0.00000000000E+00 0. -1.
         -1    1    3    3    0  502 -0.49522034361E+01 -0.12998049181E+02 -0.20539626327E+02  0.24806246210E+02  0.00000000000E+00 0.  1.
         13    1    5    5    0    0  0.34088729957E+03 -0.68047930071E+02 -0.35872787828E+03  0.49952013218E+03  0.00000000000E+00 0. -1.
        -13    1    5    5    0    0  0.33797838416E+02  0.89889099728E+01 -0.76788155139E+01  0.35805845776E+02  0.00000000000E+00 0.  1.
          4    1    6    6  503    0  0.73063957703E+02  0.63118679614E+03 -0.24659820079E+03  0.68157595774E+03  0.00000000000E+00 0. -1.
         -4    1    6    6    0  503  0.82174764820E+02  0.27621177180E+03 -0.15327593219E+03  0.32640334901E+03  0.00000000000E+00 0.  1.
<mgrwt>
<rscale>  0 0.23430735E+04</rscale>
<asrwt>0</asrwt>
<pdfrwt beam="1">  1        4 0.31129387E+00 0.23430735E+04</pdfrwt>
<pdfrwt beam="2">  1       -3 0.10435531E+00 0.23430735E+04</pdfrwt>
<totfact> 0.42660231E-02</totfact>
</mgrwt>
</event>
<event>
12    7  0.1857704E-007  0.3756328E+04  0.7818608E-02  0.8055592E-01
          2   -1    0    0  501    0  0.00000000000E+00  0.00000000000E+00  0.15956794466E+04  0.15956794466E+04  0.00000000000E+00 0. -1.
         -1   -1    0    0    0  501 -0.00000000000E+00 -0.00000000000E+00 -0.22106568749E+04  0.22106568749E+04  0.00000000000E+00 0.  1.
         24    2    1    2    0    0  0.87724803916E+03  0.15288822991E+04 -0.44707379282E+03  0.18202599114E+04  0.80162099726E+02 0.  0.
        254    2    1    2    0    0 -0.87724803916E+03 -0.15288822991E+04 -0.16790363544E+03  0.19860764101E+04  0.89959027851E+03 0.  0.
         23    2    4    4    0    0 -0.82920676081E+03 -0.56154914252E+03 -0.58374595288E+02  0.10072155372E+04  0.90300904829E+02 0.  0.
         23    2    4    4    0    0 -0.48041278351E+02 -0.96733315654E+03 -0.10952904015E+03  0.97886087283E+03  0.90169826162E+02 0.  0.
          4    1    3    3  502    0  0.89237604097E+02  0.20886104518E+03 -0.53649960511E+02  0.23337652933E+03  0.00000000000E+00 0. -1.
         -3    1    3    3    0  502  0.78801043506E+03  0.13200212539E+04 -0.39342383230E+03  0.15868833821E+04  0.00000000000E+00 0.  1.
         13    1    5    5    0    0 -0.15176636776E+03 -0.14370726639E+03  0.16713101315E+01  0.20901579384E+03  0.00000000000E+00 0. -1.
        -13    1    5    5    0    0 -0.67744039305E+03 -0.41784187613E+03 -0.60045905419E+02  0.79819974338E+03  0.00000000000E+00 0.  1.
          1    1    6    6  503    0 -0.96769372452E+01 -0.60243196197E+02  0.13982795600E+02  0.62597159482E+02  0.00000000000E+00 0. -1.
         -1    1    6    6    0  503 -0.38364341106E+02 -0.90708996035E+03 -0.12351183575E+03  0.91626371335E+03  0.00000000000E+00 0.  1.
<mgrwt>
<rscale>  0 0.37563279E+04</rscale>
<asrwt>0</asrwt>
<pdfrwt beam="1">  1        2 0.24548915E+00 0.37563279E+04</pdfrwt>
<pdfrwt beam="2">  1       -1 0.34010106E+00 0.37563279E+04</pdfrwt>
<totfact> 0.18554104E-01</totfact>
</mgrwt>
</event>
<event>
12    7  0.1857704E-007  0.2282911E+04  0.7818608E-02  0.8484690E-01
         -1   -1    0    0    0  501 -0.00000000000E+00  0.00000000000E+00  0.96946751894E+03  0.96946751894E+03  0.00000000000E+00 0.  1.
          2   -1    0    0  501    0  0.00000000000E+00 -0.00000000000E+00 -0.13439547596E+04  0.13439547596E+04  0.00000000000E+00 0. -1.
         24    2    1    2    0    0  0.26316087573E+03  0.64145564311E+03  0.52355544005E+03  0.87248804806E+03  0.80038157121E+02 0.  0.
        254    2    1    2    0    0 -0.26316087573E+03 -0.64145564311E+03 -0.89804268071E+03  0.14409342305E+04  0.88830839894E+03 0.  0.
         23    2    4    4    0    0 -0.14756834114E+03 -0.21682218432E+03 -0.94868175164E+03  0.98851097020E+03  0.91480038171E+02 0.  0.
         23    2    4    4    0    0 -0.11559253459E+03 -0.42463345879E+03  0.50639070930E+02  0.45242326029E+03  0.91909099497E+02 0.  0.
          4    1    3    3  502    0  0.16834973197E+03  0.33964617689E+03  0.32205606075E+03  0.49741457960E+03  0.00000000000E+00 0. -1.
         -3    1    3    3    0  502  0.94811143760E+02  0.30180946622E+03  0.20149937931E+03  0.37507346846E+03  0.00000000000E+00 0.  1.
         13    1    5    5    0    0 -0.75811818778E+02 -0.69578355392E+02 -0.23969766027E+03  0.26085158183E+03  0.00000000000E+00 0. -1.
        -13    1    5    5    0    0 -0.71756522361E+02 -0.14724382893E+03 -0.70898409137E+03  0.72765938836E+03  0.00000000000E+00 0.  1.
          4    1    6    6  503    0 -0.80712496302E+02 -0.16074173561E+03  0.48244831831E+02  0.18622560625E+03  0.00000000000E+00 0. -1.
         -4    1    6    6    0  503 -0.34880038289E+02 -0.26389172318E+03  0.23942390990E+01  0.26619765404E+03  0.00000000000E+00 0.  1.
<mgrwt>
<rscale>  0 0.22829108E+04</rscale>
<asrwt>0</asrwt>
<pdfrwt beam="1">  1        2 0.20676227E+00 0.22829108E+04</pdfrwt>
<pdfrwt beam="2">  1       -1 0.14914885E+00 0.22829108E+04</pdfrwt>
<totfact> 0.57136171E+00</totfact>
</mgrwt>
</event>
<event>
12    7  0.1857704E-007  0.2404067E+04  0.7818608E-02  0.8437983E-01
          2   -1    0    0  501    0  0.00000000000E+00  0.00000000000E+00  0.13817932406E+04  0.13817932406E+04  0.00000000000E+00 0. -1.
         -1   -1    0    0    0  501 -0.00000000000E+00 -0.00000000000E+00 -0.10456587408E+04  0.10456587408E+04  0.00000000000E+00 0.  1.
         24    2    1    2    0    0 -0.62281295347E+03  0.54583769587E+03  0.75277812999E+03  0.11219443696E+04  0.79053717409E+02 0.  0.
        254    2    1    2    0    0  0.62281295347E+03 -0.54583769587E+03 -0.41664363021E+03  0.13055076118E+04  0.91919717400E+03 0.  0.
         23    2    4    4    0    0  0.69814540048E+03 -0.10838013516E+03 -0.46374238066E+03  0.85017889155E+03  0.92703279888E+02 0.  0.
         23    2    4    4    0    0 -0.75332447008E+02 -0.43745756071E+03  0.47098750450E+02  0.45532872028E+03  0.89787840041E+02 0.  0.
          2    1    3    3  502    0 -0.59685417807E+03  0.50279759760E+03  0.72093389156E+03  0.10624434150E+04  0.00000000000E+00 0. -1.
         -1    1    3    3    0  502 -0.25958775399E+02  0.43040098272E+02  0.31844238440E+02  0.59500954625E+02  0.00000000000E+00 0.  1.
         13    1    5    5    0    0  0.50482922690E+03 -0.11778634127E+03 -0.32156580377E+03  0.61002519348E+03  0.00000000000E+00 0. -1.
        -13    1    5    5    0    0  0.19331617358E+03  0.94062061032E+01 -0.14217657689E+03  0.24015369807E+03  0.00000000000E+00 0.  1.
          1    1    6    6  503    0 -0.96054129331E+02 -0.36157332436E+03  0.35121000853E+02  0.37575943016E+03  0.00000000000E+00 0. -1.
         -1    1    6    6    0  503  0.20721682323E+02 -0.75884236351E+02  0.11977749597E+02  0.79569290120E+02  0.00000000000E+00 0.  1.
<mgrwt>
<rscale>  0 0.24040667E+04</rscale>
<asrwt>0</asrwt>
<pdfrwt beam="1">  1        2 0.21258358E+00 0.24040667E+04</pdfrwt>
<pdfrwt beam="2">  1       -1 0.16087058E+00 0.24040667E+04</pdfrwt>
<totfact> 0.43700974E+00</totfact>
</mgrwt>
</event>
<event>
12    7  0.1857704E-007  0.1232583E+04  0.7818608E-02  0.9084805E-01
          2   -1    0    0  501    0  0.00000000000E+00  0.00000000000E+00  0.18772889018E+04  0.18772889018E+04  0.00000000000E+00 0. -1.
         -1   -1    0    0    0  501 -0.00000000000E+00 -0.00000000000E+00 -0.20232126934E+03  0.20232126934E+03  0.00000000000E+00 0.  1.
         24    2    1    2    0    0  0.99995811488E-01  0.20695510105E+03  0.60814691542E+03  0.64746033597E+03  0.80819503018E+02 0.  0.
        254    2    1    2    0    0 -0.99995811488E-01 -0.20695510105E+03  0.10668207170E+04  0.14321498352E+04  0.93280023810E+03 0.  0.
         23    2    4    4    0    0 -0.21359404941E+02  0.35389083125E+03  0.28052555503E+03  0.46122199111E+03  0.91302757025E+02 0.  0.
         23    2    4    4    0    0  0.21259409130E+02 -0.56084593230E+03  0.78629516200E+03  0.97092784404E+03  0.97163132378E+02 0.  0.
          2    1    3    3  502    0 -0.26618674228E+02  0.17383016449E+03  0.53087816784E+03  0.55924691236E+03  0.00000000000E+00 0. -1.
         -1    1    3    3    0  502  0.26718670040E+02  0.33124936561E+02  0.77268747585E+02  0.88213423605E+02  0.00000000000E+00 0.  1.
         13    1    5    5    0    0  0.35093202052E+02  0.10741887439E+03  0.94471895375E+02  0.14729319883E+03  0.00000000000E+00 0. -1.
        -13    1    5    5    0    0 -0.56452606993E+02  0.24647195687E+03  0.18605365965E+03  0.31392879229E+03  0.00000000000E+00 0.  1.
          1    1    6    6  503    0 -0.37634884460E+02 -0.28613891043E+03  0.40449755451E+03  0.49690052545E+03  0.00000000000E+00 0. -1.
         -1    1    6    6    0  503  0.58894293590E+02 -0.27470702187E+03  0.38179760749E+03  0.47402731859E+03  0.00000000000E+00 0.  1.
<mgrwt>
<rscale>  0 0.12325834E+04</rscale>
<asrwt>0</asrwt>
<pdfrwt beam="1">  1        2 0.28881367E+00 0.12325834E+04</pdfrwt>
<pdfrwt beam="2">  1       -1 0.31126350E-01 0.12325834E+04</pdfrwt>
<totfact> 0.83888540E+01</totfact>
</mgrwt>
</event>
<event>
12    7  0.1857704E-007  0.1337837E+04  0.7818608E-02  0.9000087E-01
          2   -1    0    0  501    0  0.00000000000E+00  0.00000000000E+00  0.15396110096E+04  0.15396110096E+04  0.00000000000E+00 0. -1.
         -1   -1    0    0    0  501 -0.00000000000E+00 -0.00000000000E+00 -0.29062675574E+03  0.29062675574E+03  0.00000000000E+00 0.  1.
         24    2    1    2    0    0  0.32239413806E+03 -0.14058918967E+02  0.66477558413E+03  0.74325145730E+03  0.79752856174E+02 0.  0.
        254    2    1    2    0    0 -0.32239413806E+03  0.14058918967E+02  0.58420866969E+03  0.10869863080E+04  0.85796493551E+03 0.  0.
         23    2    4    4    0    0 -0.24933169603E+03 -0.15418365264E+03 -0.13721648134E+03  0.33702115087E+03  0.93893556732E+02 0.  0.
         23    2    4    4    0    0 -0.73062442032E+02  0.16824257161E+03  0.72142515103E+03  0.74996515712E+03  0.91377267552E+02 0.  0.
          4    1    3    3  502    0  0.32284024722E+03 -0.18118059205E+02  0.66469072270E+03  0.73916699475E+03  0.00000000000E+00 0. -1.
         -3    1    3    3    0  502 -0.44610915752E+00  0.40591402381E+01  0.84861433530E-01  0.40844625492E+01  0.00000000000E+00 0.  1.
         13    1    5    5    0    0 -0.10557166566E+03 -0.24292707315E+02 -0.81052664311E+02  0.13529614411E+03  0.00000000000E+00 0.  1.
        -13    1    5    5    0    0 -0.14376003037E+03 -0.12989094533E+03 -0.56163817028E+02  0.20172500676E+03  0.00000000000E+00 0. -1.
          2    1    6    6  503    0 -0.57143685810E+02  0.14999528449E+03  0.45576354343E+03  0.48320222859E+03  0.00000000000E+00 0. -1.
         -2    1    6    6    0  503 -0.15918756222E+02  0.18247287121E+02  0.26566160760E+03  0.26676292853E+03  0.00000000000E+00 0.  1.
<mgrwt>
<rscale>  0 0.13378373E+04</rscale>
<asrwt>0</asrwt>
<pdfrwt beam="1">  1        2 0.23686323E+00 0.13378373E+04</pdfrwt>
<pdfrwt beam="2">  1       -1 0.44711810E-01 0.13378373E+04</pdfrwt>
<totfact> 0.66556914E+01</totfact>
</mgrwt>
</event>
<event>
12    7  0.1857704E-007  0.1685115E+04  0.7818608E-02  0.8769900E-01
          2   -1    0    0  501    0  0.00000000000E+00  0.00000000000E+00  0.16222234337E+04  0.16222234337E+04  0.00000000000E+00 0. -1.
         -1   -1    0    0    0  501 -0.00000000000E+00 -0.00000000000E+00 -0.43761127976E+03  0.43761127976E+03  0.00000000000E+00 0.  1.
         24    2    1    2    0    0 -0.46901749616E+03 -0.22722644916E+03  0.77396774080E+03  0.93642375182E+03  0.79082920166E+02 0.  0.
        254    2    1    2    0    0  0.46901749616E+03  0.22722644916E+03  0.41064441312E+03  0.11234109616E+04  0.90653962063E+03 0.  0.
         23    2    4    4    0    0  0.33903667519E+03 -0.10512245823E+03 -0.19377157606E+03  0.41539316076E+03  0.94907618084E+02 0.  0.
         23    2    4    4    0    0  0.12998082098E+03  0.33234890739E+03  0.60441598918E+03  0.70801780087E+03  0.92842384199E+02 0.  0.
          4    1    3    3  502    0 -0.21118629275E+03 -0.74458485830E+02  0.27836560531E+03  0.35725498818E+03  0.00000000000E+00 0. -1.
         -3    1    3    3    0  502 -0.25783120341E+03 -0.15276796333E+03  0.49560213549E+03  0.57916876364E+03  0.00000000000E+00 0.  1.
         13    1    5    5    0    0 -0.14215181623E+01 -0.97776589400E+00 -0.18460058738E+02  0.18540509935E+02  0.00000000000E+00 0.  1.
        -13    1    5    5    0    0  0.34045819335E+03 -0.10414469233E+03 -0.17531151732E+03  0.39685265082E+03  0.00000000000E+00 0. -1.
          1    1    6    6  503    0  0.12236568542E+03  0.29841884909E+03  0.47603063426E+03  0.57500637842E+03  0.00000000000E+00 0. -1.
         -1    1    6    6    0  503  0.76151355585E+01  0.33930058298E+02  0.12838535492E+03  0.13301142245E+03  0.00000000000E+00 0.  1.
<mgrwt>
<rscale>  0 0.16851152E+04</rscale>
<asrwt>0</asrwt>
<pdfrwt beam="1">  1        2 0.24957283E+00 0.16851152E+04</pdfrwt>
<pdfrwt beam="2">  1       -1 0.67324813E-01 0.16851152E+04</pdfrwt>
<totfact> 0.26282179E+01</totfact>
</mgrwt>
</event>
<event>
12    7  0.1857704E-007  0.1391594E+04  0.7818608E-02  0.8959926E-01
          2   -1    0    0  501    0  0.00000000000E+00  0.00000000000E+00  0.13989506526E+04  0.13989506526E+04  0.00000000000E+00 0. -1.
         -1   -1    0    0    0  501 -0.00000000000E+00 -0.00000000000E+00 -0.34606889229E+03  0.34606889229E+03  0.00000000000E+00 0.  1.
         24    2    1    2    0    0 -0.58694823444E+02 -0.84710199252E+02 -0.16533126054E+03  0.21026945210E+03  0.79106994734E+02 0.  0.
        254    2    1    2    0    0  0.58694823444E+02  0.84710199252E+02  0.12182130208E+04  0.15347500927E+04  0.92778983770E+03 0.  0.
         23    2    4    4    0    0  0.21648133068E+03 -0.34106118197E+03  0.31815333245E+03  0.52277337980E+03  0.94252677948E+02 0.  0.
         23    2    4    4    0    0 -0.15778650723E+03  0.42577138122E+03  0.90005968837E+03  0.10119767129E+04  0.88383109242E+02 0.  0.
          4    1    3    3  502    0 -0.67799978518E+02 -0.49919935073E+02 -0.73925569067E+02  0.11204386091E+03  0.00000000000E+00 0. -1.
         -3    1    3    3    0  502  0.91051550747E+01 -0.34790264180E+02 -0.91405691477E+02  0.98225591192E+02  0.00000000000E+00 0.  1.
         13    1    5    5    0    0  0.10941326186E+03 -0.99354749414E+02  0.14303780013E+03  0.20567557067E+03  0.00000000000E+00 0.  1.
        -13    1    5    5    0    0  0.10706806882E+03 -0.24170643255E+03  0.17511553231E+03  0.31709780913E+03  0.00000000000E+00 0. -1.
          3    1    6    6  503    0 -0.64677113330E+02  0.26853061786E+03  0.60228895051E+03  0.66260380441E+03  0.00000000000E+00 0. -1.
         -3    1    6    6    0  503 -0.93109393904E+02  0.15724076336E+03  0.29777073785E+03  0.34937290853E+03  0.00000000000E+00 0.  1.
<mgrwt>
<rscale>  0 0.13915938E+04</rscale>
<asrwt>0</asrwt>
<pdfrwt beam="1">  1        2 0.21522318E+00 0.13915938E+04</pdfrwt>
<pdfrwt beam="2">  1       -1 0.53241369E-01 0.13915938E+04</pdfrwt>
<totfact> 0.57220896E+01</totfact>
</mgrwt>
</event>
<event>
12    7  0.1857704E-007  0.1482914E+04  0.7818608E-02  0.8895895E-01
          2   -1    0    0  501    0  0.00000000000E+00  0.00000000000E+00  0.11088058407E+04  0.11088058407E+04  0.00000000000E+00 0. -1.
         -1   -1    0    0    0  501 -0.00000000000E+00 -0.00000000000E+00 -0.49581116199E+03  0.49581116199E+03  0.00000000000E+00 0.  1.
         24    2    1    2    0    0  0.15871007837E+02 -0.64682681848E+02  0.70050688910E+03  0.70970627655E+03  0.92397830465E+02 0.  0.
        254    2    1    2    0    0 -0.15871007837E+02  0.64682681848E+02 -0.87512210350E+02  0.89491072618E+03  0.88812785265E+03 0.  0.
         23    2    4    4    0    0 -0.14530688955E+03  0.27906821388E+03 -0.37898413016E+03  0.50039196012E+03  0.88147505313E+02 0.  0.
         23    2    4    4    0    0  0.12943588171E+03 -0.21438553203E+03  0.29147191981E+03  0.39451876606E+03  0.89299344414E+02 0.  0.
          2    1    3    3  502    0 -0.86325816405E+01 -0.73821192223E+02  0.63237182870E+03  0.63672460265E+03  0.00000000000E+00 0. -1.
         -1    1    3    3    0  502  0.24503589478E+02  0.91385103752E+01  0.68135060394E+02  0.72981673891E+02  0.00000000000E+00 0.  1.
         13    1    5    5    0    0 -0.45624279304E+02  0.18114226921E+03 -0.22566073493E+03  0.29294515501E+03  0.00000000000E+00 0.  1.
        -13    1    5    5    0    0 -0.99682610248E+02  0.97925944673E+02 -0.15332339523E+03  0.20744680511E+03  0.00000000000E+00 0. -1.
          4    1    6    6  503    0  0.18188238805E+02 -0.11148728958E+03  0.10488189347E+03  0.15414421607E+03  0.00000000000E+00 0.  1.
         -4    1    6    6    0  503  0.11124764291E+03 -0.10289824245E+03  0.18659002634E+03  0.24037454999E+03  0.00000000000E+00 0. -1.
<mgrwt>
<rscale>  0 0.14829138E+04</rscale>
<asrwt>0</asrwt>
<pdfrwt beam="1">  1        2 0.17058551E+00 0.14829138E+04</pdfrwt>
<pdfrwt beam="2">  1       -1 0.76278641E-01 0.14829138E+04</pdfrwt>
<totfact> 0.40970082E+01</totfact>
</mgrwt>
</event>
<event>
12    7  0.1857704E-007  0.2747450E+04  0.7818608E-02  0.8319771E-01
          2   -1    0    0  501    0  0.00000000000E+00  0.00000000000E+00  0.16270319192E+04  0.16270319192E+04  0.00000000000E+00 0. -1.
         -1   -1    0    0    0  501 -0.00000000000E+00 -0.00000000000E+00 -0.11598543392E+04  0.11598543392E+04  0.00000000000E+00 0.  1.
         24    2    1    2    0    0 -0.34263074004E+03  0.10496437163E+04  0.73369732315E+03  0.13280147815E+04  0.78509507828E+02 0.  0.
        254    2    1    2    0    0  0.34263074004E+03 -0.10496437163E+04 -0.26651974314E+03  0.14588714768E+04  0.91549192088E+03 0.  0.
         23    2    4    4    0    0  0.59695803567E+03 -0.92517608106E+03 -0.80629856656E+02  0.11080411047E+04  0.94573984295E+02 0.  0.
         23    2    4    4    0    0 -0.25432729563E+03 -0.12446763522E+03 -0.18588988648E+03  0.35083037215E+03  0.91391107915E+02 0.  0.
          2    1    3    3  502    0 -0.30307211681E+03  0.98409375931E+03  0.67078374673E+03  0.12289198794E+04  0.00000000000E+00 0. -1.
         -1    1    3    3    0  502 -0.39558623233E+02  0.65549956966E+02  0.62913576420E+02  0.99094902131E+02  0.00000000000E+00 0.  1.
         13    1    5    5    0    0  0.54894227173E+03 -0.88892969811E+03 -0.80742946884E+02  0.10478802648E+04  0.00000000000E+00 0.  1.
        -13    1    5    5    0    0  0.48015763937E+02 -0.36246382957E+02  0.11309022808E+00  0.60160839866E+02  0.00000000000E+00 0. -1.
          3    1    6    6  503    0 -0.16914745568E+03 -0.12605138935E+03 -0.14739616196E+03  0.25734304553E+03  0.00000000000E+00 0. -1.
         -3    1    6    6    0  503 -0.85179839944E+02  0.15837541388E+01 -0.38493724525E+02  0.93487326616E+02  0.00000000000E+00 0.  1.
<mgrwt>
<rscale>  0 0.27474497E+04</rscale>
<asrwt>0</asrwt>
<pdfrwt beam="1">  1        2 0.25031260E+00 0.27474497E+04</pdfrwt>
<pdfrwt beam="2">  1       -1 0.17843913E+00 0.27474497E+04</pdfrwt>
<totfact> 0.22886858E+00</totfact>
</mgrwt>
</event>
<event>
12    7  0.1857704E-007  0.1464468E+04  0.7818608E-02  0.8908431E-01
         -3   -1    0    0    0  501 -0.00000000000E+00  0.00000000000E+00  0.42152249189E+03  0.42152249189E+03  0.00000000000E+00 0.  1.
          2   -1    0    0  501    0  0.00000000000E+00 -0.00000000000E+00 -0.12719758873E+04  0.12719758873E+04  0.00000000000E+00 0. -1.
         24    2    1    2    0    0  0.37114307940E+03  0.36975297571E+02 -0.57143962803E+03  0.68658867408E+03  0.75805018764E+02 0.  0.
        254    2    1    2    0    0 -0.37114307940E+03 -0.36975297571E+02 -0.27901376736E+03  0.10069097051E+04  0.89269486041E+03 0.  0.
         23    2    4    4    0    0 -0.23030331357E+03 -0.44335265762E+03 -0.25362169582E+03  0.56677578763E+03  0.85496395189E+02 0.  0.
         23    2    4    4    0    0 -0.14083976584E+03  0.40637736005E+03 -0.25392071533E+02  0.44013391745E+03  0.89970604059E+02 0.  0.
          4    1    3    3  502    0  0.27475822329E+03  0.42516250267E+02 -0.47331643274E+03  0.54893365565E+03  0.00000000000E+00 0. -1.
         -3    1    3    3    0  502  0.96384856115E+02 -0.55409526965E+01 -0.98123195291E+02  0.13765501843E+03  0.00000000000E+00 0.  1.
         13    1    5    5    0    0 -0.12656791342E+03 -0.29004080813E+03 -0.11984912928E+03  0.33838871269E+03  0.00000000000E+00 0.  1.
        -13    1    5    5    0    0 -0.10373540015E+03 -0.15331184949E+03 -0.13377256655E+03  0.22838707494E+03  0.00000000000E+00 0. -1.
          3    1    6    6  503    0 -0.46469856964E+02  0.13213585522E+03  0.33895275384E+02  0.14411183690E+03  0.00000000000E+00 0. -1.
         -3    1    6    6    0  503 -0.94369908871E+02  0.27424150483E+03 -0.59287346917E+02  0.29602208056E+03  0.00000000000E+00 0.  1.
<mgrwt>
<rscale>  0 0.14644677E+04</rscale>
<asrwt>0</asrwt>
<pdfrwt beam="1">  1        2 0.19568860E+00 0.14644677E+04</pdfrwt>
<pdfrwt beam="2">  1       -3 0.64849614E-01 0.14644677E+04</pdfrwt>
<totfact> 0.24407829E+01</totfact>
</mgrwt>
</event>
<event>
12    7  0.1857704E-007  0.1305172E+04  0.7818608E-02  0.9025474E-01
          2   -1    0    0  501    0  0.00000000000E+00  0.00000000000E+00  0.17102591013E+04  0.17102591013E+04  0.00000000000E+00 0. -1.
         -1   -1    0    0    0  501 -0.00000000000E+00 -0.00000000000E+00 -0.24900814864E+03  0.24900814864E+03  0.00000000000E+00 0.  1.
         24    2    1    2    0    0  0.29625840319E+03  0.68177266954E+02  0.60556898417E+03  0.68237190022E+03  0.80625271648E+02 0.  0.
        254    2    1    2    0    0 -0.29625840319E+03 -0.68177266954E+02  0.85568196846E+03  0.12768953497E+04  0.89769311110E+03 0.  0.
         23    2    4    4    0    0 -0.38766302741E+03 -0.35462703842E+01  0.99780004580E+03  0.10743861259E+04  0.91681062276E+02 0.  0.
         23    2    4    4    0    0  0.91404624220E+02 -0.64630996570E+02 -0.14211807734E+03  0.20250922383E+03  0.90997070201E+02 0.  0.
          2    1    3    3  502    0  0.13178995050E+03  0.61822060073E+02  0.22827527727E+03  0.27074002359E+03  0.00000000000E+00 0. -1.
         -1    1    3    3    0  502  0.16446845270E+03  0.63552068815E+01  0.37729370690E+03  0.41163187663E+03  0.00000000000E+00 0.  1.
         13    1    5    5    0    0 -0.34499383152E+03 -0.13991647867E+02  0.94254485467E+03  0.10037964500E+04  0.00000000000E+00 0. -1.
        -13    1    5    5    0    0 -0.42669195890E+02  0.10445377482E+02  0.55255191130E+02  0.70589675842E+02  0.00000000000E+00 0.  1.
          3    1    6    6  503    0  0.47468407319E+02 -0.34898922257E+02 -0.13709796021E+03  0.14922142997E+03  0.00000000000E+00 0. -1.
         -3    1    6    6    0  503  0.43936216901E+02 -0.29732074313E+02 -0.50201171216E+01  0.53287793860E+02  0.00000000000E+00 0.  1.
<mgrwt>
<rscale>  0 0.13051719E+04</rscale>
<asrwt>0</asrwt>
<pdfrwt beam="1">  1        2 0.26311678E+00 0.13051719E+04</pdfrwt>
<pdfrwt beam="2">  1       -1 0.38308947E-01 0.13051719E+04</pdfrwt>
<totfact> 0.71204825E+01</totfact>
</mgrwt>
</event>
<event>
12    7  0.1857704E-007  0.1772517E+04  0.7818608E-02  0.8721053E-01
         -1   -1    0    0    0  501 -0.00000000000E+00  0.00000000000E+00  0.38254597743E+03  0.38254597743E+03  0.00000000000E+00 0.  1.
          2   -1    0    0  501    0  0.00000000000E+00 -0.00000000000E+00 -0.20532283643E+04  0.20532283643E+04  0.00000000000E+00 0. -1.
         24    2    1    2    0    0 -0.80629447145E+02  0.18965021093E+03  0.23123079707E+03  0.31981632835E+03  0.79664873799E+02 0.  0.
        254    2    1    2    0    0  0.80629447145E+02 -0.18965021093E+03 -0.19019131839E+04  0.21159580134E+04  0.90417710925E+03 0.  0.
         23    2    4    4    0    0  0.19048297738E+03 -0.25042975289E+03 -0.15543480629E+03  0.36257170454E+03  0.91101241076E+02 0.  0.
         23    2    4    4    0    0 -0.10985353023E+03  0.60779541961E+02 -0.17464783776E+04  0.17533863088E+04  0.91732620217E+02 0.  0.
          2    1    3    3  502    0 -0.21582812722E+02  0.36995611070E+02  0.89181492922E+01  0.43749587772E+02  0.00000000000E+00 0. -1.
         -3    1    3    3    0  502 -0.59046634423E+02  0.15265459986E+03  0.22231264778E+03  0.27606674058E+03  0.00000000000E+00 0.  1.
         13    1    5    5    0    0  0.84570972341E+02 -0.56521672304E+02 -0.78939769625E+02  0.12875727564E+03  0.00000000000E+00 0. -1.
        -13    1    5    5    0    0  0.10591200504E+03 -0.19390808058E+03 -0.76495036665E+02  0.23381442890E+03  0.00000000000E+00 0.  1.
          3    1    6    6  503    0 -0.71992806932E+02 -0.10037806863E+02 -0.67487003846E+03  0.67877337207E+03  0.00000000000E+00 0. -1.
         -3    1    6    6    0  503 -0.37860723301E+02  0.70817348824E+02 -0.10716083392E+04  0.10746129367E+04  0.00000000000E+00 0.  1.
<mgrwt>
<rscale>  0 0.17725171E+04</rscale>
<asrwt>0</asrwt>
<pdfrwt beam="1">  1        2 0.31588128E+00 0.17725171E+04</pdfrwt>
<pdfrwt beam="2">  1       -1 0.58853228E-01 0.17725171E+04</pdfrwt>
<totfact> 0.19676488E+01</totfact>
</mgrwt>
</event>
<event>
12    7  0.1857704E-007  0.1428497E+04  0.7818608E-02  0.8933446E-01
          2   -1    0    0  501    0  0.00000000000E+00  0.00000000000E+00  0.87545384285E+03  0.87545384285E+03  0.00000000000E+00 0. -1.
         -1   -1    0    0    0  501 -0.00000000000E+00 -0.00000000000E+00 -0.58272699437E+03  0.58272699437E+03  0.00000000000E+00 0.  1.
         24    2    1    2    0    0 -0.23112044879E+03 -0.20398030806E+03 -0.19992734993E+03  0.37568801690E+03  0.78395872797E+02 0.  0.
        254    2    1    2    0    0  0.23112044879E+03  0.20398030806E+03  0.49265419841E+03  0.10824928203E+04  0.91326771481E+03 0.  0.
         23    2    4    4    0    0 -0.22842000760E+03  0.33723915091E+03  0.41723541705E+03  0.59003926317E+03  0.90305005744E+02 0.  0.
         23    2    4    4    0    0  0.45954045638E+03 -0.13325884285E+03  0.75418781366E+02  0.49245355715E+03  0.88809701713E+02 0.  0.
          4    1    3    3  502    0 -0.65464900802E+02 -0.48599718946E+02 -0.15223683523E+02  0.82941825749E+02  0.00000000000E+00 0. -1.
         -3    1    3    3    0  502 -0.16565554799E+03 -0.15538058911E+03 -0.18470366640E+03  0.29274619115E+03  0.00000000000E+00 0.  1.
         13    1    5    5    0    0 -0.78831510276E+02  0.11427592446E+03  0.20598797613E+03  0.24840378466E+03  0.00000000000E+00 0. -1.
        -13    1    5    5    0    0 -0.14958849732E+03  0.22296322645E+03  0.21124744092E+03  0.34163547850E+03  0.00000000000E+00 0.  1.
          3    1    6    6  503    0  0.57517110195E+02  0.11903071144E+02  0.20303636692E+01  0.58770940476E+02  0.00000000000E+00 0. -1.
         -3    1    6    6    0  503  0.40202334619E+03 -0.14516191399E+03  0.73388417697E+02  0.43368261668E+03  0.00000000000E+00 0.  1.
<mgrwt>
<rscale>  0 0.14284965E+04</rscale>
<asrwt>0</asrwt>
<pdfrwt beam="1">  1        2 0.13468521E+00 0.14284965E+04</pdfrwt>
<pdfrwt beam="2">  1       -1 0.89650307E-01 0.14284965E+04</pdfrwt>
<totfact> 0.41178321E+01</totfact>
</mgrwt>
</event>
<event>
12    7  0.1857704E-007  0.3323479E+04  0.7818608E-02  0.8156947E-01
         -1   -1    0    0    0  501 -0.00000000000E+00  0.00000000000E+00  0.95355649579E+03  0.95355649579E+03  0.00000000000E+00 0.  1.
          2   -1    0    0  501    0  0.00000000000E+00 -0.00000000000E+00 -0.28958734622E+04  0.28958734622E+04  0.00000000000E+00 0. -1.
         24    2    1    2    0    0 -0.14122553439E+04 -0.61265330177E+03 -0.79606401914E+03  0.17349050269E+04  0.79801662113E+02 0.  0.
        254    2    1    2    0    0  0.14122553439E+04  0.61265330177E+03 -0.11462529473E+04  0.21145249311E+04  0.88741796286E+03 0.  0.
         23    2    4    4    0    0  0.18816679638E+03  0.35814982418E+03  0.12797057313E+01  0.41502629313E+03  0.92558881419E+02 0.  0.
         23    2    4    4    0    0  0.12240885475E+04  0.25450347759E+03 -0.11475326530E+04  0.16994986380E+04  0.91102352570E+02 0.  0.
          4    1    3    3  502    0 -0.75082222963E+03 -0.35750366966E+03 -0.39924154815E+03  0.92246230714E+03  0.00000000000E+00 0. -1.
         -3    1    3    3    0  502 -0.66143311423E+03 -0.25514963211E+03 -0.39682247099E+03  0.81244271973E+03  0.00000000000E+00 0.  1.
         13    1    5    5    0    0 -0.40743176769E+01  0.10128743045E+02 -0.13256950766E+02  0.17173766151E+02  0.00000000000E+00 0. -1.
        -13    1    5    5    0    0  0.19224111405E+03  0.34802108113E+03  0.14536656497E+02  0.39785252698E+03  0.00000000000E+00 0.  1.
          2    1    6    6  503    0  0.66133866555E+03  0.17811582318E+03 -0.65684538155E+03  0.94896782468E+03  0.00000000000E+00 0. -1.
         -2    1    6    6    0  503  0.56274988193E+03  0.76387654411E+02 -0.49068727147E+03  0.75053081332E+03  0.00000000000E+00 0.  1.
<mgrwt>
<rscale>  0 0.33234795E+04</rscale>
<asrwt>0</asrwt>
<pdfrwt beam="1">  1        2 0.44551899E+00 0.33234795E+04</pdfrwt>
<pdfrwt beam="2">  1       -1 0.14670100E+00 0.33234795E+04</pdfrwt>
<totfact> 0.70829654E-01</totfact>
</mgrwt>
</event>
<event>
12    7  0.1857704E-007  0.3165868E+04  0.7818608E-02  0.8197890E-01
         -1   -1    0    0    0  501 -0.00000000000E+00  0.00000000000E+00  0.10176233721E+04  0.10176233721E+04  0.00000000000E+00 0.  1.
          2   -1    0    0  501    0  0.00000000000E+00 -0.00000000000E+00 -0.24622869053E+04  0.24622869053E+04  0.00000000000E+00 0. -1.
         24    2    1    2    0    0 -0.89732029992E+03 -0.88504822103E+03  0.13135407298E+03  0.12696672517E+04  0.79416392930E+02 0.  0.
        254    2    1    2    0    0  0.89732029992E+03  0.88504822103E+03 -0.15760176062E+04  0.22102430257E+04  0.90158120176E+03 0.  0.
         23    2    4    4    0    0  0.96658657729E+03  0.44886953591E+03 -0.12921858199E+04  0.16774743603E+04  0.91665504212E+02 0.  0.
         23    2    4    4    0    0 -0.69266277376E+02  0.43617868512E+03 -0.28383178631E+03  0.53276866539E+03  0.90732052627E+02 0.  0.
          4    1    3    3  502    0 -0.32930732965E+03 -0.32327940063E+03  0.86619109579E+02  0.46952716468E+03  0.00000000000E+00 0. -1.
         -3    1    3    3    0  502 -0.56801297027E+03 -0.56176882040E+03  0.44734963404E+02  0.80014008706E+03  0.00000000000E+00 0.  1.
         13    1    5    5    0    0  0.22580390860E+03  0.10541916439E+03 -0.36560686741E+03  0.44245789275E+03  0.00000000000E+00 0.  1.
        -13    1    5    5    0    0  0.74078266870E+03  0.34345037152E+03 -0.92657895244E+03  0.12350164675E+04  0.00000000000E+00 0. -1.
          3    1    6    6  503    0 -0.73945459847E+02  0.43066543157E+03 -0.28899076170E+03  0.52388577508E+03  0.00000000000E+00 0. -1.
         -3    1    6    6    0  503  0.46791824713E+01  0.55132535442E+01  0.51589753902E+01  0.88828903133E+01  0.00000000000E+00 0.  1.
<mgrwt>
<rscale>  0 0.31658684E+04</rscale>
<asrwt>0</asrwt>
<pdfrwt beam="1">  1        2 0.37881336E+00 0.31658684E+04</pdfrwt>
<pdfrwt beam="2">  1       -1 0.15655744E+00 0.31658684E+04</pdfrwt>
<totfact> 0.10904675E+00</totfact>
</mgrwt>
</event>
<event>
12    7  0.1857704E-007  0.2048073E+04  0.7818608E-02  0.8584469E-01
         -1   -1    0    0    0  501 -0.00000000000E+00  0.00000000000E+00  0.31291580725E+03  0.31291580725E+03  0.00000000000E+00 0.  1.
          2   -1    0    0  501    0  0.00000000000E+00 -0.00000000000E+00 -0.33512228593E+04  0.33512228593E+04  0.00000000000E+00 0. -1.
         24    2    1    2    0    0  0.34764211384E+03 -0.68533599312E+03 -0.17617158427E+04  0.19236879312E+04  0.79950504603E+02 0.  0.
        254    2    1    2    0    0 -0.34764211384E+03  0.68533599312E+03 -0.12765912093E+04  0.17404507354E+04  0.89941268828E+03 0.  0.
         23    2    4    4    0    0  0.10392511152E+03  0.70685020682E+03 -0.76781656934E+03  0.10535170981E+04  0.99590904138E+02 0.  0.
         23    2    4    4    0    0 -0.45156722535E+03 -0.21514213698E+02 -0.50877463996E+03  0.68693363726E+03  0.93007350972E+02 0.  0.
          2    1    3    3  502    0  0.24937799298E+03 -0.47396614822E+03 -0.11345461241E+04  0.12546028059E+04  0.00000000000E+00 0. -1.
         -1    1    3    3    0  502  0.98264120855E+02 -0.21136984490E+03 -0.62716971867E+03  0.66908512523E+03  0.00000000000E+00 0.  1.
         13    1    5    5    0    0  0.11977055243E+02  0.32424873875E+03 -0.29655527985E+03  0.43957448566E+03  0.00000000000E+00 0. -1.
        -13    1    5    5    0    0  0.91948056275E+02  0.38260146806E+03 -0.47126128950E+03  0.61394261246E+03  0.00000000000E+00 0.  1.
          1    1    6    6  503    0 -0.57892478370E+02  0.44748154146E+00 -0.11987991294E+03  0.13312750587E+03  0.00000000000E+00 0. -1.
         -1    1    6    6    0  503 -0.39367474698E+03 -0.21961695240E+02 -0.38889472701E+03  0.55380613139E+03  0.00000000000E+00 0.  1.
<mgrwt>
<rscale>  0 0.20480729E+04</rscale>
<asrwt>0</asrwt>
<pdfrwt beam="1">  1        2 0.51557276E+00 0.20480729E+04</pdfrwt>
<pdfrwt beam="2">  1       -1 0.48140893E-01 0.20480729E+04</pdfrwt>
<totfact> 0.46941255E+00</totfact>
</mgrwt>
</event>
<event>
12    7  0.1857704E-007  0.1627876E+04  0.7818608E-02  0.8803604E-01
          2   -1    0    0  501    0  0.00000000000E+00  0.00000000000E+00  0.29911245290E+04  0.29911245290E+04  0.00000000000E+00 0. -1.
         -1   -1    0    0    0  501 -0.00000000000E+00 -0.00000000000E+00 -0.22148682908E+03  0.22148682908E+03  0.00000000000E+00 0.  1.
         24    2    1    2    0    0 -0.14907370004E+03  0.21544971395E+03  0.19422256475E+04  0.19613280162E+04  0.76977751131E+02 0.  0.
        254    2    1    2    0    0  0.14907370004E+03 -0.21544971395E+03  0.82741205245E+03  0.12512833419E+04  0.90136438239E+03 0.  0.
         23    2    4    4    0    0  0.83640419979E+02  0.18260792047E+03 -0.93757232908E+02  0.24150380125E+03  0.95876456026E+02 0.  0.
         23    2    4    4    0    0  0.65433280061E+02 -0.39805763443E+03  0.92116928536E+03  0.10097795406E+04  0.91490294235E+02 0.  0.
          2    1    3    3  502    0 -0.80087339746E+02  0.12132841756E+03  0.13429733336E+04  0.13508189892E+04  0.00000000000E+00 0. -1.
         -1    1    3    3    0  502 -0.68986360293E+02  0.94121296400E+02  0.59925231388E+03  0.61050902699E+03  0.00000000000E+00 0.  1.
         13    1    5    5    0    0  0.53112599533E+02  0.93350033831E+02 -0.10028645546E+03  0.14694403763E+03  0.00000000000E+00 0.  1.
        -13    1    5    5    0    0  0.30527820446E+02  0.89257886641E+02  0.65292225499E+01  0.94559763620E+02  0.00000000000E+00 0. -1.
          2    1    6    6  503    0  0.33323242395E+01 -0.10361654160E+03  0.15340788520E+03  0.18515256228E+03  0.00000000000E+00 0. -1.
         -2    1    6    6    0  503  0.62100955821E+02 -0.29444109282E+03  0.76776140016E+03  0.82462697836E+03  0.00000000000E+00 0.  1.
<mgrwt>
<rscale>  0 0.16278755E+04</rscale>
<asrwt>0</asrwt>
<pdfrwt beam="1">  1        2 0.46017298E+00 0.16278755E+04</pdfrwt>
<pdfrwt beam="2">  1       -1 0.34074899E-01 0.16278755E+04</pdfrwt>
<totfact> 0.15731329E+01</totfact>
</mgrwt>
</event>
<event>
12    7  0.1857704E-007  0.1239030E+04  0.7818608E-02  0.9079363E-01
          2   -1    0    0  501    0  0.00000000000E+00  0.00000000000E+00  0.96166905469E+03  0.96166905469E+03  0.00000000000E+00 0. -1.
         -1   -1    0    0    0  501 -0.00000000000E+00 -0.00000000000E+00 -0.39909669028E+03  0.39909669028E+03  0.00000000000E+00 0.  1.
         24    2    1    2    0    0  0.57123827785E+02  0.26499376842E+03  0.23160054797E+03  0.36537120057E+03  0.79827760708E+02 0.  0.
        254    2    1    2    0    0 -0.57123827785E+02 -0.26499376842E+03  0.33097181643E+03  0.99539454440E+03  0.89876755991E+03 0.  0.
         23    2    4    4    0    0  0.34224576049E+03 -0.33677128255E+03  0.31151042669E+03  0.57942139922E+03  0.90240537494E+02 0.  0.
         23    2    4    4    0    0 -0.39936958828E+03  0.71777514125E+02  0.19461389741E+02  0.41597314518E+03  0.89480904372E+02 0.  0.
          4    1    3    3  502    0  0.59535014675E+02  0.17296108365E+03  0.19189230476E+03  0.26510867783E+03  0.00000000000E+00 0. -1.
         -3    1    3    3    0  502 -0.24111868909E+01  0.92032684767E+02  0.39708243211E+02  0.10026252274E+03  0.00000000000E+00 0.  1.
         13    1    5    5    0    0  0.33335394076E+03 -0.30915219191E+03  0.26998856582E+03  0.52876625578E+03  0.00000000000E+00 0. -1.
        -13    1    5    5    0    0  0.88918197354E+01 -0.27619090634E+02  0.41521860874E+02  0.50655143431E+02  0.00000000000E+00 0.  1.
          2    1    6    6  503    0 -0.30415065117E+03  0.92773414754E+02  0.16875757336E+02  0.31843259299E+03  0.00000000000E+00 0. -1.
         -2    1    6    6    0  503 -0.95218937111E+02 -0.20995900629E+02  0.25856324051E+01  0.97540552196E+02  0.00000000000E+00 0.  1.
<mgrwt>
<rscale>  0 0.12390302E+04</rscale>
<asrwt>0</asrwt>
<pdfrwt beam="1">  1        2 0.14794908E+00 0.12390302E+04</pdfrwt>
<pdfrwt beam="2">  1       -1 0.61399491E-01 0.12390302E+04</pdfrwt>
<totfact> 0.80588097E+01</totfact>
</mgrwt>
</event>
<event>
12    7  0.1857704E-007  0.1550139E+04  0.7818608E-02  0.8851779E-01
         -1   -1    0    0    0  501 -0.00000000000E+00  0.00000000000E+00  0.98845583854E+03  0.98845583854E+03  0.00000000000E+00 0.  1.
          2   -1    0    0  501    0  0.00000000000E+00 -0.00000000000E+00 -0.60774830608E+03  0.60774830608E+03  0.00000000000E+00 0. -1.
         24    2    1    2    0    0  0.41608968380E+03  0.27877700488E+03  0.22096369369E+03  0.55296984466E+03  0.78124591278E+02 0.  0.
        254    2    1    2    0    0 -0.41608968380E+03 -0.27877700488E+03  0.15974383877E+03  0.10432343000E+04  0.90109514879E+03 0.  0.
         23    2    4    4    0    0 -0.11518854659E+03 -0.57928884882E+03  0.96431991223E+02  0.60546966263E+03  0.91926121432E+02 0.  0.
         23    2    4    4    0    0 -0.30090113721E+03  0.30051184393E+03  0.63311847548E+02  0.43776463734E+03  0.82344550207E+02 0.  0.
          2    1    3    3  502    0  0.21907424446E+01 -0.23014576960E+01 -0.33953535873E+01  0.46502135400E+01  0.00000000000E+00 0. -1.
         -1    1    3    3    0  502  0.41389894136E+03  0.28107846258E+03  0.22435904728E+03  0.54831963112E+03  0.00000000000E+00 0.  1.
         13    1    5    5    0    0 -0.12796449683E+03 -0.47322051764E+03  0.67954890706E+02  0.49490447354E+03  0.00000000000E+00 0. -1.
        -13    1    5    5    0    0  0.12775950235E+02 -0.10606833117E+03  0.28477100517E+02  0.11056518908E+03  0.00000000000E+00 0.  1.
          3    1    6    6  503    0 -0.11863439520E+03  0.17650295910E+03  0.34140723108E+02  0.21539035092E+03  0.00000000000E+00 0. -1.
         -3    1    6    6    0  503 -0.18226674201E+03  0.12400888483E+03  0.29171124441E+02  0.22237428642E+03  0.00000000000E+00 0.  1.
<mgrwt>
<rscale>  0 0.15501385E+04</rscale>
<asrwt>0</asrwt>
<pdfrwt beam="1">  1        2 0.93499739E-01 0.15501385E+04</pdfrwt>
<pdfrwt beam="2">  1       -1 0.15207013E+00 0.15501385E+04</pdfrwt>
<totfact> 0.18055103E+01</totfact>
</mgrwt>
</event>
<event>
12    7  0.1857704E-007  0.1535621E+04  0.7818608E-02  0.8861105E-01
         -1   -1    0    0    0  501 -0.00000000000E+00  0.00000000000E+00  0.61006610549E+03  0.61006610549E+03  0.00000000000E+00 0.  1.
          2   -1    0    0  501    0  0.00000000000E+00 -0.00000000000E+00 -0.96634328173E+03  0.96634328173E+03  0.00000000000E+00 0. -1.
         24    2    1    2    0    0 -0.29705688328E+03  0.11129351713E+03 -0.51104334799E+03  0.60673300245E+03  0.79565029191E+02 0.  0.
        254    2    1    2    0    0  0.29705688328E+03 -0.11129351713E+03  0.15476617175E+03  0.96967638478E+03  0.90315595797E+03 0.  0.
         23    2    4    4    0    0 -0.12158116434E+03  0.30688792467E+03 -0.20690258592E+02  0.34602280359E+03  0.10169324447E+03 0.  0.
         23    2    4    4    0    0  0.41863804763E+03 -0.41818144181E+03  0.17545643035E+03  0.62365358119E+03  0.89584023069E+02 0.  0.
          4    1    3    3  502    0 -0.29586990062E+03  0.10489776459E+03 -0.51157155471E+03  0.60020662667E+03  0.00000000000E+00 0. -1.
         -3    1    3    3    0  502 -0.11869826647E+01  0.63957525426E+01  0.52820672129E+00  0.65263757763E+01  0.00000000000E+00 0.  1.
         13    1    5    5    0    0 -0.61909957455E+02  0.74646920793E+02  0.28839022628E+02  0.10117655283E+03  0.00000000000E+00 0.  1.
        -13    1    5    5    0    0 -0.59671206890E+02  0.23224100388E+03 -0.49529281220E+02  0.24484625076E+03  0.00000000000E+00 0. -1.
          1    1    6    6  503    0  0.21438216279E+03 -0.25633095237E+03  0.13277074099E+03  0.35957382903E+03  0.00000000000E+00 0. -1.
         -1    1    6    6    0  503  0.20425588484E+03 -0.16185048944E+03  0.42685689359E+02  0.26407975215E+03  0.00000000000E+00 0.  1.
<mgrwt>
<rscale>  0 0.15356214E+04</rscale>
<asrwt>0</asrwt>
<pdfrwt beam="1">  1        2 0.14866820E+00 0.15356214E+04</pdfrwt>
<pdfrwt beam="2">  1       -1 0.93856325E-01 0.15356214E+04</pdfrwt>
<totfact> 0.32052066E+01</totfact>
</mgrwt>
</event>
<event>
12    7  0.1857704E-007  0.1677534E+04  0.7818608E-02  0.8774282E-01
          2   -1    0    0  501    0  0.00000000000E+00  0.00000000000E+00  0.29574870634E+04  0.29574870634E+04  0.00000000000E+00 0. -1.
         -1   -1    0    0    0  501 -0.00000000000E+00 -0.00000000000E+00 -0.23788111463E+03  0.23788111463E+03  0.00000000000E+00 0.  1.
         24    2    1    2    0    0 -0.63898096333E+02  0.43160920901E+03  0.19796287963E+03  0.48498602105E+03  0.75184193066E+02 0.  0.
        254    2    1    2    0    0  0.63898096333E+02 -0.43160920901E+03  0.25216430691E+04  0.27103821570E+04  0.89281475832E+03 0.  0.
         23    2    4    4    0    0 -0.21165246468E+03  0.17378927244E+03  0.11166968280E+04  0.11532922681E+04  0.89843046021E+02 0.  0.
         23    2    4    4    0    0  0.27555056101E+03 -0.60539848145E+03  0.14049462411E+04  0.15570898889E+04  0.90661726131E+02 0.  0.
          2    1    3    3  502    0 -0.23812671401E+02  0.41450766831E+02  0.55696637737E+01  0.48127232880E+02  0.00000000000E+00 0. -1.
         -1    1    3    3    0  502 -0.40085424932E+02  0.39015844218E+03  0.19239321585E+03  0.43685878817E+03  0.00000000000E+00 0.  1.
         13    1    5    5    0    0 -0.14943884292E+03  0.69892480976E+02  0.71212942679E+03  0.73098922508E+03  0.00000000000E+00 0. -1.
        -13    1    5    5    0    0 -0.62213621758E+02  0.10389679147E+03  0.40456740122E+03  0.42230304302E+03  0.00000000000E+00 0.  1.
          3    1    6    6  503    0  0.23671926438E+03 -0.43861972898E+03  0.99639759568E+03  0.11141056707E+04  0.00000000000E+00 0. -1.
         -3    1    6    6    0  503  0.38831296631E+02 -0.16677875248E+03  0.40854864544E+03  0.44298421819E+03  0.00000000000E+00 0.  1.
<mgrwt>
<rscale>  0 0.16775343E+04</rscale>
<asrwt>0</asrwt>
<pdfrwt beam="1">  1        2 0.45499798E+00 0.16775343E+04</pdfrwt>
<pdfrwt beam="2">  1       -1 0.36597097E-01 0.16775343E+04</pdfrwt>
<totfact> 0.14453513E+01</totfact>
</mgrwt>
</event>
<event>
12    7  0.1857704E-007  0.1155260E+04  0.7818608E-02  0.9152945E-01
         -1   -1    0    0    0  501 -0.00000000000E+00  0.00000000000E+00  0.22258297427E+03  0.22258297427E+03  0.00000000000E+00 0.  1.
          2   -1    0    0  501    0  0.00000000000E+00 -0.00000000000E+00 -0.14990193195E+04  0.14990193195E+04  0.00000000000E+00 0. -1.
         24    2    1    2    0    0 -0.11497734619E+03 -0.26327234416E+02 -0.51539369623E+03  0.53481774975E+03  0.80538499685E+02 0.  0.
        254    2    1    2    0    0  0.11497734619E+03  0.26327234416E+02 -0.76104264898E+03  0.11867845440E+04  0.90297216286E+03 0.  0.
         23    2    4    4    0    0  0.24390179947E+03  0.26449671986E+02 -0.92353005688E+03  0.95993413026E+03  0.91531937283E+02 0.  0.
         23    2    4    4    0    0 -0.12892445328E+03 -0.12243757023E+00  0.16248740790E+03  0.22685041374E+03  0.91855445368E+02 0.  0.
          4    1    3    3  502    0 -0.12708869574E+03 -0.27227146846E+02 -0.45419306755E+03  0.47242374699E+03  0.00000000000E+00 0. -1.
         -3    1    3    3    0  502  0.12111349549E+02  0.89991243005E+00 -0.61200628679E+02  0.62394002765E+02  0.00000000000E+00 0.  1.
         13    1    5    5    0    0  0.11028330924E+03 -0.25138940958E+02 -0.31250092087E+03  0.33234199282E+03  0.00000000000E+00 0.  1.
        -13    1    5    5    0    0  0.13361849022E+03  0.51588612944E+02 -0.61102913602E+03  0.62759213744E+03  0.00000000000E+00 0. -1.
          3    1    6    6  503    0 -0.61152816346E+02  0.41964164058E+02  0.10485649150E+03  0.12843497118E+03  0.00000000000E+00 0. -1.
         -3    1    6    6    0  503 -0.67771636930E+02 -0.42086601629E+02  0.57630916398E+02  0.98415442557E+02  0.00000000000E+00 0.  1.
<mgrwt>
<rscale>  0 0.11552596E+04</rscale>
<asrwt>0</asrwt>
<pdfrwt beam="1">  1        2 0.23061836E+00 0.11552596E+04</pdfrwt>
<pdfrwt beam="2">  1       -1 0.34243535E-01 0.11552596E+04</pdfrwt>
<totfact> 0.11557551E+02</totfact>
</mgrwt>
</event>
<event>
12    7  0.1857704E-007  0.1898921E+04  0.7818608E-02  0.8655393E-01
         -1   -1    0    0    0  501 -0.00000000000E+00  0.00000000000E+00  0.60936302037E+03  0.60936302037E+03  0.00000000000E+00 0.  1.
          2   -1    0    0  501    0  0.00000000000E+00 -0.00000000000E+00 -0.14793735395E+04  0.14793735395E+04  0.00000000000E+00 0. -1.
         24    2    1    2    0    0 -0.21704029215E+03  0.56029071104E+03  0.11831287199E+03  0.61767370886E+03  0.80564915682E+02 0.  0.
        254    2    1    2    0    0  0.21704029215E+03 -0.56029071104E+03 -0.98832339108E+03  0.14710628510E+04  0.90896128457E+03 0.  0.
         23    2    4    4    0    0  0.19855086198E+03 -0.51934703651E+03 -0.94307710486E+02  0.57133255880E+03  0.91559594601E+02 0.  0.
         23    2    4    4    0    0  0.18489430168E+02 -0.40943674530E+02 -0.89401568060E+03  0.89973029217E+03  0.90732122106E+02 0.  0.
          2    1    3    3  502    0 -0.41576925976E+02  0.52151651571E+02 -0.22710851328E+01  0.66735248279E+02  0.00000000000E+00 0. -1.
         -1    1    3    3    0  502 -0.17546336617E+03  0.50813905947E+03  0.12058395713E+03  0.55093846058E+03  0.00000000000E+00 0.  1.
         13    1    5    5    0    0  0.61468570252E+02 -0.27605617152E+03 -0.27142810061E+02  0.28411639710E+03  0.00000000000E+00 0. -1.
        -13    1    5    5    0    0  0.13708229173E+03 -0.24329086499E+03 -0.67164900425E+02  0.28721616170E+03  0.00000000000E+00 0.  1.
          1    1    6    6  503    0  0.52951856649E+02 -0.23510416582E+02 -0.39552411442E+03  0.39974487352E+03  0.00000000000E+00 0. -1.
         -1    1    6    6    0  503 -0.34462426481E+02 -0.17433257949E+02 -0.49849156617E+03  0.49998541865E+03  0.00000000000E+00 0.  1.
<mgrwt>
<rscale>  0 0.18989213E+04</rscale>
<asrwt>0</asrwt>
<pdfrwt beam="1">  1        2 0.22759593E+00 0.18989213E+04</pdfrwt>
<pdfrwt beam="2">  1       -1 0.93748158E-01 0.18989213E+04</pdfrwt>
<totfact> 0.15352304E+01</totfact>
</mgrwt>
</event>
<event>
12    7  0.1857704E-007  0.1460748E+04  0.7818608E-02  0.8910983E-01
          2   -1    0    0  501    0  0.00000000000E+00  0.00000000000E+00  0.48868569930E+03  0.48868569930E+03  0.00000000000E+00 0. -1.
         -1   -1    0    0    0  501 -0.00000000000E+00 -0.00000000000E+00 -0.10915939866E+04  0.10915939866E+04  0.00000000000E+00 0.  1.
         24    2    1    2    0    0  0.82861750741E+02 -0.44877366489E+03 -0.17293913361E+03  0.49416851647E+03  0.77657624947E+02 0.  0.
        254    2    1    2    0    0 -0.82861750741E+02  0.44877366489E+03 -0.42996915366E+03  0.10861111694E+04  0.88684842399E+03 0.  0.
         23    2    4    4    0    0 -0.13776168808E+03 -0.18004607232E+03 -0.37362463211E+03  0.44670444361E+03  0.92491206955E+02 0.  0.
         23    2    4    4    0    0  0.54899937340E+02  0.62881973720E+03 -0.56344521550E+02  0.63940672577E+03  0.85076382364E+02 0.  0.
          4    1    3    3  502    0  0.69503774615E+02 -0.30698090747E+03 -0.15428686147E+03  0.35053172161E+03  0.00000000000E+00 0. -1.
         -3    1    3    3    0  502  0.13357976126E+02 -0.14179275742E+03 -0.18652272138E+02  0.14363679486E+03  0.00000000000E+00 0.  1.
         13    1    5    5    0    0 -0.78403895800E+02 -0.33264335080E+02 -0.10896547880E+03  0.13830098494E+03  0.00000000000E+00 0. -1.
        -13    1    5    5    0    0 -0.59357792281E+02 -0.14678173724E+03 -0.26465915331E+03  0.30840345868E+03  0.00000000000E+00 0.  1.
          4    1    6    6  503    0 -0.22500007036E+02  0.14658750295E+03 -0.20089454011E+02  0.14965872010E+03  0.00000000000E+00 0. -1.
         -4    1    6    6    0  503  0.77399944376E+02  0.48223223425E+03 -0.36255067538E+02  0.48974800567E+03  0.00000000000E+00 0.  1.
<mgrwt>
<rscale>  0 0.14607483E+04</rscale>
<asrwt>0</asrwt>
<pdfrwt beam="1">  1        2 0.75182416E-01 0.14607483E+04</pdfrwt>
<pdfrwt beam="2">  1       -1 0.16793753E+00 0.14607483E+04</pdfrwt>
<totfact> 0.17855463E+01</totfact>
</mgrwt>
</event>
<event>
12    7  0.1857704E-007  0.1637255E+04  0.7818608E-02  0.8797982E-01
          2   -1    0    0  501    0  0.00000000000E+00  0.00000000000E+00  0.10645186192E+04  0.10645186192E+04  0.00000000000E+00 0. -1.
         -1   -1    0    0    0  501 -0.00000000000E+00 -0.00000000000E+00 -0.62953440450E+03  0.62953440450E+03  0.00000000000E+00 0.  1.
         24    2    1    2    0    0 -0.36130977542E+02 -0.41790511429E+03  0.55020884284E+03  0.69392281885E+03  0.53375796913E+02 0.  0.
        254    2    1    2    0    0  0.36130977542E+02  0.41790511429E+03 -0.11522462817E+03  0.10001302048E+04  0.90057402782E+03 0.  0.
         23    2    4    4    0    0  0.87175938595E+02 -0.19656506951E+03  0.19793981443E+03  0.30287472183E+03  0.79469844378E+02 0.  0.
         23    2    4    4    0    0 -0.51044961053E+02  0.61447018380E+03 -0.31316444260E+03  0.69725548299E+03  0.88960921935E+02 0.  0.
          4    1    3    3  502    0  0.13210588301E+02 -0.11854699053E+03  0.14655119066E+03  0.18895809083E+03  0.00000000000E+00 0. -1.
         -3    1    3    3    0  502 -0.49341565843E+02 -0.29935812376E+03  0.40365765218E+03  0.50496472802E+03  0.00000000000E+00 0.  1.
         13    1    5    5    0    0 -0.10909121762E+02 -0.44761382170E+02  0.59277038117E+02  0.75075678614E+02  0.00000000000E+00 0. -1.
        -13    1    5    5    0    0  0.98085060357E+02 -0.15180368734E+03  0.13866277631E+03  0.22779904322E+03  0.00000000000E+00 0.  1.
          3    1    6    6  503    0  0.25379065547E+02  0.12549612671E+03 -0.61882947031E+02  0.14220715144E+03  0.00000000000E+00 0. -1.
         -3    1    6    6    0  503 -0.76424026600E+02  0.48897405709E+03 -0.25128149557E+03  0.55504833156E+03  0.00000000000E+00 0.  1.
<mgrwt>
<rscale>  0 0.16372551E+04</rscale>
<asrwt>0</asrwt>
<pdfrwt beam="1">  1        2 0.16377210E+00 0.16372551E+04</pdfrwt>
<pdfrwt beam="2">  1       -1 0.96851446E-01 0.16372551E+04</pdfrwt>
<totfact> 0.25634824E+01</totfact>
</mgrwt>
</event>
<event>
12    7  0.1857704E-007  0.2021484E+04  0.7818608E-02  0.8596642E-01
         -1   -1    0    0    0  501 -0.00000000000E+00  0.00000000000E+00  0.57908562017E+03  0.57908562017E+03  0.00000000000E+00 0.  1.
          2   -1    0    0  501    0  0.00000000000E+00 -0.00000000000E+00 -0.17641586856E+04  0.17641586856E+04  0.00000000000E+00 0. -1.
         24    2    1    2    0    0  0.35361847473E+03  0.29151005838E+03 -0.12494009502E+04  0.13332411145E+04  0.80653549455E+02 0.  0.
        254    2    1    2    0    0 -0.35361847473E+03 -0.29151005838E+03  0.64327884779E+02  0.10100031913E+04  0.89774396679E+03 0.  0.
         23    2    4    4    0    0  0.18138012075E+03  0.19290269868E+03  0.20260858858E+02  0.28118373249E+03  0.92431540366E+02 0.  0.
         23    2    4    4    0    0 -0.53499859548E+03 -0.48441275707E+03  0.44067025920E+02  0.72881945883E+03  0.91414902642E+02 0.  0.
          4    1    3    3  502    0  0.12998742143E+03  0.15876524959E+03 -0.53917630446E+03  0.57690052999E+03  0.00000000000E+00 0. -1.
         -1    1    3    3    0  502  0.22363105330E+03  0.13274480879E+03 -0.71022464577E+03  0.75634058447E+03  0.00000000000E+00 0.  1.
         13    1    5    5    0    0  0.14813310236E+03  0.14154049121E+03 -0.23116969740E+02  0.20618322181E+03  0.00000000000E+00 0.  1.
        -13    1    5    5    0    0  0.33247018384E+02  0.51362207472E+02  0.43377828598E+02  0.75000510676E+02  0.00000000000E+00 0. -1.
          4    1    6    6  503    0 -0.32964261380E+02 -0.45003224011E+02  0.25633628075E+02  0.61392308867E+02  0.00000000000E+00 0. -1.
         -4    1    6    6    0  503 -0.50203433410E+03 -0.43940953305E+03  0.18433397846E+02  0.66742714996E+03  0.00000000000E+00 0.  1.
<mgrwt>
<rscale>  0 0.20214835E+04</rscale>
<asrwt>0</asrwt>
<pdfrwt beam="1">  1        2 0.27140903E+00 0.20214835E+04</pdfrwt>
<pdfrwt beam="2">  1       -1 0.89090097E-01 0.20214835E+04</pdfrwt>
<totfact> 0.11785997E+01</totfact>
</mgrwt>
</event>
<event>
12    7  0.1857704E-007  0.1841447E+04  0.7818608E-02  0.8684564E-01
         -1   -1    0    0    0  501 -0.00000000000E+00  0.00000000000E+00  0.19210520859E+03  0.19210520859E+03  0.00000000000E+00 0.  1.
          2   -1    0    0  501    0  0.00000000000E+00 -0.00000000000E+00 -0.44128531028E+04  0.44128531028E+04  0.00000000000E+00 0. -1.
         24    2    1    2    0    0 -0.10950021410E+03 -0.10633623980E+03 -0.33015564293E+04  0.33061303971E+04  0.83220513834E+02 0.  0.
        254    2    1    2    0    0  0.10950021410E+03  0.10633623980E+03 -0.91919146483E+03  0.12988279142E+04  0.90484435622E+03 0.  0.
         23    2    4    4    0    0  0.30172760149E+03  0.25156979829E+03 -0.66654717439E+02  0.40823644740E+03  0.88810116089E+02 0.  0.
         23    2    4    4    0    0 -0.19222738739E+03 -0.14523355849E+03 -0.85253674739E+03  0.89059146683E+03  0.91049987156E+02 0.  0.
          2    1    3    3  502    0 -0.11594509025E+03 -0.68836405140E+02 -0.27088390822E+04  0.27121930034E+04  0.00000000000E+00 0. -1.
         -1    1    3    3    0  502  0.64448761491E+01 -0.37499834660E+02 -0.59271734715E+03  0.59393739370E+03  0.00000000000E+00 0.  1.
         13    1    5    5    0    0  0.26957748368E+03  0.22778675126E+03 -0.86817501263E+02  0.36345027485E+03  0.00000000000E+00 0. -1.
        -13    1    5    5    0    0  0.32150117802E+02  0.23783047028E+02  0.20162783824E+02  0.44786172555E+02  0.00000000000E+00 0.  1.
          3    1    6    6  503    0 -0.14780823953E+03 -0.14105178891E+03 -0.59204946070E+03  0.62631098245E+03  0.00000000000E+00 0. -1.
         -3    1    6    6    0  503 -0.44419147855E+02 -0.41817695824E+01 -0.26048728669E+03  0.26428048438E+03  0.00000000000E+00 0.  1.
<mgrwt>
<rscale>  0 0.18414473E+04</rscale>
<asrwt>0</asrwt>
<pdfrwt beam="1">  1        2 0.67890038E+00 0.18414473E+04</pdfrwt>
<pdfrwt beam="2">  1       -1 0.29554652E-01 0.18414473E+04</pdfrwt>
<totfact> 0.17081957E+00</totfact>
</mgrwt>
</event>
<event>
12    7  0.1857704E-007  0.1468971E+04  0.7818608E-02  0.8905353E-01
         -1   -1    0    0    0  501 -0.00000000000E+00  0.00000000000E+00  0.58052973266E+03  0.58052973266E+03  0.00000000000E+00 0.  1.
          2   -1    0    0  501    0  0.00000000000E+00 -0.00000000000E+00 -0.92926999759E+03  0.92926999759E+03  0.00000000000E+00 0. -1.
         24    2    1    2    0    0 -0.31454080883E+03  0.32264067427E+03 -0.53355479122E+02  0.46109112078E+03  0.82007861834E+02 0.  0.
        254    2    1    2    0    0  0.31454080883E+03 -0.32264067427E+03 -0.29538478581E+03  0.10487086095E+04  0.89972476390E+03 0.  0.
         23    2    4    4    0    0  0.54105574502E+03  0.56978913294E+02 -0.20996044741E+03  0.59018159194E+03  0.90791002915E+02 0.  0.
         23    2    4    4    0    0 -0.22651493619E+03 -0.37961958756E+03 -0.85424338399E+02  0.45852701753E+03  0.86773617172E+02 0.  0.
          4    1    3    3  502    0 -0.17266916151E+03  0.17497535991E+03  0.12057111236E+02  0.24612271297E+03  0.00000000000E+00 0. -1.
         -3    1    3    3    0  502 -0.14187164732E+03  0.14766531436E+03 -0.65412590358E+02  0.21496840781E+03  0.00000000000E+00 0.  1.
         13    1    5    5    0    0  0.45458206525E+03  0.17340332571E+02 -0.18993155081E+03  0.49297011590E+03  0.00000000000E+00 0. -1.
        -13    1    5    5    0    0  0.86473679764E+02  0.39638580723E+02 -0.20028896608E+02  0.97211476036E+02  0.00000000000E+00 0.  1.
          1    1    6    6  503    0 -0.22744162832E+03 -0.37640129670E+03 -0.73174319349E+02  0.44582744584E+03  0.00000000000E+00 0. -1.
         -1    1    6    6    0  503  0.92669212895E+00 -0.32182908555E+01 -0.12250019050E+02  0.12699571688E+02  0.00000000000E+00 0.  1.
<mgrwt>
<rscale>  0 0.14689709E+04</rscale>
<asrwt>0</asrwt>
<pdfrwt beam="1">  1        2 0.14296461E+00 0.14689709E+04</pdfrwt>
<pdfrwt beam="2">  1       -1 0.89312267E-01 0.14689709E+04</pdfrwt>
<totfact> 0.38059818E+01</totfact>
</mgrwt>
</event>
<event>
12    7  0.1857704E-007  0.2542609E+04  0.7818608E-02  0.8387961E-01
          2   -1    0    0  501    0  0.00000000000E+00  0.00000000000E+00  0.15029124053E+04  0.15029124053E+04  0.00000000000E+00 0. -1.
         -1   -1    0    0    0  501 -0.00000000000E+00 -0.00000000000E+00 -0.10753883685E+04  0.10753883685E+04  0.00000000000E+00 0.  1.
         24    2    1    2    0    0 -0.72216559400E+03  0.19252795874E+03  0.10207106030E+04  0.12675593183E+04  0.79160155017E+02 0.  0.
        254    2    1    2    0    0  0.72216559400E+03 -0.19252795874E+03 -0.59318656618E+03  0.13107414555E+04  0.89865605262E+03 0.  0.
         23    2    4    4    0    0 -0.38086594890E+02  0.24862422229E+03 -0.23275719026E+03  0.35614186866E+03  0.96935691953E+02 0.  0.
         23    2    4    4    0    0  0.76025218889E+03 -0.44115218103E+03 -0.36042937592E+03  0.95459958687E+03  0.93554255355E+02 0.  0.
          2    1    3    3  502    0 -0.35012892155E+03  0.55795164246E+02  0.45556395330E+03  0.57727106077E+03  0.00000000000E+00 0. -1.
         -1    1    3    3    0  502 -0.37203667244E+03  0.13673279450E+03  0.56514664973E+03  0.69028825749E+03  0.00000000000E+00 0.  1.
         13    1    5    5    0    0 -0.55228934518E+02  0.10335162876E+03 -0.14153003314E+03  0.18374586977E+03  0.00000000000E+00 0.  1.
        -13    1    5    5    0    0  0.17142339628E+02  0.14527259353E+03 -0.91227157122E+02  0.17239599889E+03  0.00000000000E+00 0. -1.
          3    1    6    6  503    0  0.24546354054E+02 -0.68182010808E+01  0.39738767963E+01  0.25783775133E+02  0.00000000000E+00 0. -1.
         -3    1    6    6    0  503  0.73570583483E+03 -0.43433397995E+03 -0.36440325271E+03  0.92881581174E+03  0.00000000000E+00 0.  1.
<mgrwt>
<rscale>  0 0.25426085E+04</rscale>
<asrwt>0</asrwt>
<pdfrwt beam="1">  1        2 0.23121729E+00 0.25426085E+04</pdfrwt>
<pdfrwt beam="2">  1       -1 0.16544436E+00 0.25426085E+04</pdfrwt>
<totfact> 0.34044771E+00</totfact>
</mgrwt>
</event>
<event>
12    7  0.1857704E-007  0.1941454E+04  0.7818608E-02  0.8634493E-01
          2   -1    0    0  501    0  0.00000000000E+00  0.00000000000E+00  0.21310619008E+04  0.21310619008E+04  0.00000000000E+00 0. -1.
         -1   -1    0    0    0  501 -0.00000000000E+00 -0.00000000000E+00 -0.44217895861E+03  0.44217895861E+03  0.00000000000E+00 0.  1.
         24    2    1    2    0    0  0.65213563019E+03  0.14586651455E+02  0.14901674380E+03  0.67351009275E+03  0.76916867756E+02 0.  0.
        254    2    1    2    0    0 -0.65213563019E+03 -0.14586651455E+02  0.15398661984E+04  0.18997307667E+04  0.90127433467E+03 0.  0.
         23    2    4    4    0    0  0.83486062120E+01  0.10031721722E+03 -0.70196525856E+02  0.15325985922E+03  0.91802989644E+02 0.  0.
         23    2    4    4    0    0 -0.66048423640E+03 -0.11490386868E+03  0.16100627243E+04  0.17464709075E+04  0.91740552557E+02 0.  0.
          2    1    3    3  502    0  0.33001381524E+03  0.44050580225E+02  0.87487710358E+02  0.34424362206E+03  0.00000000000E+00 0. -1.
         -1    1    3    3    0  502  0.32212181495E+03 -0.29463928770E+02  0.61529033441E+02  0.32926647069E+03  0.00000000000E+00 0.  1.
         13    1    5    5    0    0 -0.93246601171E+01  0.32503300215E+02  0.19808999146E+02  0.39189415131E+02  0.00000000000E+00 0. -1.
        -13    1    5    5    0    0  0.17673266329E+02  0.67813917010E+02 -0.90005525003E+02  0.11407044409E+03  0.00000000000E+00 0.  1.
          4    1    6    6  503    0 -0.29552634487E+02 -0.22934715432E+02  0.12080481383E+03  0.12646407562E+03  0.00000000000E+00 0. -1.
         -4    1    6    6    0  503 -0.63093160191E+03 -0.91969153247E+02  0.14892579105E+04  0.16200068319E+04  0.00000000000E+00 0.  1.
<mgrwt>
<rscale>  0 0.19414538E+04</rscale>
<asrwt>0</asrwt>
<pdfrwt beam="1">  1        2 0.32785567E+00 0.19414538E+04</pdfrwt>
<pdfrwt beam="2">  1       -1 0.68027533E-01 0.19414538E+04</pdfrwt>
<totfact> 0.13126433E+01</totfact>
</mgrwt>
</event>
<event>
12    7  0.1857704E-007  0.1746354E+04  0.7818608E-02  0.8735360E-01
          2   -1    0    0  501    0  0.00000000000E+00  0.00000000000E+00  0.14120174218E+04  0.14120174218E+04  0.00000000000E+00 0. -1.
         -1   -1    0    0    0  501 -0.00000000000E+00 -0.00000000000E+00 -0.53996337646E+03  0.53996337646E+03  0.00000000000E+00 0.  1.
         24    2    1    2    0    0 -0.17276406723E+03  0.51884323204E+03 -0.47692255416E+02  0.55489114484E+03  0.81141290618E+02 0.  0.
        254    2    1    2    0    0  0.17276406723E+03 -0.51884323204E+03  0.91974630074E+03  0.13970896534E+04  0.89826528352E+03 0.  0.
         23    2    4    4    0    0  0.82676181874E+02 -0.15643336033E+02 -0.15808719059E+03  0.20069013204E+03  0.90580926572E+02 0.  0.
         23    2    4    4    0    0  0.90087885352E+02 -0.50319989600E+03  0.10778334913E+04  0.11963995214E+04  0.91218513792E+02 0.  0.
          2    1    3    3  502    0 -0.80216017205E+01  0.92055268197E-01 -0.36997664746E+01  0.88341858878E+01  0.00000000000E+00 0. -1.
         -1    1    3    3    0  502 -0.16474246551E+03  0.51875117677E+03 -0.43992488942E+02  0.54605695895E+03  0.00000000000E+00 0.  1.
         13    1    5    5    0    0  0.38474350721E+02 -0.51560794891E+02 -0.10308406159E+03  0.12151178950E+03  0.00000000000E+00 0. -1.
        -13    1    5    5    0    0  0.44201831153E+02  0.35917458859E+02 -0.55003129006E+02  0.79178342548E+02  0.00000000000E+00 0.  1.
          4    1    6    6  503    0  0.10499053731E+03 -0.35383613675E+03  0.75627847131E+03  0.84153440260E+03  0.00000000000E+00 0. -1.
         -4    1    6    6    0  503 -0.14902651953E+02 -0.14936375925E+03  0.32155502002E+03  0.35486511876E+03  0.00000000000E+00 0.  1.
<mgrwt>
<rscale>  0 0.17463536E+04</rscale>
<asrwt>0</asrwt>
<pdfrwt beam="1">  1        2 0.21723345E+00 0.17463536E+04</pdfrwt>
<pdfrwt beam="2">  1       -1 0.83071289E-01 0.17463536E+04</pdfrwt>
<totfact> 0.22144374E+01</totfact>
</mgrwt>
</event>
<event>
12    7  0.1857704E-007  0.1950360E+04  0.7818608E-02  0.8630187E-01
          2   -1    0    0  501    0  0.00000000000E+00  0.00000000000E+00  0.98036666012E+03  0.98036666012E+03  0.00000000000E+00 0. -1.
         -1   -1    0    0    0  501 -0.00000000000E+00 -0.00000000000E+00 -0.97002038181E+03  0.97002038181E+03  0.00000000000E+00 0.  1.
         24    2    1    2    0    0 -0.42932223338E+03 -0.46153470044E+03 -0.42585614416E+03  0.76487719030E+03  0.79698186530E+02 0.  0.
        254    2    1    2    0    0  0.42932223338E+03  0.46153470044E+03  0.43620242248E+03  0.11855098516E+04  0.90433909301E+03 0.  0.
         23    2    4    4    0    0  0.34809499049E+03  0.31522595148E+03 -0.20211369670E+03  0.51929677764E+03  0.91003703124E+02 0.  0.
         23    2    4    4    0    0  0.81227242887E+02  0.14630874896E+03  0.63831611918E+03  0.66621307399E+03  0.91587536994E+02 0.  0.
          2    1    3    3  502    0 -0.86593314575E+02 -0.13285329960E+03 -0.13299181348E+03  0.20696672147E+03  0.00000000000E+00 0. -1.
         -1    1    3    3    0  502 -0.34272891880E+03 -0.32868140084E+03 -0.29286433068E+03  0.55791046883E+03  0.00000000000E+00 0.  1.
         13    1    5    5    0    0  0.31443223709E+03  0.31123806005E+03 -0.17456169718E+03  0.47561386425E+03  0.00000000000E+00 0.  1.
        -13    1    5    5    0    0  0.33662753398E+02  0.39878914326E+01 -0.27551999529E+02  0.43682913393E+02  0.00000000000E+00 0. -1.
          3    1    6    6  503    0  0.54230768410E+02  0.50127959623E+02  0.14321823683E+03  0.16113736978E+03  0.00000000000E+00 0. -1.
         -3    1    6    6    0  503  0.26996474478E+02  0.96180789338E+02  0.49509788235E+03  0.50507570421E+03  0.00000000000E+00 0.  1.
<mgrwt>
<rscale>  0 0.19503596E+04</rscale>
<asrwt>0</asrwt>
<pdfrwt beam="1">  1        2 0.15082564E+00 0.19503596E+04</pdfrwt>
<pdfrwt beam="2">  1       -1 0.14923390E+00 0.19503596E+04</pdfrwt>
<totfact> 0.97636932E+00</totfact>
</mgrwt>
</event>
<event>
12    7  0.1857704E-007  0.1178704E+04  0.7818608E-02  0.9131704E-01
          2   -1    0    0  501    0  0.00000000000E+00  0.00000000000E+00  0.23995796277E+04  0.23995796277E+04  0.00000000000E+00 0. -1.
         -1   -1    0    0    0  501 -0.00000000000E+00 -0.00000000000E+00 -0.14474849313E+03  0.14474849313E+03  0.00000000000E+00 0.  1.
         24    2    1    2    0    0 -0.66772029333E+02 -0.10853825828E+03  0.47968814961E+02  0.15751266004E+03  0.79184426835E+02 0.  0.
        254    2    1    2    0    0  0.66772029333E+02  0.10853825828E+03  0.22068623196E+04  0.23868154608E+04  0.90022646529E+03 0.  0.
         23    2    4    4    0    0  0.40360822730E+03  0.29224867555E+03  0.10795554637E+04  0.11925792960E+04  0.92176399436E+02 0.  0.
         23    2    4    4    0    0 -0.33683619797E+03 -0.18371041727E+03  0.11273068559E+04  0.11942361648E+04  0.90394292882E+02 0.  0.
          4    1    3    3  502    0 -0.85006504630E+01 -0.66452156374E+02  0.53047815625E+02  0.85453033226E+02  0.00000000000E+00 0. -1.
         -3    1    3    3    0  502 -0.58271378870E+02 -0.42086101902E+02 -0.50790006639E+01  0.72059626813E+02  0.00000000000E+00 0.  1.
         13    1    5    5    0    0  0.15596966753E+03  0.16958192272E+03  0.48847629096E+03  0.54008670835E+03  0.00000000000E+00 0.  1.
        -13    1    5    5    0    0  0.24763855978E+03  0.12266675283E+03  0.59107917274E+03  0.65249258769E+03  0.00000000000E+00 0. -1.
          4    1    6    6  503    0 -0.40578472646E+02 -0.59102334848E+02  0.17319300870E+03  0.18744470302E+03  0.00000000000E+00 0.  1.
         -4    1    6    6    0  503 -0.29625772533E+03 -0.12460808242E+03  0.95411384724E+03  0.10067914618E+04  0.00000000000E+00 0. -1.
<mgrwt>
<rscale>  0 0.11787036E+04</rscale>
<asrwt>0</asrwt>
<pdfrwt beam="1">  1        2 0.36916607E+00 0.11787036E+04</pdfrwt>
<pdfrwt beam="2">  1       -1 0.22269001E-01 0.11787036E+04</pdfrwt>
<totfact> 0.76818213E+01</totfact>
</mgrwt>
</event>
<event>
12    7  0.1857704E-007  0.1222655E+04  0.7818608E-02  0.9093255E-01
         -3   -1    0    0    0  501 -0.00000000000E+00  0.00000000000E+00  0.20578320949E+03  0.20578320949E+03  0.00000000000E+00 0.  1.
          2   -1    0    0  501    0  0.00000000000E+00 -0.00000000000E+00 -0.18160911976E+04  0.18160911976E+04  0.00000000000E+00 0. -1.
         24    2    1    2    0    0 -0.10028049933E+03  0.11700631853E+03  0.35517298318E+01  0.17282987698E+03  0.78172210346E+02 0.  0.
        254    2    1    2    0    0  0.10028049933E+03 -0.11700631853E+03 -0.16138597179E+04  0.18490445301E+04  0.88919954340E+03 0.  0.
         23    2    4    4    0    0 -0.25380375493E+03 -0.14766724594E+03 -0.15427978512E+03  0.34405809117E+03  0.91387944853E+02 0.  0.
         23    2    4    4    0    0  0.35408425426E+03  0.30660927417E+02 -0.14595799328E+04  0.15049864389E+04  0.91076064262E+02 0.  0.
          4    1    3    3  502    0 -0.60199134474E+01  0.58862766705E+02  0.16231227548E+02  0.61355663225E+02  0.00000000000E+00 0. -1.
         -3    1    3    3    0  502 -0.94260585884E+02  0.58143551821E+02 -0.12679497717E+02  0.11147421375E+03  0.00000000000E+00 0.  1.
         13    1    5    5    0    0 -0.78262585258E+02 -0.16469865310E+01 -0.28043532954E+02  0.83151575790E+02  0.00000000000E+00 0. -1.
        -13    1    5    5    0    0 -0.17554116967E+03 -0.14602025941E+03 -0.12623625217E+03  0.26090651538E+03  0.00000000000E+00 0.  1.
          4    1    6    6  503    0  0.30649345677E+03 -0.44060013770E+01 -0.11743486415E+04  0.12136936943E+04  0.00000000000E+00 0. -1.
         -4    1    6    6    0  503  0.47590797492E+02  0.35066928794E+02 -0.28523129133E+03  0.29129274460E+03  0.00000000000E+00 0.  1.
<mgrwt>
<rscale>  0 0.12226546E+04</rscale>
<asrwt>0</asrwt>
<pdfrwt beam="1">  1        2 0.27939865E+00 0.12226546E+04</pdfrwt>
<pdfrwt beam="2">  1       -3 0.31658955E-01 0.12226546E+04</pdfrwt>
<totfact> 0.52645886E+01</totfact>
</mgrwt>
</event>
<event>
12    7  0.1857704E-007  0.3637635E+04  0.7818608E-02  0.8081925E-01
          2   -1    0    0  501    0  0.00000000000E+00  0.00000000000E+00  0.23149027435E+04  0.23149027435E+04  0.00000000000E+00 0. -1.
         -1   -1    0    0    0  501 -0.00000000000E+00 -0.00000000000E+00 -0.14290438280E+04  0.14290438280E+04  0.00000000000E+00 0.  1.
         24    2    1    2    0    0 -0.87762361453E+03  0.11383564429E+04  0.13640138513E+04  0.19832086477E+04  0.80648333619E+02 0.  0.
        254    2    1    2    0    0  0.87762361453E+03 -0.11383564429E+04 -0.47815493581E+03  0.17607379239E+04  0.89748943953E+03 0.  0.
         23    2    4    4    0    0  0.33214132802E+03 -0.13773411441E+03 -0.49270751294E+03  0.61670873828E+03  0.90996848912E+02 0.  0.
         23    2    4    4    0    0  0.54548228651E+03 -0.10006223285E+04  0.14552577128E+02  0.11440291856E+04  0.98969848142E+02 0.  0.
          2    1    3    3  502    0 -0.64903490944E+03  0.89418056570E+03  0.10307049878E+04  0.15110122334E+04  0.00000000000E+00 0. -1.
         -1    1    3    3    0  502 -0.22858870509E+03  0.24417587718E+03  0.33330886354E+03  0.47219641423E+03  0.00000000000E+00 0.  1.
         13    1    5    5    0    0  0.27956518991E+03 -0.95005841942E+02 -0.44420950920E+03  0.53339000129E+03  0.00000000000E+00 0. -1.
        -13    1    5    5    0    0  0.52576138115E+02 -0.42728272470E+02 -0.48498003740E+02  0.83318736993E+02  0.00000000000E+00 0.  1.
          1    1    6    6  503    0  0.52275119287E+03 -0.98524472760E+03  0.62409533358E+01  0.11153541735E+04  0.00000000000E+00 0. -1.
         -1    1    6    6    0  503  0.22731093631E+02 -0.15377600873E+02  0.83116237923E+01  0.28675012055E+02  0.00000000000E+00 0.  1.
<mgrwt>
<rscale>  0 0.36376352E+04</rscale>
<asrwt>0</asrwt>
<pdfrwt beam="1">  1        2 0.35613888E+00 0.36376352E+04</pdfrwt>
<pdfrwt beam="2">  1       -1 0.21985290E+00 0.36376352E+04</pdfrwt>
<totfact> 0.45298699E-01</totfact>
</mgrwt>
</event>
<event>
12    7  0.1857704E-007  0.2517566E+04  0.7818608E-02  0.8396754E-01
          2   -1    0    0  501    0  0.00000000000E+00  0.00000000000E+00  0.17945971025E+04  0.17945971025E+04  0.00000000000E+00 0. -1.
         -1   -1    0    0    0  501 -0.00000000000E+00 -0.00000000000E+00 -0.88294747805E+03  0.88294747805E+03  0.00000000000E+00 0.  1.
         24    2    1    2    0    0  0.85001120102E+03  0.67203374527E+03  0.56780054020E+03  0.12259477806E+04  0.80013189906E+02 0.  0.
        254    2    1    2    0    0 -0.85001120102E+03 -0.67203374527E+03  0.34384908429E+03  0.14515968000E+04  0.90263651625E+03 0.  0.
         23    2    4    4    0    0 -0.24499785589E+03 -0.68013441238E+03  0.40944451834E+03  0.83616653013E+03  0.94461019529E+02 0.  0.
         23    2    4    4    0    0 -0.60501334513E+03  0.81006671109E+01 -0.65595434057E+02  0.61543026990E+03  0.91350356070E+02 0.  0.
          4    1    3    3  502    0  0.77305383457E+03  0.63303645962E+03  0.50735001999E+03  0.11206031560E+04  0.00000000000E+00 0. -1.
         -3    1    3    3    0  502  0.76957366444E+02  0.38997285654E+02  0.60450520213E+02  0.10534462460E+03  0.00000000000E+00 0.  1.
         13    1    5    5    0    0 -0.68622876541E+02 -0.16494247097E+03  0.57022413261E+02  0.18752779402E+03  0.00000000000E+00 0.  1.
        -13    1    5    5    0    0 -0.17637497935E+03 -0.51519194141E+03  0.35242210508E+03  0.64863873611E+03  0.00000000000E+00 0. -1.
          4    1    6    6  503    0 -0.24814584740E+03 -0.28905608487E+02  0.45082554980E+01  0.24986440353E+03  0.00000000000E+00 0. -1.
         -4    1    6    6    0  503 -0.35686749772E+03  0.37006275597E+02 -0.70103689555E+02  0.36556586637E+03  0.00000000000E+00 0.  1.
<mgrwt>
<rscale>  0 0.25175663E+04</rscale>
<asrwt>0</asrwt>
<pdfrwt beam="1">  1        2 0.27609186E+00 0.25175663E+04</pdfrwt>
<pdfrwt beam="2">  1       -1 0.13583807E+00 0.25175663E+04</pdfrwt>
<totfact> 0.39933274E+00</totfact>
</mgrwt>
</event>
<event>
12    7  0.1857704E-007  0.2449358E+04  0.7818608E-02  0.8421252E-01
         -1   -1    0    0    0  501 -0.00000000000E+00  0.00000000000E+00  0.16000951626E+04  0.16000951626E+04  0.00000000000E+00 0.  1.
          2   -1    0    0  501    0  0.00000000000E+00 -0.00000000000E+00 -0.93734326130E+03  0.93734326130E+03  0.00000000000E+00 0. -1.
         24    2    1    2    0    0  0.79776391430E+03  0.38506972722E+03 -0.31306425563E+03  0.94267687908E+03  0.76970854373E+02 0.  0.
        254    2    1    2    0    0 -0.79776391430E+03 -0.38506972722E+03  0.97581615693E+03  0.15947615448E+04  0.89796506333E+03 0.  0.
         23    2    4    4    0    0 -0.60346088228E+03 -0.41703775830E+03  0.16748798428E+03  0.75803691019E+03  0.92098881883E+02 0.  0.
         23    2    4    4    0    0 -0.19430303202E+03  0.31968031078E+02  0.80832817266E+03  0.83672463464E+03  0.89095770022E+02 0.  0.
          2    1    3    3  502    0  0.74918661237E+03  0.36379146697E+03 -0.27381007697E+03  0.87669650954E+03  0.00000000000E+00 0. -1.
         -1    1    3    3    0  502  0.48577301924E+02  0.21278260251E+02 -0.39254178664E+02  0.65980369535E+02  0.00000000000E+00 0.  1.
         13    1    5    5    0    0 -0.55294577801E+03 -0.38513209607E+03  0.12660689494E+03  0.68564208643E+03  0.00000000000E+00 0. -1.
        -13    1    5    5    0    0 -0.50515104270E+02 -0.31905662234E+02  0.40881089333E+02  0.72394823758E+02  0.00000000000E+00 0.  1.
          2    1    6    6  503    0 -0.68611953469E+02 -0.26313667729E+02  0.36217544123E+03  0.36955521847E+03  0.00000000000E+00 0. -1.
         -2    1    6    6    0  503 -0.12569107855E+03  0.58281698807E+02  0.44615273143E+03  0.46716941617E+03  0.00000000000E+00 0.  1.
<mgrwt>
<rscale>  0 0.24493578E+04</rscale>
<asrwt>0</asrwt>
<pdfrwt beam="1">  1        2 0.14420666E+00 0.24493578E+04</pdfrwt>
<pdfrwt beam="2">  1       -1 0.24616849E+00 0.24493578E+04</pdfrwt>
<totfact> 0.20877431E+00</totfact>
</mgrwt>
</event>
<event>
12    7  0.1857704E-007  0.1222461E+04  0.7818608E-02  0.9093421E-01
         -1   -1    0    0    0  501 -0.00000000000E+00  0.00000000000E+00  0.18663652259E+03  0.18663652259E+03  0.00000000000E+00 0.  1.
          2   -1    0    0  501    0  0.00000000000E+00 -0.00000000000E+00 -0.20017659256E+04  0.20017659256E+04  0.00000000000E+00 0. -1.
         24    2    1    2    0    0  0.92802782129E+02  0.18985077708E+03 -0.66620654845E+03  0.70377173566E+03  0.82509495143E+02 0.  0.
        254    2    1    2    0    0 -0.92802782129E+02 -0.18985077708E+03 -0.11489228546E+04  0.14846307125E+04  0.91621446884E+03 0.  0.
         23    2    4    4    0    0 -0.43509227058E+03 -0.20368373282E+03 -0.32248813692E+03  0.58542693799E+03  0.89071624686E+02 0.  0.
         23    2    4    4    0    0  0.34228948846E+03  0.13832955739E+02 -0.82643471763E+03  0.89920377454E+03  0.90662236154E+02 0.  0.
          2    1    3    3  502    0  0.10361617864E+03  0.17676483141E+03 -0.56187669206E+03  0.59806984139E+03  0.00000000000E+00 0. -1.
         -1    1    3    3    0  502 -0.10813396511E+02  0.13085945670E+02 -0.10432985639E+03  0.10570189427E+03  0.00000000000E+00 0.  1.
         13    1    5    5    0    0 -0.15427832706E+03 -0.10637486245E+03 -0.16174423583E+03  0.24754517040E+03  0.00000000000E+00 0. -1.
        -13    1    5    5    0    0 -0.28081394353E+03 -0.97308870369E+02 -0.16074390109E+03  0.33788176759E+03  0.00000000000E+00 0.  1.
          3    1    6    6  503    0  0.25437155441E+03  0.47647204237E+02 -0.63940061998E+03  0.68978858834E+03  0.00000000000E+00 0. -1.
         -3    1    6    6    0  503  0.87917934049E+02 -0.33814248498E+02 -0.18703409764E+03  0.20941518620E+03  0.00000000000E+00 0.  1.
<mgrwt>
<rscale>  0 0.12224608E+04</rscale>
<asrwt>0</asrwt>
<pdfrwt beam="1">  1        2 0.30796398E+00 0.12224608E+04</pdfrwt>
<pdfrwt beam="2">  1       -1 0.28713312E-01 0.12224608E+04</pdfrwt>
<totfact> 0.82545983E+01</totfact>
</mgrwt>
</event>
<event>
12    7  0.1857704E-007  0.1464702E+04  0.7818608E-02  0.8908271E-01
          2   -1    0    0  501    0  0.00000000000E+00  0.00000000000E+00  0.15383944114E+04  0.15383944114E+04  0.00000000000E+00 0. -1.
         -1   -1    0    0    0  501 -0.00000000000E+00 -0.00000000000E+00 -0.34863481186E+03  0.34863481186E+03  0.00000000000E+00 0.  1.
         24    2    1    2    0    0  0.13823165375E+03  0.34220439617E+03  0.42862734983E+02  0.38021785979E+03  0.80725262459E+02 0.  0.
        254    2    1    2    0    0 -0.13823165375E+03 -0.34220439617E+03  0.11468968646E+04  0.15068113635E+04  0.90492885262E+03 0.  0.
         23    2    4    4    0    0 -0.31400337071E+03 -0.76429365264E+02  0.11260139502E+04  0.11751004199E+04  0.92271426631E+02 0.  0.
         23    2    4    4    0    0  0.17577171696E+03 -0.26577503090E+03  0.20882914372E+02  0.33171094356E+03  0.89799723979E+02 0.  0.
          4    1    3    3  502    0  0.35992829647E+02  0.11399323748E+03  0.51127187540E+02  0.13001511944E+03  0.00000000000E+00 0. -1.
         -3    1    3    3    0  502  0.10223882410E+03  0.22821115869E+03 -0.82644525573E+01  0.25020274035E+03  0.00000000000E+00 0.  1.
         13    1    5    5    0    0 -0.10818487135E+03 -0.65733190626E+02  0.51216487130E+03  0.52757717363E+03  0.00000000000E+00 0.  1.
        -13    1    5    5    0    0 -0.20581849936E+03 -0.10696174638E+02  0.61384907891E+03  0.64752324631E+03  0.00000000000E+00 0. -1.
          2    1    6    6  503    0  0.33634225150E+02 -0.81585939989E+01 -0.95814644635E+01  0.35911393997E+02  0.00000000000E+00 0.  1.
         -2    1    6    6    0  503  0.14213749181E+03 -0.25761643691E+03  0.30464378836E+02  0.29579954956E+03  0.00000000000E+00 0. -1.
<mgrwt>
<rscale>  0 0.14647018E+04</rscale>
<asrwt>0</asrwt>
<pdfrwt beam="1">  1        2 0.23667606E+00 0.14647018E+04</pdfrwt>
<pdfrwt beam="2">  1       -1 0.53636126E-01 0.14647018E+04</pdfrwt>
<totfact> 0.46754017E+01</totfact>
</mgrwt>
</event>
<event>
12    7  0.1857704E-007  0.1419591E+04  0.7818608E-02  0.8939758E-01
         -1   -1    0    0    0  501 -0.00000000000E+00  0.00000000000E+00  0.14714792099E+04  0.14714792099E+04  0.00000000000E+00 0.  1.
          2   -1    0    0  501    0  0.00000000000E+00 -0.00000000000E+00 -0.34238314714E+03  0.34238314714E+03  0.00000000000E+00 0. -1.
         24    2    1    2    0    0  0.37949608095E+03 -0.11474109427E+03  0.16966920474E+03  0.43832739786E+03  0.78488690283E+02 0.  0.
        254    2    1    2    0    0 -0.37949608095E+03  0.11474109427E+03  0.95942685807E+03  0.13755349592E+04  0.90244874309E+03 0.  0.
         23    2    4    4    0    0  0.22024542279E+02 -0.34255720110E+03  0.24422715286E+03  0.43110819367E+03  0.91525165770E+02 0.  0.
         23    2    4    4    0    0 -0.40152062323E+03  0.45729829537E+03  0.71519970521E+03  0.94442676556E+03  0.10045275178E+03 0.  0.
          2    1    3    3  502    0  0.34735764677E+03 -0.80329465872E+02  0.15703145649E+03  0.38957545634E+03  0.00000000000E+00 0. -1.
         -1    1    3    3    0  502  0.32138434183E+02 -0.34411628394E+02  0.12637748241E+02  0.48751941511E+02  0.00000000000E+00 0.  1.
         13    1    5    5    0    0 -0.28280279042E+02 -0.19916828134E+03  0.16228820329E+03  0.25846709539E+03  0.00000000000E+00 0. -1.
        -13    1    5    5    0    0  0.50304821320E+02 -0.14338891976E+03  0.81938949574E+02  0.17264109828E+03  0.00000000000E+00 0.  1.
          1    1    6    6  503    0 -0.37489527499E+03  0.44139390349E+03  0.70368612603E+03  0.91134472578E+03  0.00000000000E+00 0. -1.
         -1    1    6    6    0  503 -0.26625348246E+02  0.15904391874E+02  0.11513579186E+02  0.33082039776E+02  0.00000000000E+00 0.  1.
<mgrwt>
<rscale>  0 0.14195910E+04</rscale>
<asrwt>0</asrwt>
<pdfrwt beam="1">  1        2 0.52674331E-01 0.14195910E+04</pdfrwt>
<pdfrwt beam="2">  1       -1 0.22638141E+00 0.14195910E+04</pdfrwt>
<totfact> 0.10516729E+01</totfact>
</mgrwt>
</event>
<event>
12    7  0.1857704E-007  0.2037438E+04  0.7818608E-02  0.8589315E-01
         -1   -1    0    0    0  501 -0.00000000000E+00  0.00000000000E+00  0.75057173471E+03  0.75057173471E+03  0.00000000000E+00 0.  1.
          2   -1    0    0  501    0  0.00000000000E+00 -0.00000000000E+00 -0.13826634565E+04  0.13826634565E+04  0.00000000000E+00 0. -1.
         24    2    1    2    0    0  0.51575971177E+03  0.49197958798E+03 -0.66946681958E+03  0.98128696337E+03  0.81769717405E+02 0.  0.
        254    2    1    2    0    0 -0.51575971177E+03 -0.49197958798E+03  0.37375097818E+02  0.11519482278E+04  0.90417687780E+03 0.  0.
         23    2    4    4    0    0 -0.59751015928E+03 -0.34046167535E+03  0.35404036536E+03  0.77885666404E+03  0.91326775879E+02 0.  0.
         23    2    4    4    0    0  0.81750447506E+02 -0.15151791263E+03 -0.31666526754E+03  0.37309156377E+03  0.96330731225E+02 0.  0.
          4    1    3    3  502    0  0.46092612885E+03  0.40112062167E+03 -0.58036962201E+03  0.84272151244E+03  0.00000000000E+00 0. -1.
         -3    1    3    3    0  502  0.54833582922E+02  0.90858966313E+02 -0.89097197574E+02  0.13856545093E+03  0.00000000000E+00 0.  1.
         13    1    5    5    0    0 -0.50707491855E+03 -0.30970428896E+03  0.27433195612E+03  0.65444613359E+03  0.00000000000E+00 0. -1.
        -13    1    5    5    0    0 -0.90435240725E+02 -0.30757386388E+02  0.79708409239E+02  0.12441053045E+03  0.00000000000E+00 0.  1.
          3    1    6    6  503    0  0.98527347689E+02 -0.10595226435E+03 -0.20109342775E+03  0.24773390412E+03  0.00000000000E+00 0. -1.
         -3    1    6    6    0  503 -0.16776900184E+02 -0.45565648274E+02 -0.11557183979E+03  0.12535765965E+03  0.00000000000E+00 0.  1.
<mgrwt>
<rscale>  0 0.20374377E+04</rscale>
<asrwt>0</asrwt>
<pdfrwt beam="1">  1        2 0.21271745E+00 0.20374377E+04</pdfrwt>
<pdfrwt beam="2">  1       -1 0.11547257E+00 0.20374377E+04</pdfrwt>
<totfact> 0.10623155E+01</totfact>
</mgrwt>
</event>
<event>
12    7  0.1857704E-007  0.1951526E+04  0.7818608E-02  0.8629625E-01
          2   -1    0    0  501    0  0.00000000000E+00  0.00000000000E+00  0.17119519340E+04  0.17119519340E+04  0.00000000000E+00 0. -1.
         -1   -1    0    0    0  501 -0.00000000000E+00 -0.00000000000E+00 -0.55615637562E+03  0.55615637562E+03  0.00000000000E+00 0.  1.
         24    2    1    2    0    0  0.32004995915E+03  0.58605075695E+03  0.15845868972E+02  0.67260679201E+03  0.79128623241E+02 0.  0.
        254    2    1    2    0    0 -0.32004995915E+03 -0.58605075695E+03  0.11399496894E+04  0.15955015176E+04  0.89456823789E+03 0.  0.
         23    2    4    4    0    0  0.14182425666E+02 -0.84995265672E+02 -0.13334277512E+03  0.18397516213E+03  0.92958206839E+02 0.  0.
         23    2    4    4    0    0 -0.33423238481E+03 -0.50105549128E+03  0.12732924645E+04  0.14115263554E+04  0.91460699850E+02 0.  0.
          2    1    3    3  502    0  0.27711306937E+03  0.51055331642E+03  0.40507064159E+02  0.58232049970E+03  0.00000000000E+00 0. -1.
         -1    1    3    3    0  502  0.42936889781E+02  0.75497440530E+02 -0.24661195186E+02  0.90286292308E+02  0.00000000000E+00 0.  1.
         13    1    5    5    0    0  0.49868121661E+02 -0.22867185452E+02 -0.63529303114E+02  0.83938728145E+02  0.00000000000E+00 0.  1.
        -13    1    5    5    0    0 -0.35685695994E+02 -0.62128080219E+02 -0.69813472007E+02  0.10003643398E+03  0.00000000000E+00 0. -1.
          4    1    6    6  503    0 -0.21266286449E+03 -0.33777112449E+03  0.74151545031E+03  0.84211637529E+03  0.00000000000E+00 0.  1.
         -4    1    6    6    0  503 -0.12156952033E+03 -0.16328436679E+03  0.53177701417E+03  0.56940998016E+03  0.00000000000E+00 0. -1.
<mgrwt>
<rscale>  0 0.19515255E+04</rscale>
<asrwt>0</asrwt>
<pdfrwt beam="1">  1        2 0.26337722E+00 0.19515255E+04</pdfrwt>
<pdfrwt beam="2">  1       -1 0.85562520E-01 0.19515255E+04</pdfrwt>
<totfact> 0.13845912E+01</totfact>
</mgrwt>
</event>
<event>
12    7  0.1857704E-007  0.1395550E+04  0.7818608E-02  0.8957046E-01
         -1   -1    0    0    0  501 -0.00000000000E+00  0.00000000000E+00  0.42339619356E+03  0.42339619356E+03  0.00000000000E+00 0.  1.
          2   -1    0    0  501    0  0.00000000000E+00 -0.00000000000E+00 -0.11499629486E+04  0.11499629486E+04  0.00000000000E+00 0. -1.
         24    2    1    2    0    0  0.84105823140E+02 -0.24261160697E+03  0.13556236934E+03  0.30128772204E+03  0.80392500597E+02 0.  0.
        254    2    1    2    0    0 -0.84105823140E+02  0.24261160697E+03 -0.86212912440E+03  0.12720714201E+04  0.89942475476E+03 0.  0.
         23    2    4    4    0    0 -0.63017153010E+02  0.29847123522E+03  0.76291918561E+02  0.32743021955E+03  0.91289933797E+02 0.  0.
         23    2    4    4    0    0 -0.21088670130E+02 -0.55859628249E+02 -0.93842104296E+03  0.94464120059E+03  0.90265795849E+02 0.  0.
          2    1    3    3  502    0  0.24688195066E+02 -0.93381242619E+02  0.94113432136E+01  0.97047085633E+02  0.00000000000E+00 0. -1.
         -1    1    3    3    0  502  0.59417628074E+02 -0.14923036435E+03  0.12615102612E+03  0.20424063641E+03  0.00000000000E+00 0.  1.
         13    1    5    5    0    0 -0.57992544340E+02  0.30463720684E+03  0.71860686560E+02  0.31832518164E+03  0.00000000000E+00 0.  1.
        -13    1    5    5    0    0 -0.50246086700E+01 -0.61659716255E+01  0.44312320003E+01  0.91050379139E+01  0.00000000000E+00 0. -1.
          4    1    6    6  503    0  0.24162031597E+01  0.24392591875E+02 -0.22935689266E+03  0.23066300264E+03  0.00000000000E+00 0. -1.
         -4    1    6    6    0  503 -0.23504873290E+02 -0.80252220125E+02 -0.70906415030E+03  0.71397819795E+03  0.00000000000E+00 0.  1.
<mgrwt>
<rscale>  0 0.13955500E+04</rscale>
<asrwt>0</asrwt>
<pdfrwt beam="1">  1        2 0.17691737E+00 0.13955500E+04</pdfrwt>
<pdfrwt beam="2">  1       -1 0.65137877E-01 0.13955500E+04</pdfrwt>
<totfact> 0.53866444E+01</totfact>
</mgrwt>
</event>
<event>
12    7  0.1857704E-007  0.1964028E+04  0.7818608E-02  0.8623626E-01
         -1   -1    0    0    0  501 -0.00000000000E+00  0.00000000000E+00  0.51116753009E+03  0.51116753009E+03  0.00000000000E+00 0.  1.
          2   -1    0    0  501    0  0.00000000000E+00 -0.00000000000E+00 -0.18865671538E+04  0.18865671538E+04  0.00000000000E+00 0. -1.
         24    2    1    2    0    0 -0.33957353072E+03 -0.34364237473E+03 -0.12910310854E+04  0.13807504542E+04  0.79437326039E+02 0.  0.
        254    2    1    2    0    0  0.33957353072E+03  0.34364237473E+03 -0.84368538343E+02  0.10169842297E+04  0.89092009116E+03 0.  0.
         23    2    4    4    0    0  0.14831850512E+03 -0.27985053381E+03 -0.13748407573E+03  0.35693206056E+03  0.90465045982E+02 0.  0.
         23    2    4    4    0    0  0.19125502560E+03  0.62349290853E+03  0.53115537390E+02  0.66005216919E+03  0.86750872779E+02 0.  0.
          2    1    3    3  502    0 -0.21370838981E+03 -0.26051782303E+03 -0.83518279507E+03  0.90059486628E+03  0.00000000000E+00 0. -1.
         -1    1    3    3    0  502 -0.12586514091E+03 -0.83124551698E+02 -0.45584829033E+03  0.48015558789E+03  0.00000000000E+00 0.  1.
         13    1    5    5    0    0  0.68086666439E+02 -0.20235598539E+03 -0.62277347586E+02  0.22240100492E+03  0.00000000000E+00 0.  1.
        -13    1    5    5    0    0  0.80231838678E+02 -0.77494548419E+02 -0.75206728147E+02  0.13453105564E+03  0.00000000000E+00 0. -1.
          3    1    6    6  503    0  0.70269364138E+02  0.29394084669E+03  0.63575256045E+02  0.30883785078E+03  0.00000000000E+00 0. -1.
         -3    1    6    6    0  503  0.12098566146E+03  0.32955206184E+03 -0.10459718654E+02  0.35121431841E+03  0.00000000000E+00 0.  1.
<mgrwt>
<rscale>  0 0.19640284E+04</rscale>
<asrwt>0</asrwt>
<pdfrwt beam="1">  1        2 0.29024110E+00 0.19640284E+04</pdfrwt>
<pdfrwt beam="2">  1       -1 0.78641160E-01 0.19640284E+04</pdfrwt>
<totfact> 0.13259304E+01</totfact>
</mgrwt>
</event>
<event>
12    7  0.1857704E-007  0.2856834E+04  0.7818608E-02  0.8285838E-01
          2   -1    0    0  501    0  0.00000000000E+00  0.00000000000E+00  0.11868921844E+04  0.11868921844E+04  0.00000000000E+00 0. -1.
         -1   -1    0    0    0  501 -0.00000000000E+00 -0.00000000000E+00 -0.17190905987E+04  0.17190905987E+04  0.00000000000E+00 0.  1.
         24    2    1    2    0    0  0.62742645319E+03  0.74551806664E+03 -0.10922540342E+04  0.14659061845E+04  0.80005778068E+02 0.  0.
        254    2    1    2    0    0 -0.62742645319E+03 -0.74551806664E+03  0.56005561987E+03  0.14400765987E+04  0.90038723384E+03 0.  0.
         23    2    4    4    0    0 -0.31558913507E+03 -0.75304362067E+03  0.70693757908E+03  0.10838877411E+04  0.91546150868E+02 0.  0.
         23    2    4    4    0    0 -0.31183731812E+03  0.75255540355E+01 -0.14688195921E+03  0.35618885760E+03  0.89426200873E+02 0.  0.
          4    1    3    3  502    0  0.75599104206E+02  0.11277591957E+03 -0.18912841648E+03  0.23281578664E+03  0.00000000000E+00 0. -1.
         -3    1    3    3    0  502  0.55182734899E+03  0.63274214707E+03 -0.90312561774E+03  0.12330903978E+04  0.00000000000E+00 0.  1.
         13    1    5    5    0    0 -0.25076310738E+03 -0.53593537049E+03  0.55361303174E+03  0.81030626696E+03  0.00000000000E+00 0.  1.
        -13    1    5    5    0    0 -0.64826027697E+02 -0.21710825018E+03  0.15332454733E+03  0.27358147412E+03  0.00000000000E+00 0. -1.
          2    1    6    6  503    0 -0.20904985237E+03  0.45442657576E+02 -0.83737083467E+02  0.22973631635E+03  0.00000000000E+00 0. -1.
         -2    1    6    6    0  503 -0.10278746576E+03 -0.37917103540E+02 -0.63144875739E+02  0.12645254125E+03  0.00000000000E+00 0.  1.
<mgrwt>
<rscale>  0 0.28568340E+04</rscale>
<asrwt>0</asrwt>
<pdfrwt beam="1">  1        2 0.18259880E+00 0.28568340E+04</pdfrwt>
<pdfrwt beam="2">  1       -1 0.26447548E+00 0.28568340E+04</pdfrwt>
<totfact> 0.10680216E+00</totfact>
</mgrwt>
</event>
<event>
12    7  0.1857704E-007  0.2404154E+04  0.7818608E-02  0.8437950E-01
         -1   -1    0    0    0  501 -0.00000000000E+00  0.00000000000E+00  0.94444528332E+03  0.94444528332E+03  0.00000000000E+00 0.  1.
          2   -1    0    0  501    0  0.00000000000E+00 -0.00000000000E+00 -0.15299865221E+04  0.15299865221E+04  0.00000000000E+00 0. -1.
         24    2    1    2    0    0 -0.67396416967E+03 -0.75013237620E+03 -0.51798600750E+03  0.11363832545E+04  0.78301425257E+02 0.  0.
        254    2    1    2    0    0  0.67396416967E+03  0.75013237620E+03 -0.67555231258E+02  0.13380485509E+04  0.87686026913E+03 0.  0.
         23    2    4    4    0    0  0.88017990930E+02  0.15813660368E+03  0.34800882850E+03  0.40275242055E+03  0.91351055783E+02 0.  0.
         23    2    4    4    0    0  0.58594617874E+03  0.59199577252E+03 -0.41556405976E+03  0.93529613039E+03  0.91068351758E+02 0.  0.
          4    1    3    3  502    0 -0.22071431249E+03 -0.27706159239E+03 -0.14735162286E+03  0.38365405572E+03  0.00000000000E+00 0. -1.
         -3    1    3    3    0  502 -0.45324985719E+03 -0.47307078382E+03 -0.37063438464E+03  0.75272919873E+03  0.00000000000E+00 0.  1.
         13    1    5    5    0    0  0.47012323086E+02  0.14074590522E+03  0.31194935544E+03  0.34544459573E+03  0.00000000000E+00 0.  1.
        -13    1    5    5    0    0  0.41005667843E+02  0.17390698459E+02  0.36059473059E+02  0.57307824819E+02  0.00000000000E+00 0. -1.
          3    1    6    6  503    0  0.33779725846E+03  0.39686759507E+03 -0.23583403143E+03  0.57203895516E+03  0.00000000000E+00 0. -1.
         -3    1    6    6    0  503  0.24814892029E+03  0.19512817746E+03 -0.17973002833E+03  0.36325717524E+03  0.00000000000E+00 0.  1.
<mgrwt>
<rscale>  0 0.24041535E+04</rscale>
<asrwt>0</asrwt>
<pdfrwt beam="1">  1        2 0.23538254E+00 0.24041535E+04</pdfrwt>
<pdfrwt beam="2">  1       -1 0.14529927E+00 0.24041535E+04</pdfrwt>
<totfact> 0.47501193E+00</totfact>
</mgrwt>
</event>
<event>
12    7  0.2013423E-007  0.2663796E+04  0.7818608E-02  0.8346848E-01
          2   -1    0    0  501    0  0.00000000000E+00  0.00000000000E+00  0.22941096100E+04  0.22941096100E+04  0.00000000000E+00 0. -1.
         -1   -1    0    0    0  501 -0.00000000000E+00 -0.00000000000E+00 -0.77326413584E+03  0.77326413584E+03  0.00000000000E+00 0.  1.
         24    2    1    2    0    0  0.80681177593E+03 -0.62085798914E+02 -0.31426877621E+03  0.87176540711E+03  0.80063556760E+02 0.  0.
        254    2    1    2    0    0 -0.80681177593E+03  0.62085798914E+02  0.18351142504E+04  0.21956083387E+04  0.89344937011E+03 0.  0.
         23    2    4    4    0    0 -0.93996598385E+03 -0.12653678599E+03  0.13818245228E+04  0.16784728129E+04  0.91018474906E+02 0.  0.
         23    2    4    4    0    0  0.13315420792E+03  0.18862258490E+03  0.45328972757E+03  0.51713552584E+03  0.93000281421E+02 0.  0.
          2    1    3    3  502    0  0.29722334202E+02  0.94985629103E+01 -0.21303655323E+01  0.31275842196E+02  0.00000000000E+00 0. -1.
         -1    1    3    3    0  502  0.77708944173E+03 -0.71584361824E+02 -0.31213841068E+03  0.84048956491E+03  0.00000000000E+00 0.  1.
         13    1    5    5    0    0 -0.88554867052E+03 -0.13921822857E+03  0.12872844462E+04  0.15686552867E+04  0.00000000000E+00 0. -1.
        -13    1    5    5    0    0 -0.54417313325E+02  0.12681442583E+02  0.94540076600E+02  0.10981752619E+03  0.00000000000E+00 0.  1.
          3    1    6    6  503    0  0.11361657714E+03  0.19177511529E+03  0.37376966251E+03  0.43518982302E+03  0.00000000000E+00 0. -1.
         -3    1    6    6    0  503  0.19537630775E+02 -0.31525303834E+01  0.79520065060E+02  0.81945702824E+02  0.00000000000E+00 0.  1.
<mgrwt>
<rscale>  0 0.26637963E+04</rscale>
<asrwt>0</asrwt>
<pdfrwt beam="1">  1        2 0.35293994E+00 0.26637963E+04</pdfrwt>
<pdfrwt beam="2">  1       -1 0.11896371E+00 0.26637963E+04</pdfrwt>
<totfact> 0.28906476E+00</totfact>
</mgrwt>
</event>
<event>
12    7  0.1857704E-007  0.3453466E+04  0.7818608E-02  0.8124907E-01
         -1   -1    0    0    0  501 -0.00000000000E+00  0.00000000000E+00  0.11293376266E+04  0.11293376266E+04  0.00000000000E+00 0.  1.
          2   -1    0    0  501    0  0.00000000000E+00 -0.00000000000E+00 -0.26401384286E+04  0.26401384286E+04  0.00000000000E+00 0. -1.
         24    2    1    2    0    0 -0.13658645844E+04 -0.42926089483E+03 -0.15040165467E+04  0.20782598720E+04  0.85131333130E+02 0.  0.
        254    2    1    2    0    0  0.13658645844E+04  0.42926089483E+03 -0.67842553002E+01  0.16912161832E+04  0.90017507933E+03 0.  0.
         23    2    4    4    0    0  0.47166374596E+03  0.46048993624E+03 -0.32044740262E+03  0.73865554772E+03  0.91694109454E+02 0.  0.
         23    2    4    4    0    0  0.89420083846E+03 -0.31229041410E+02  0.31366314732E+03  0.95256063549E+03  0.91743129258E+02 0.  0.
          2    1    3    3  502    0 -0.41624483689E+03 -0.16282407638E+03 -0.43326778970E+03  0.62248889281E+03  0.00000000000E+00 0. -1.
         -1    1    3    3    0  502 -0.94961974752E+03 -0.26643681845E+03 -0.10707487570E+04  0.14557709792E+04  0.00000000000E+00 0.  1.
         13    1    5    5    0    0  0.20172160190E+03  0.15288831607E+03 -0.15775985422E+03  0.29825260010E+03  0.00000000000E+00 0. -1.
        -13    1    5    5    0    0  0.26994214405E+03  0.30760162017E+03 -0.16268754840E+03  0.44040294762E+03  0.00000000000E+00 0.  1.
          1    1    6    6  503    0  0.64831105551E+02 -0.26447857487E+02  0.22166143842E+02  0.73443170856E+02  0.00000000000E+00 0. -1.
         -1    1    6    6    0  503  0.82936973291E+03 -0.47811839231E+01  0.29149700348E+03  0.87911746463E+03  0.00000000000E+00 0.  1.
<mgrwt>
<rscale>  0 0.34534665E+04</rscale>
<asrwt>0</asrwt>
<pdfrwt beam="1">  1        2 0.40617514E+00 0.34534665E+04</pdfrwt>
<pdfrwt beam="2">  1       -1 0.17374425E+00 0.34534665E+04</pdfrwt>
<totfact> 0.62373994E-01</totfact>
</mgrwt>
</event>
<event>
12    7  0.1857704E-007  0.1944179E+04  0.7818608E-02  0.8633173E-01
         -1   -1    0    0    0  501 -0.00000000000E+00  0.00000000000E+00  0.56401909010E+03  0.56401909010E+03  0.00000000000E+00 0.  1.
          2   -1    0    0  501    0  0.00000000000E+00 -0.00000000000E+00 -0.16753999236E+04  0.16753999236E+04  0.00000000000E+00 0. -1.
         24    2    1    2    0    0  0.52146714864E+02  0.45759278970E+03 -0.11321491932E+04  0.12247619126E+04  0.78546201567E+02 0.  0.
        254    2    1    2    0    0 -0.52146714864E+02 -0.45759278970E+03  0.20768359641E+02  0.10146571012E+04  0.90387347962E+03 0.  0.
         23    2    4    4    0    0 -0.59268746200E+02 -0.70860259902E+03 -0.95823990181E+02  0.72287818217E+03  0.87978415287E+02 0.  0.
         23    2    4    4    0    0  0.71220313359E+01  0.25100980932E+03  0.11659234982E+03  0.29177891901E+03  0.92111420769E+02 0.  0.
          2    1    3    3  502    0  0.27549568489E+02  0.40624727439E+03 -0.10341759580E+04  0.11114475870E+04  0.00000000000E+00 0. -1.
         -1    1    3    3    0  502  0.24597146375E+02  0.51345515312E+02 -0.97973235201E+02  0.11331432552E+03  0.00000000000E+00 0.  1.
         13    1    5    5    0    0 -0.63949620341E+02 -0.38695394827E+03 -0.83303833582E+02  0.40095191821E+03  0.00000000000E+00 0. -1.
        -13    1    5    5    0    0  0.46808741407E+01 -0.32164865074E+03 -0.12520156600E+02  0.32192626396E+03  0.00000000000E+00 0.  1.
          1    1    6    6  503    0  0.24754302238E+02  0.23607729029E+03  0.12361404557E+03  0.26762977176E+03  0.00000000000E+00 0. -1.
         -1    1    6    6    0  503 -0.17632270902E+02  0.14932519028E+02 -0.70216957466E+01  0.24149147249E+02  0.00000000000E+00 0.  1.
<mgrwt>
<rscale>  0 0.19441785E+04</rscale>
<asrwt>0</asrwt>
<pdfrwt beam="1">  1        2 0.25775383E+00 0.19441785E+04</pdfrwt>
<pdfrwt beam="2">  1       -1 0.86772169E-01 0.19441785E+04</pdfrwt>
<totfact> 0.14082072E+01</totfact>
</mgrwt>
</event>
<event>
12    7  0.1857704E-007  0.1014321E+04  0.7818608E-02  0.9292976E-01
          2   -1    0    0  501    0  0.00000000000E+00  0.00000000000E+00  0.95406619832E+03  0.95406619832E+03  0.00000000000E+00 0. -1.
         -1   -1    0    0    0  501 -0.00000000000E+00 -0.00000000000E+00 -0.26959526023E+03  0.26959526023E+03  0.00000000000E+00 0.  1.
         24    2    1    2    0    0 -0.46697342360E+02  0.20529855911E+02  0.11794386852E+03  0.15138113686E+03  0.80021095395E+02 0.  0.
        254    2    1    2    0    0  0.46697342360E+02 -0.20529855911E+02  0.56652706957E+03  0.10722803217E+04  0.90897197478E+03 0.  0.
         23    2    4    4    0    0 -0.31727411957E+03  0.18001562488E+03  0.52350908627E+03  0.64443281066E+03  0.90351490809E+02 0.  0.
         23    2    4    4    0    0  0.36397146193E+03 -0.20054548079E+03  0.43017983295E+02  0.42784751102E+03  0.92245492220E+02 0.  0.
          2    1    3    3  502    0  0.12872989569E+02  0.22876716464E+01  0.73988827030E+02  0.75135170375E+02  0.00000000000E+00 0. -1.
         -1    1    3    3    0  502 -0.59570331929E+02  0.18242184265E+02  0.43955041494E+02  0.76245966487E+02  0.00000000000E+00 0.  1.
         13    1    5    5    0    0 -0.58065451563E+02  0.18820625132E+00  0.10927047809E+03  0.12374033081E+03  0.00000000000E+00 0. -1.
        -13    1    5    5    0    0 -0.25920866801E+03  0.17982741863E+03  0.41423860818E+03  0.52069247985E+03  0.00000000000E+00 0.  1.
          4    1    6    6  503    0  0.90601387076E+02 -0.73299623718E+01  0.73566931756E+01  0.91194630450E+02  0.00000000000E+00 0. -1.
         -4    1    6    6    0  503  0.27337007486E+03 -0.19321551842E+03  0.35661290120E+02  0.33665288057E+03  0.00000000000E+00 0.  1.
<mgrwt>
<rscale>  0 0.10143209E+04</rscale>
<asrwt>0</asrwt>
<pdfrwt beam="1">  1        2 0.14677941E+00 0.10143209E+04</pdfrwt>
<pdfrwt beam="2">  1       -1 0.41476194E-01 0.10143209E+04</pdfrwt>
<totfact> 0.17478535E+02</totfact>
</mgrwt>
</event>
<event>
12    7  0.1857704E-007  0.1677184E+04  0.7818608E-02  0.8774485E-01
          2   -1    0    0  501    0  0.00000000000E+00  0.00000000000E+00  0.34586746615E+04  0.34586746615E+04  0.00000000000E+00 0. -1.
         -1   -1    0    0    0  501 -0.00000000000E+00 -0.00000000000E+00 -0.20332534243E+03  0.20332534243E+03  0.00000000000E+00 0.  1.
         24    2    1    2    0    0 -0.51921319182E+03 -0.21307002796E+03  0.78535550674E+03  0.96838840981E+03  0.77534926992E+02 0.  0.
        254    2    1    2    0    0  0.51921319182E+03  0.21307002796E+03  0.24699938124E+04  0.26936115941E+04  0.91634753870E+03 0.  0.
         23    2    4    4    0    0  0.64278394950E+03  0.42316928433E+03  0.21229413377E+04  0.22597192538E+04  0.84898373678E+02 0.  0.
         23    2    4    4    0    0 -0.12357075767E+03 -0.21009925637E+03  0.34705247467E+03  0.43389234034E+03  0.91682676409E+02 0.  0.
          4    1    3    3  502    0 -0.20742375855E+03 -0.91602630501E+02  0.25436635616E+03  0.34076076751E+03  0.00000000000E+00 0. -1.
         -3    1    3    3    0  502 -0.31178943328E+03 -0.12146739746E+03  0.53098915058E+03  0.62762764230E+03  0.00000000000E+00 0.  1.
         13    1    5    5    0    0  0.97301373712E+02  0.30062954342E+02  0.28612295935E+03  0.30370657948E+03  0.00000000000E+00 0.  1.
        -13    1    5    5    0    0  0.54548257578E+03  0.39310632999E+03  0.18368183783E+04  0.19560126743E+04  0.00000000000E+00 0. -1.
          1    1    6    6  503    0 -0.13138554144E+03 -0.15719846763E+03  0.29580941908E+03  0.35982875253E+03  0.00000000000E+00 0. -1.
         -1    1    6    6    0  503  0.78147837690E+01 -0.52900788734E+02  0.51243055586E+02  0.74063587813E+02  0.00000000000E+00 0.  1.
<mgrwt>
<rscale>  0 0.16771836E+04</rscale>
<asrwt>0</asrwt>
<pdfrwt beam="1">  1        2 0.53210375E+00 0.16771836E+04</pdfrwt>
<pdfrwt beam="2">  1       -1 0.31280825E-01 0.16771836E+04</pdfrwt>
<totfact> 0.90257465E+00</totfact>
</mgrwt>
</event>
<event>
12    7  0.1857704E-007  0.1789525E+04  0.7818608E-02  0.8711890E-01
          2   -1    0    0  501    0  0.00000000000E+00  0.00000000000E+00  0.57878679319E+03  0.57878679319E+03  0.00000000000E+00 0. -1.
         -1   -1    0    0    0  501 -0.00000000000E+00 -0.00000000000E+00 -0.13832381807E+04  0.13832381807E+04  0.00000000000E+00 0.  1.
         24    2    1    2    0    0  0.26760656236E+03 -0.52994095228E+03  0.27931943922E+02  0.59954185044E+03  0.78864135127E+02 0.  0.
        254    2    1    2    0    0 -0.26760656236E+03  0.52994095228E+03 -0.83238333144E+03  0.13624831235E+04  0.90058179314E+03 0.  0.
         23    2    4    4    0    0 -0.40859749261E+03  0.25723634014E+03 -0.22468400875E+02  0.49191815044E+03  0.91412209492E+02 0.  0.
         23    2    4    4    0    0  0.14099093024E+03  0.27270461214E+03 -0.80991493057E+03  0.87056497302E+03  0.87606675563E+02 0.  0.
          4    1    3    3  502    0  0.23047117168E+03 -0.44204946371E+03 -0.51671120918E+01  0.49854928381E+03  0.00000000000E+00 0. -1.
         -3    1    3    3    0  502  0.37135390680E+02 -0.87891488576E+02  0.33099056014E+02  0.10099256663E+03  0.00000000000E+00 0.  1.
         13    1    5    5    0    0 -0.16430170814E+03  0.91575875377E+02 -0.52334231923E+02  0.19524360190E+03  0.00000000000E+00 0. -1.
        -13    1    5    5    0    0 -0.24429578446E+03  0.16566046476E+03  0.29865831048E+02  0.29667454855E+03  0.00000000000E+00 0.  1.
          3    1    6    6  503    0 -0.15358071703E-01  0.72046694118E+02 -0.14618362529E+03  0.16297355207E+03  0.00000000000E+00 0. -1.
         -3    1    6    6    0  503  0.14100628831E+03  0.20065791803E+03 -0.66373130527E+03  0.70759142096E+03  0.00000000000E+00 0.  1.
<mgrwt>
<rscale>  0 0.17895251E+04</rscale>
<asrwt>0</asrwt>
<pdfrwt beam="1">  1        2 0.89044122E-01 0.17895251E+04</pdfrwt>
<pdfrwt beam="2">  1       -1 0.21280587E+00 0.17895251E+04</pdfrwt>
<totfact> 0.68783204E+00</totfact>
</mgrwt>
</event>
<event>
12    7  0.2743944E-007  0.1513493E+04  0.7818608E-02  0.8875530E-01
         -1   -1    0    0    0  501 -0.00000000000E+00  0.00000000000E+00  0.36637972127E+03  0.36637972127E+03  0.00000000000E+00 0.  1.
          2   -1    0    0  501    0  0.00000000000E+00 -0.00000000000E+00 -0.15630373656E+04  0.15630373656E+04  0.00000000000E+00 0. -1.
         24    2    1    2    0    0  0.29186540816E+03 -0.24272355772E+03 -0.18853101417E+01  0.38794354816E+03  0.79978123310E+02 0.  0.
        254    2    1    2    0    0 -0.29186540816E+03  0.24272355772E+03 -0.11947723342E+04  0.15414735387E+04  0.89697246226E+03 0.  0.
         23    2    4    4    0    0 -0.23641440808E+03  0.47775858701E+03 -0.11632858609E+04  0.12828142105E+04  0.90737339226E+02 0.  0.
         23    2    4    4    0    0 -0.55451000080E+02 -0.23503502929E+03 -0.31486473295E+02  0.25865932819E+03  0.87160608410E+02 0.  0.
          2    1    3    3  502    0  0.24245579812E+02 -0.23822499940E+02  0.23417168115E+02  0.41276184494E+02  0.00000000000E+00 0. -1.
         -1    1    3    3    0  502  0.26761982835E+03 -0.21890105778E+03 -0.25302478257E+02  0.34666736366E+03  0.00000000000E+00 0.  1.
         13    1    5    5    0    0 -0.39802400030E+02  0.17631936484E+03 -0.39889489662E+03  0.43793822397E+03  0.00000000000E+00 0.  1.
        -13    1    5    5    0    0 -0.19661200805E+03  0.30143922217E+03 -0.76439096431E+03  0.84487598658E+03  0.00000000000E+00 0. -1.
          3    1    6    6  503    0 -0.73418381776E+02 -0.13099840437E+03 -0.29639411537E+02  0.15306644128E+03  0.00000000000E+00 0. -1.
         -3    1    6    6    0  503  0.17967381696E+02 -0.10403662492E+03 -0.18470617587E+01  0.10559288691E+03  0.00000000000E+00 0.  1.
<mgrwt>
<rscale>  0 0.15134929E+04</rscale>
<asrwt>0</asrwt>
<pdfrwt beam="1">  1        2 0.24046729E+00 0.15134929E+04</pdfrwt>
<pdfrwt beam="2">  1       -1 0.56366111E-01 0.15134929E+04</pdfrwt>
<totfact> 0.40970797E+01</totfact>
</mgrwt>
</event>
<event>
12    7  0.1857704E-007  0.1963102E+04  0.7818608E-02  0.8624069E-01
         -1   -1    0    0    0  501 -0.00000000000E+00  0.00000000000E+00  0.59052972175E+03  0.59052972175E+03  0.00000000000E+00 0.  1.
          2   -1    0    0  501    0  0.00000000000E+00 -0.00000000000E+00 -0.16314877949E+04  0.16314877949E+04  0.00000000000E+00 0. -1.
         24    2    1    2    0    0  0.30886762774E+03  0.67721136585E+03 -0.20036699895E+03  0.77505314121E+03  0.80907304608E+02 0.  0.
        254    2    1    2    0    0 -0.30886762774E+03 -0.67721136585E+03 -0.84059107423E+03  0.14469643755E+04  0.91274207983E+03 0.  0.
         23    2    4    4    0    0  0.28998801379E+03 -0.12314304470E+03 -0.39172494580E+03  0.51120945480E+03  0.92894649522E+02 0.  0.
         23    2    4    4    0    0 -0.59885564153E+03 -0.55406832115E+03 -0.44886612843E+03  0.93575492067E+03  0.92394190307E+02 0.  0.
          4    1    3    3  502    0  0.80443856805E+02  0.10275590107E+03 -0.34151599638E+02  0.13489373988E+03  0.00000000000E+00 0. -1.
         -3    1    3    3    0  502  0.22842377093E+03  0.57445546478E+03 -0.16621539931E+03  0.64015940133E+03  0.00000000000E+00 0.  1.
         13    1    5    5    0    0  0.88087386937E+02 -0.86095755086E+02 -0.14450594231E+03  0.18987847204E+03  0.00000000000E+00 0. -1.
        -13    1    5    5    0    0  0.20190062686E+03 -0.37047289610E+02 -0.24721900349E+03  0.32133098276E+03  0.00000000000E+00 0.  1.
          3    1    6    6  503    0 -0.53785438118E+03 -0.46116231633E+03 -0.36843900403E+03  0.79856453531E+03  0.00000000000E+00 0. -1.
         -3    1    6    6    0  503 -0.61001260351E+02 -0.92906004819E+02 -0.80427124397E+02  0.13719038536E+03  0.00000000000E+00 0.  1.
<mgrwt>
<rscale>  0 0.19631017E+04</rscale>
<asrwt>0</asrwt>
<pdfrwt beam="1">  1        2 0.25099812E+00 0.19631017E+04</pdfrwt>
<pdfrwt beam="2">  1       -1 0.90850727E-01 0.19631017E+04</pdfrwt>
<totfact> 0.13447220E+01</totfact>
</mgrwt>
</event>
<event>
12    7  0.2114875E-007  0.1941366E+04  0.7818608E-02  0.8634536E-01
          2   -1    0    0  501    0  0.00000000000E+00  0.00000000000E+00  0.20113180489E+04  0.20113180489E+04  0.00000000000E+00 0. -1.
         -1   -1    0    0    0  501 -0.00000000000E+00 -0.00000000000E+00 -0.46846168272E+03  0.46846168272E+03  0.00000000000E+00 0.  1.
         24    2    1    2    0    0 -0.17163801328E+03  0.65359403546E+02 -0.33212546903E+03  0.38781754233E+03  0.79772549922E+02 0.  0.
        254    2    1    2    0    0  0.17163801328E+03 -0.65359403546E+02  0.18749818352E+04  0.20919621893E+04  0.90940500321E+03 0.  0.
         23    2    4    4    0    0  0.17443378887E+03 -0.47154972694E+03  0.10664845655E+04  0.11825635944E+04  0.91000191243E+02 0.  0.
         23    2    4    4    0    0 -0.27957755901E+01  0.40619032340E+03  0.80849726970E+03  0.90939859484E+03  0.91321268008E+02 0.  0.
          4    1    3    3  502    0  0.11635780740E+01  0.26419118698E+00  0.40739507421E+01  0.42450895829E+01  0.00000000000E+00 0. -1.
         -3    1    3    3    0  502 -0.17280159135E+03  0.65095212359E+02 -0.33619941977E+03  0.38357245274E+03  0.00000000000E+00 0.  1.
         13    1    5    5    0    0  0.23368770689E+02 -0.20545575896E+02  0.35839972501E+02  0.47462867183E+02  0.00000000000E+00 0. -1.
        -13    1    5    5    0    0  0.15106501818E+03 -0.45100415105E+03  0.10306445930E+04  0.11351007273E+04  0.00000000000E+00 0.  1.
          1    1    6    6  503    0 -0.13199746266E+02  0.39351527494E+01  0.22343691293E+02  0.26248033626E+02  0.00000000000E+00 0. -1.
         -1    1    6    6    0  503  0.10403970676E+02  0.40225517065E+03  0.78615357841E+03  0.88315056121E+03  0.00000000000E+00 0.  1.
<mgrwt>
<rscale>  0 0.19413659E+04</rscale>
<asrwt>0</asrwt>
<pdfrwt beam="1">  1        2 0.30943354E+00 0.19413659E+04</pdfrwt>
<pdfrwt beam="2">  1       -1 0.72071029E-01 0.19413659E+04</pdfrwt>
<totfact> 0.13596253E+01</totfact>
</mgrwt>
</event>
<event>
12    7  0.1857704E-007  0.1527833E+04  0.7818608E-02  0.8866152E-01
         -1   -1    0    0    0  501 -0.00000000000E+00  0.00000000000E+00  0.24434062251E+03  0.24434062251E+03  0.00000000000E+00 0.  1.
          2   -1    0    0  501    0  0.00000000000E+00 -0.00000000000E+00 -0.23883403155E+04  0.23883403155E+04  0.00000000000E+00 0. -1.
         24    2    1    2    0    0 -0.15989425567E+03  0.43455781637E+03 -0.94009393767E+03  0.10510222259E+04  0.80401734886E+02 0.  0.
        254    2    1    2    0    0  0.15989425567E+03 -0.43455781637E+03 -0.12039057554E+04  0.15816587121E+04  0.91534067161E+03 0.  0.
         23    2    4    4    0    0  0.34416516323E+03 -0.97481073489E+01 -0.10113251414E+04  0.10721815895E+04  0.90830248724E+02 0.  0.
         23    2    4    4    0    0 -0.18427090756E+03 -0.42480970902E+03 -0.19258061393E+03  0.50947712259E+03  0.89780784820E+02 0.  0.
          4    1    3    3  502    0 -0.15583491056E+03  0.43716645303E+03 -0.93578184263E+03  0.10445509485E+04  0.00000000000E+00 0. -1.
         -3    1    3    3    0  502 -0.40593451092E+01 -0.26086366556E+01 -0.43120950354E+01  0.64712774249E+01  0.00000000000E+00 0.  1.
         13    1    5    5    0    0 -0.14367282140E+01  0.93315048764E+01 -0.37596625789E+02  0.38763996723E+02  0.00000000000E+00 0.  1.
        -13    1    5    5    0    0  0.34560189145E+03 -0.19079612225E+02 -0.97372851564E+03  0.10334175928E+04  0.00000000000E+00 0. -1.
          3    1    6    6  503    0 -0.54587462705E+02 -0.20269098351E+03 -0.51573683187E+02  0.21615566308E+03  0.00000000000E+00 0. -1.
         -3    1    6    6    0  503 -0.12968344486E+03 -0.22211872551E+03 -0.14100693074E+03  0.29332145951E+03  0.00000000000E+00 0.  1.
<mgrwt>
<rscale>  0 0.15278332E+04</rscale>
<asrwt>0</asrwt>
<pdfrwt beam="1">  1        2 0.36743697E+00 0.15278332E+04</pdfrwt>
<pdfrwt beam="2">  1       -1 0.37590866E-01 0.15278332E+04</pdfrwt>
<totfact> 0.30297619E+01</totfact>
</mgrwt>
</event>
<event>
12    7  0.1857704E-007  0.1729158E+04  0.7818608E-02  0.8744907E-01
         -1   -1    0    0    0  501 -0.00000000000E+00  0.00000000000E+00  0.13775091375E+04  0.13775091375E+04  0.00000000000E+00 0.  1.
          2   -1    0    0  501    0  0.00000000000E+00 -0.00000000000E+00 -0.54264372392E+03  0.54264372392E+03  0.00000000000E+00 0. -1.
         24    2    1    2    0    0 -0.11934864062E+03 -0.24435333611E+03  0.94056798627E+03  0.98225926838E+03  0.78819303801E+02 0.  0.
        254    2    1    2    0    0  0.11934864062E+03  0.24435333611E+03 -0.10570257268E+03  0.93789359304E+03  0.89135778849E+03 0.  0.
         23    2    4    4    0    0 -0.75891272974E+01 -0.30800799029E+03  0.83993675046E+02  0.33288231560E+03  0.93963725194E+02 0.  0.
         23    2    4    4    0    0  0.12693776792E+03  0.55236132640E+03 -0.18969624773E+03  0.60501127744E+03  0.94009295286E+02 0.  0.
          2    1    3    3  502    0  0.93306551735E+01 -0.25326773696E+02  0.60197602263E+02  0.65971644742E+02  0.00000000000E+00 0. -1.
         -1    1    3    3    0  502 -0.12867929580E+03 -0.21902656241E+03  0.88037038400E+03  0.91628762364E+03  0.00000000000E+00 0.  1.
         13    1    5    5    0    0 -0.11702059573E+02 -0.13431630751E+03  0.84546258606E+02  0.15914106480E+03  0.00000000000E+00 0.  1.
        -13    1    5    5    0    0  0.41129322757E+01 -0.17369168279E+03 -0.55258356007E+00  0.17374125080E+03  0.00000000000E+00 0. -1.
          4    1    6    6  503    0  0.22695608543E+02  0.14245889987E+03 -0.73910257413E+01  0.14444464705E+03  0.00000000000E+00 0. -1.
         -4    1    6    6    0  503  0.10424215938E+03  0.40990242653E+03 -0.18230522199E+03  0.46056663039E+03  0.00000000000E+00 0.  1.
<mgrwt>
<rscale>  0 0.17291578E+04</rscale>
<asrwt>0</asrwt>
<pdfrwt beam="1">  1        2 0.83483650E-01 0.17291578E+04</pdfrwt>
<pdfrwt beam="2">  1       -1 0.21192448E+00 0.17291578E+04</pdfrwt>
<totfact> 0.75688120E+00</totfact>
</mgrwt>
</event>
<event>
12    7  0.2221038E-007  0.1511305E+04  0.7818608E-02  0.8876970E-01
          2   -1    0    0  501    0  0.00000000000E+00  0.00000000000E+00  0.25905977305E+04  0.25905977305E+04  0.00000000000E+00 0. -1.
         -1   -1    0    0    0  501 -0.00000000000E+00 -0.00000000000E+00 -0.22041668502E+03  0.22041668502E+03  0.00000000000E+00 0.  1.
         24    2    1    2    0    0 -0.24195597993E+03 -0.49446226737E+01 -0.95248699454E+01  0.25504182849E+03  0.79927877582E+02 0.  0.
        254    2    1    2    0    0  0.24195597993E+03  0.49446226737E+01  0.23797059154E+04  0.25559725870E+04  0.90079324829E+03 0.  0.
         23    2    4    4    0    0 -0.11063858714E+03  0.22126468524E+03  0.18933253513E+04  0.19114472640E+04  0.88038624767E+02 0.  0.
         23    2    4    4    0    0  0.35259456708E+03 -0.21632006257E+03  0.48638056413E+03  0.64452532298E+03  0.87917805906E+02 0.  0.
          2    1    3    3  502    0 -0.53476571870E+01 -0.59124463397E+01  0.15179231114E+02  0.17145364281E+02  0.00000000000E+00 0. -1.
         -1    1    3    3    0  502 -0.23660832275E+03  0.96782366602E+00 -0.24704101060E+02  0.23789646421E+03  0.00000000000E+00 0.  1.
         13    1    5    5    0    0 -0.12568641600E+03  0.19950866917E+03  0.17294272823E+04  0.17454281736E+04  0.00000000000E+00 0. -1.
        -13    1    5    5    0    0  0.15047828857E+02  0.21756016070E+02  0.16389806897E+03  0.16601909047E+03  0.00000000000E+00 0.  1.
          2    1    6    6  503    0  0.32739360102E+03 -0.17199918339E+03  0.44667166067E+03  0.57990159642E+03  0.00000000000E+00 0. -1.
         -2    1    6    6    0  503  0.25200966054E+02 -0.44320879176E+02  0.39708903460E+02  0.64623726563E+02  0.00000000000E+00 0.  1.
<mgrwt>
<rscale>  0 0.15113053E+04</rscale>
<asrwt>0</asrwt>
<pdfrwt beam="1">  1        2 0.39855347E+00 0.15113053E+04</pdfrwt>
<pdfrwt beam="2">  1       -1 0.33910261E-01 0.15113053E+04</pdfrwt>
<totfact> 0.27920593E+01</totfact>
</mgrwt>
</event>
<event>
12    7  0.1857704E-007  0.1264165E+04  0.7818608E-02  0.9058476E-01
          2   -1    0    0  501    0  0.00000000000E+00  0.00000000000E+00  0.22909301479E+04  0.22909301479E+04  0.00000000000E+00 0. -1.
         -1   -1    0    0    0  501 -0.00000000000E+00 -0.00000000000E+00 -0.17439564104E+03  0.17439564104E+03  0.00000000000E+00 0.  1.
         24    2    1    2    0    0 -0.15156433995E+03 -0.72617105684E+02  0.10389080203E+04  0.10549113089E+04  0.72546549466E+02 0.  0.
        254    2    1    2    0    0  0.15156433995E+03  0.72617105684E+02  0.10776264865E+04  0.14104144800E+04  0.89428472411E+03 0.  0.
         23    2    4    4    0    0 -0.63171479435E+02 -0.28294859586E+03  0.89818715173E+03  0.94854484646E+03  0.94586587252E+02 0.  0.
         23    2    4    4    0    0  0.21473581938E+03  0.35556570154E+03  0.17943933481E+03  0.46186963357E+03  0.92664142445E+02 0.  0.
          4    1    3    3  502    0 -0.15880853092E+03 -0.62844549760E+02  0.96083064134E+03  0.97589195522E+03  0.00000000000E+00 0. -1.
         -3    1    3    3    0  502  0.72441909703E+01 -0.97725559237E+01  0.78077378933E+02  0.79019353662E+02  0.00000000000E+00 0.  1.
         13    1    5    5    0    0 -0.22788920107E+02 -0.31034879808E+02  0.23203084798E+03  0.23520376923E+03  0.00000000000E+00 0.  1.
        -13    1    5    5    0    0 -0.40382559328E+02 -0.25191371605E+03  0.66615630375E+03  0.71334107722E+03  0.00000000000E+00 0. -1.
          3    1    6    6  503    0  0.10310783875E+03  0.23115713667E+03  0.14329822690E+03  0.29085946792E+03  0.00000000000E+00 0. -1.
         -3    1    6    6    0  503  0.11162798064E+03  0.12440856488E+03  0.36141107909E+02  0.17101016565E+03  0.00000000000E+00 0.  1.
<mgrwt>
<rscale>  0 0.12641649E+04</rscale>
<asrwt>0</asrwt>
<pdfrwt beam="1">  1        2 0.35245077E+00 0.12641649E+04</pdfrwt>
<pdfrwt beam="2">  1       -1 0.26830100E-01 0.12641649E+04</pdfrwt>
<totfact> 0.63864852E+01</totfact>
</mgrwt>
</event>
<event>
12    7  0.1857704E-007  0.1256175E+04  0.7818608E-02  0.9065059E-01
         -1   -1    0    0    0  501 -0.00000000000E+00  0.00000000000E+00  0.19679489654E+03  0.19679489654E+03  0.00000000000E+00 0.  1.
          2   -1    0    0  501    0  0.00000000000E+00 -0.00000000000E+00 -0.20045955742E+04  0.20045955742E+04  0.00000000000E+00 0. -1.
         24    2    1    2    0    0  0.56601222671E+02  0.27669026592E+03 -0.51342691954E+03  0.59195826220E+03  0.83941532147E+02 0.  0.
        254    2    1    2    0    0 -0.56601222671E+02 -0.27669026592E+03 -0.12943737581E+04  0.16094322085E+04  0.91384211245E+03 0.  0.
         23    2    4    4    0    0 -0.27724200925E+03 -0.24183423829E+03 -0.10191521499E+03  0.39262768459E+03  0.91776125244E+02 0.  0.
         23    2    4    4    0    0  0.22064078657E+03 -0.34856027634E+02 -0.11924585431E+04  0.12168045239E+04  0.93587248366E+02 0.  0.
          2    1    3    3  502    0  0.20262269535E+02  0.12657546793E+03 -0.31801633552E+03  0.34287942240E+03  0.00000000000E+00 0. -1.
         -1    1    3    3    0  502  0.36338953137E+02  0.15011479799E+03 -0.19541058402E+03  0.24907883980E+03  0.00000000000E+00 0.  1.
         13    1    5    5    0    0 -0.64506882921E+02 -0.18239034329E+02 -0.39319019028E+02  0.77716057380E+02  0.00000000000E+00 0. -1.
        -13    1    5    5    0    0 -0.21273512632E+03 -0.22359520396E+03 -0.62596195964E+02  0.31491162721E+03  0.00000000000E+00 0.  1.
          3    1    6    6  503    0  0.47080900091E+02 -0.16810368602E+02 -0.11627981412E+03  0.12657090826E+03  0.00000000000E+00 0. -1.
         -3    1    6    6    0  503  0.17355988648E+03 -0.18045659032E+02 -0.10761787290E+04  0.10902336156E+04  0.00000000000E+00 0.  1.
<mgrwt>
<rscale>  0 0.12561754E+04</rscale>
<asrwt>0</asrwt>
<pdfrwt beam="1">  1        2 0.30839932E+00 0.12561754E+04</pdfrwt>
<pdfrwt beam="2">  1       -1 0.30276138E-01 0.12561754E+04</pdfrwt>
<totfact> 0.74765556E+01</totfact>
</mgrwt>
</event>
<event>
12    7  0.1857704E-007  0.1413059E+04  0.7818608E-02  0.8944420E-01
          2   -1    0    0  501    0  0.00000000000E+00  0.00000000000E+00  0.35319860810E+03  0.35319860810E+03  0.00000000000E+00 0. -1.
         -1   -1    0    0    0  501 -0.00000000000E+00 -0.00000000000E+00 -0.14133229294E+04  0.14133229294E+04  0.00000000000E+00 0.  1.
         24    2    1    2    0    0 -0.64075602812E+02  0.25548144086E+03 -0.71375177236E+03  0.76499024599E+03  0.79950199592E+02 0.  0.
        254    2    1    2    0    0  0.64075602812E+02 -0.25548144086E+03 -0.34637254895E+03  0.10015312915E+04  0.90206127049E+03 0.  0.
         23    2    4    4    0    0  0.18802812147E+03 -0.54147096049E+03 -0.34854200951E+03  0.67700931561E+03  0.91185007108E+02 0.  0.
         23    2    4    4    0    0 -0.12395251866E+03  0.28598951963E+03  0.21694605577E+01  0.32452197590E+03  0.90308217045E+02 0.  0.
          2    1    3    3  502    0 -0.14930299165E+02  0.69033928434E+02 -0.30460063679E+03  0.31268217897E+03  0.00000000000E+00 0. -1.
         -1    1    3    3    0  502 -0.49145303647E+02  0.18644751242E+03 -0.40915113557E+03  0.45230806702E+03  0.00000000000E+00 0.  1.
         13    1    5    5    0    0  0.17289136080E+03 -0.37321880093E+03 -0.25391574198E+03  0.48338069886E+03  0.00000000000E+00 0. -1.
        -13    1    5    5    0    0  0.15136760674E+02 -0.16825215956E+03 -0.94626267521E+02  0.19362861675E+03  0.00000000000E+00 0.  1.
          4    1    6    6  503    0 -0.23073903776E+02  0.67471477104E+02  0.38625542376E+02  0.81097088616E+02  0.00000000000E+00 0.  1.
         -4    1    6    6    0  503 -0.10087861488E+03  0.21851804253E+03 -0.36456081819E+02  0.24342488729E+03  0.00000000000E+00 0. -1.
<mgrwt>
<rscale>  0 0.14130587E+04</rscale>
<asrwt>0</asrwt>
<pdfrwt beam="1">  1        2 0.54338248E-01 0.14130587E+04</pdfrwt>
<pdfrwt beam="2">  1       -1 0.21743429E+00 0.14130587E+04</pdfrwt>
<totfact> 0.11659785E+01</totfact>
</mgrwt>
</event>
<event>
12    7  0.1857704E-007  0.1585227E+04  0.7818608E-02  0.8829675E-01
          2   -1    0    0  501    0  0.00000000000E+00  0.00000000000E+00  0.17620287709E+04  0.17620287709E+04  0.00000000000E+00 0. -1.
         -1   -1    0    0    0  501 -0.00000000000E+00 -0.00000000000E+00 -0.35654138949E+03  0.35654138949E+03  0.00000000000E+00 0.  1.
         24    2    1    2    0    0 -0.26323540207E+03  0.44866666219E+03  0.62643349668E+03  0.81800850609E+03  0.78258160118E+02 0.  0.
        254    2    1    2    0    0  0.26323540207E+03 -0.44866666219E+03  0.77905388475E+03  0.13005616543E+04  0.90218679367E+03 0.  0.
         23    2    4    4    0    0  0.47293675737E+03 -0.51149262448E+03  0.79677778287E+03  0.10620578173E+04  0.88419967128E+02 0.  0.
         23    2    4    4    0    0 -0.20970135530E+03  0.62825962291E+02 -0.17723898127E+02  0.23850383704E+03  0.92995611526E+02 0.  0.
          2    1    3    3  502    0 -0.11871098799E+03  0.27664246274E+03  0.34438853662E+03  0.45741317757E+03  0.00000000000E+00 0. -1.
         -1    1    3    3    0  502 -0.14452441408E+03  0.17202419945E+03  0.28204496006E+03  0.36059532852E+03  0.00000000000E+00 0.  1.
         13    1    5    5    0    0  0.34335537803E+02 -0.13750645632E+02  0.26659285356E+02  0.45593057665E+02  0.00000000000E+00 0.  1.
        -13    1    5    5    0    0  0.43860121957E+03 -0.49774197884E+03  0.77011849752E+03  0.10164647596E+04  0.00000000000E+00 0. -1.
          1    1    6    6  503    0 -0.20785642998E+03  0.77801496423E+02 -0.21413179188E+02  0.22297060921E+03  0.00000000000E+00 0. -1.
         -1    1    6    6    0  503 -0.18449253262E+01 -0.14975534132E+02  0.36892810611E+01  0.15533227828E+02  0.00000000000E+00 0.  1.
<mgrwt>
<rscale>  0 0.15852270E+04</rscale>
<asrwt>0</asrwt>
<pdfrwt beam="1">  1        2 0.27108134E+00 0.15852270E+04</pdfrwt>
<pdfrwt beam="2">  1       -1 0.54852523E-01 0.15852270E+04</pdfrwt>
<totfact> 0.33269601E+01</totfact>
</mgrwt>
</event>
<event>
12    7  0.1857704E-007  0.1643696E+04  0.7818608E-02  0.8794144E-01
          2   -1    0    0  501    0  0.00000000000E+00  0.00000000000E+00  0.32226256284E+04  0.32226256284E+04  0.00000000000E+00 0. -1.
         -1   -1    0    0    0  501 -0.00000000000E+00 -0.00000000000E+00 -0.20959131556E+03  0.20959131556E+03  0.00000000000E+00 0.  1.
         24    2    1    2    0    0  0.15176021106E+03  0.39443910645E+03  0.18629975489E+04  0.19118774101E+04  0.76824434316E+02 0.  0.
        254    2    1    2    0    0 -0.15176021106E+03 -0.39443910645E+03  0.11500367639E+04  0.15203395338E+04  0.90013019579E+03 0.  0.
         23    2    4    4    0    0 -0.34098711586E+03 -0.34056781315E+03  0.12009083770E+04  0.12972572550E+04  0.91852093563E+02 0.  0.
         23    2    4    4    0    0  0.18922690480E+03 -0.53871293295E+02 -0.50871613163E+02  0.22308227877E+03  0.92026324143E+02 0.  0.
          2    1    3    3  502    0  0.10745695791E+03  0.35213367921E+03  0.15803742806E+04  0.16226915889E+04  0.00000000000E+00 0. -1.
         -1    1    3    3    0  502  0.44303253151E+02  0.42305427234E+02  0.28262326836E+03  0.28918582128E+03  0.00000000000E+00 0.  1.
         13    1    5    5    0    0 -0.33877653447E+03 -0.32183518238E+03  0.11088347032E+04  0.12032713010E+04  0.00000000000E+00 0. -1.
        -13    1    5    5    0    0 -0.22105813892E+01 -0.18732630773E+02  0.92073673869E+02  0.93985953980E+02  0.00000000000E+00 0.  1.
          1    1    6    6  503    0  0.17659587577E+03 -0.16078786704E+02 -0.42985281516E+02  0.18246195534E+03  0.00000000000E+00 0. -1.
         -1    1    6    6    0  503  0.12631029033E+02 -0.37792506591E+02 -0.78863316462E+01  0.40620323431E+02  0.00000000000E+00 0.  1.
<mgrwt>
<rscale>  0 0.16436963E+04</rscale>
<asrwt>0</asrwt>
<pdfrwt beam="1">  1        2 0.49578852E+00 0.16436963E+04</pdfrwt>
<pdfrwt beam="2">  1       -1 0.32244820E-01 0.16436963E+04</pdfrwt>
<totfact> 0.12345136E+01</totfact>
</mgrwt>
</event>
<event>
12    7  0.1857704E-007  0.2009902E+04  0.7818608E-02  0.8602005E-01
          2   -1    0    0  501    0  0.00000000000E+00  0.00000000000E+00  0.11546849826E+04  0.11546849826E+04  0.00000000000E+00 0. -1.
         -1   -1    0    0    0  501 -0.00000000000E+00 -0.00000000000E+00 -0.87463362319E+03  0.87463362319E+03  0.00000000000E+00 0.  1.
         24    2    1    2    0    0  0.42978678443E+03  0.42685843546E+03 -0.40407300177E+03  0.73243136495E+03  0.79094308260E+02 0.  0.
        254    2    1    2    0    0 -0.42978678443E+03 -0.42685843546E+03  0.68412436120E+03  0.12968872409E+04  0.92030732364E+03 0.  0.
         23    2    4    4    0    0 -0.21581900001E+03 -0.60722836820E+03  0.75186608198E+03  0.99463529441E+03  0.93234284193E+02 0.  0.
         23    2    4    4    0    0 -0.21396778442E+03  0.18036993274E+03 -0.67741720772E+02  0.30225194646E+03  0.91933524890E+02 0.  0.
          4    1    3    3  502    0  0.10995656871E+03  0.15942698144E+03 -0.11737597951E+03  0.22646087957E+03  0.00000000000E+00 0. -1.
         -3    1    3    3    0  502  0.31983021573E+03  0.26743145402E+03 -0.28669702227E+03  0.50597048537E+03  0.00000000000E+00 0.  1.
         13    1    5    5    0    0 -0.91738913275E+02 -0.21642925771E+03  0.34104918471E+03  0.41421274509E+03  0.00000000000E+00 0.  1.
        -13    1    5    5    0    0 -0.12408008673E+03 -0.39079911049E+03  0.41081689727E+03  0.58042254933E+03  0.00000000000E+00 0. -1.
          4    1    6    6  503    0 -0.20068865873E+03  0.18581480765E+03 -0.47744592916E+02  0.27763758146E+03  0.00000000000E+00 0. -1.
         -4    1    6    6    0  503 -0.13279125695E+02 -0.54448749116E+01 -0.19997127857E+02  0.24614365004E+02  0.00000000000E+00 0.  1.
<mgrwt>
<rscale>  0 0.20099018E+04</rscale>
<asrwt>0</asrwt>
<pdfrwt beam="1">  1        2 0.17764384E+00 0.20099018E+04</pdfrwt>
<pdfrwt beam="2">  1       -1 0.13455902E+00 0.20099018E+04</pdfrwt>
<totfact> 0.99186916E+00</totfact>
</mgrwt>
</event>
<event>
12    7  0.1857704E-007  0.3383470E+04  0.7818608E-02  0.8141975E-01
          2   -1    0    0  501    0  0.00000000000E+00  0.00000000000E+00  0.23490204730E+04  0.23490204730E+04  0.00000000000E+00 0. -1.
         -1   -1    0    0    0  501 -0.00000000000E+00 -0.00000000000E+00 -0.12183662134E+04  0.12183662134E+04  0.00000000000E+00 0.  1.
         24    2    1    2    0    0 -0.12457305300E+04  0.69185967402E+03 -0.18287493652E+03  0.14389988941E+04  0.82220513512E+02 0.  0.
        254    2    1    2    0    0  0.12457305300E+04 -0.69185967402E+03  0.13135291961E+04  0.21283877924E+04  0.87986435545E+03 0.  0.
         23    2    4    4    0    0  0.24204190555E+03 -0.18075061219E+03  0.85088662366E+03  0.90774184079E+03  0.93445895326E+02 0.  0.
         23    2    4    4    0    0  0.10036886244E+04 -0.51110906183E+03  0.46264257247E+03  0.12206459516E+04  0.85528132610E+02 0.  0.
          4    1    3    3  502    0 -0.11645507122E+04  0.64721332935E+03 -0.19126028758E+03  0.13459732362E+04  0.00000000000E+00 0. -1.
         -3    1    3    3    0  502 -0.81179817812E+02  0.44646344664E+02  0.83853510598E+01  0.93025657881E+02  0.00000000000E+00 0.  1.
         13    1    5    5    0    0  0.14422225936E+03 -0.68604099716E+02  0.53914731694E+03  0.56230455445E+03  0.00000000000E+00 0. -1.
        -13    1    5    5    0    0  0.97819646191E+02 -0.11214651247E+03  0.31173930672E+03  0.34543728634E+03  0.00000000000E+00 0.  1.
          2    1    6    6  503    0  0.25670888642E+03 -0.13938113056E+03  0.16025114300E+03  0.33317710119E+03  0.00000000000E+00 0. -1.
         -2    1    6    6    0  503  0.74697973801E+03 -0.37172793127E+03  0.30239142947E+03  0.88746885044E+03  0.00000000000E+00 0.  1.
<mgrwt>
<rscale>  0 0.33834699E+04</rscale>
<asrwt>0</asrwt>
<pdfrwt beam="1">  1        2 0.36138776E+00 0.33834699E+04</pdfrwt>
<pdfrwt beam="2">  1       -1 0.18744096E+00 0.33834699E+04</pdfrwt>
<totfact> 0.73836774E-01</totfact>
</mgrwt>
</event>
<event>
12    7  0.1857704E-007  0.1562035E+04  0.7818608E-02  0.8844217E-01
         -1   -1    0    0    0  501 -0.00000000000E+00  0.00000000000E+00  0.35906128004E+03  0.35906128004E+03  0.00000000000E+00 0.  1.
          2   -1    0    0  501    0  0.00000000000E+00 -0.00000000000E+00 -0.16988411345E+04  0.16988411345E+04  0.00000000000E+00 0. -1.
         24    2    1    2    0    0 -0.14652076257E+03  0.30222309583E+03 -0.76800371582E+03  0.84205159800E+03  0.80087781007E+02 0.  0.
        254    2    1    2    0    0  0.14652076257E+03 -0.30222309583E+03 -0.57177613864E+03  0.12158508165E+04  0.10190967186E+04 0.  0.
         23    2    4    4    0    0  0.32673398157E+03 -0.56585483585E+03 -0.14620270062E+03  0.67587012327E+03  0.92078248774E+02 0.  0.
         23    2    4    4    0    0 -0.18021321900E+03  0.26363174002E+03 -0.42557343802E+03  0.53998069327E+03  0.92129795967E+02 0.  0.
          4    1    3    3  502    0 -0.97782595914E+02  0.22988081642E+03 -0.64117370352E+03  0.68812087885E+03  0.00000000000E+00 0. -1.
         -1    1    3    3    0  502 -0.48738166653E+02  0.72342279407E+02 -0.12683001230E+03  0.15393071915E+03  0.00000000000E+00 0.  1.
         13    1    5    5    0    0  0.11425153299E+03 -0.24174867199E+03 -0.19337399522E+02  0.26808537487E+03  0.00000000000E+00 0. -1.
        -13    1    5    5    0    0  0.21248244858E+03 -0.32410616386E+03 -0.12686530110E+03  0.40778474840E+03  0.00000000000E+00 0.  1.
          4    1    6    6  503    0 -0.85357848343E+01  0.63116099429E+02 -0.12250655560E+03  0.13807374042E+03  0.00000000000E+00 0. -1.
         -4    1    6    6    0  503 -0.17167743417E+03  0.20051564059E+03 -0.30306688242E+03  0.40190695285E+03  0.00000000000E+00 0.  1.
<mgrwt>
<rscale>  0 0.15620347E+04</rscale>
<asrwt>0</asrwt>
<pdfrwt beam="1">  1        2 0.26136017E+00 0.15620347E+04</pdfrwt>
<pdfrwt beam="2">  1       -1 0.55240198E-01 0.15620347E+04</pdfrwt>
<totfact> 0.35646581E+01</totfact>
</mgrwt>
</event>
<event>
12    7  0.1857704E-007  0.1957460E+04  0.7818608E-02  0.8626772E-01
          2   -1    0    0  501    0  0.00000000000E+00  0.00000000000E+00  0.24566595312E+04  0.24566595312E+04  0.00000000000E+00 0. -1.
         -1   -1    0    0    0  501 -0.00000000000E+00 -0.00000000000E+00 -0.38992458508E+03  0.38992458508E+03  0.00000000000E+00 0.  1.
         24    2    1    2    0    0 -0.29603173204E+03  0.11837243692E+03 -0.20264605189E+03  0.38464793244E+03  0.72400202941E+02 0.  0.
        254    2    1    2    0    0  0.29603173204E+03 -0.11837243692E+03  0.22693809980E+04  0.24619361839E+04  0.89966262508E+03 0.  0.
         23    2    4    4    0    0  0.41778113318E+03  0.23962675781E+03  0.76705936769E+03  0.91008298679E+03  0.88932058132E+02 0.  0.
         23    2    4    4    0    0 -0.12174940115E+03 -0.35799919473E+03  0.15023216303E+04  0.15518531971E+04  0.91058904992E+02 0.  0.
          4    1    3    3  502    0 -0.98297728024E+02  0.76946626048E+02 -0.73306807010E+02  0.14476572298E+03  0.00000000000E+00 0. -1.
         -3    1    3    3    0  502 -0.19773400401E+03  0.41425810873E+02 -0.12933924488E+03  0.23988220946E+03  0.00000000000E+00 0.  1.
         13    1    5    5    0    0  0.26862252838E+03  0.18878531362E+03  0.56958743139E+03  0.65744033903E+03  0.00000000000E+00 0. -1.
        -13    1    5    5    0    0  0.14915860481E+03  0.50841444195E+02  0.19747193631E+03  0.25264264776E+03  0.00000000000E+00 0.  1.
          3    1    6    6  503    0 -0.82190745662E+02 -0.12129960865E+03  0.48756848433E+03  0.50910896736E+03  0.00000000000E+00 0. -1.
         -3    1    6    6    0  503 -0.39558655484E+02 -0.23669958608E+03  0.10147531460E+04  0.10427442297E+04  0.00000000000E+00 0.  1.
<mgrwt>
<rscale>  0 0.19574595E+04</rscale>
<asrwt>0</asrwt>
<pdfrwt beam="1">  1        2 0.37794761E+00 0.19574595E+04</pdfrwt>
<pdfrwt beam="2">  1       -1 0.59988399E-01 0.19574595E+04</pdfrwt>
<totfact> 0.11034382E+01</totfact>
</mgrwt>
</event>
<event>
12    7  0.1857704E-007  0.2233085E+04  0.7818608E-02  0.8504782E-01
          2   -1    0    0  501    0  0.00000000000E+00  0.00000000000E+00  0.18836528019E+04  0.18836528019E+04  0.00000000000E+00 0. -1.
         -1   -1    0    0    0  501 -0.00000000000E+00 -0.00000000000E+00 -0.66183472050E+03  0.66183472050E+03  0.00000000000E+00 0.  1.
         24    2    1    2    0    0 -0.88136515828E+03  0.13679954565E+03  0.81834309797E+03  0.12131646611E+04  0.81021052796E+02 0.  0.
        254    2    1    2    0    0  0.88136515828E+03 -0.13679954565E+03  0.40347498346E+03  0.13323228613E+04  0.90375521390E+03 0.  0.
         23    2    4    4    0    0 -0.54012302734E+02 -0.27583787578E+03 -0.96529064095E+01  0.29568597278E+03  0.91286107027E+02 0.  0.
         23    2    4    4    0    0  0.93537746102E+03  0.13903833013E+03  0.41312788987E+03  0.10366368886E+04  0.98380554508E+02 0.  0.
          2    1    3    3  502    0 -0.32462811791E+03  0.73882415347E+02  0.34832658086E+03  0.48184378503E+03  0.00000000000E+00 0. -1.
         -1    1    3    3    0  502 -0.55673704038E+03  0.62917130308E+02  0.47001651711E+03  0.73132087607E+03  0.00000000000E+00 0.  1.
         13    1    5    5    0    0 -0.68297893530E+02 -0.11364124020E+03 -0.84930749881E+01  0.13285731465E+03  0.00000000000E+00 0.  1.
        -13    1    5    5    0    0  0.14285590796E+02 -0.16219663559E+03 -0.11598314215E+01  0.16282865813E+03  0.00000000000E+00 0. -1.
          4    1    6    6  503    0  0.34810925887E+03  0.99987497226E+02  0.15954286655E+03  0.39576695413E+03  0.00000000000E+00 0. -1.
         -4    1    6    6    0  503  0.58726820214E+03  0.39050832902E+02  0.25358502331E+03  0.64086993442E+03  0.00000000000E+00 0.  1.
<mgrwt>
<rscale>  0 0.22330847E+04</rscale>
<asrwt>0</asrwt>
<pdfrwt beam="1">  1        2 0.28979274E+00 0.22330847E+04</pdfrwt>
<pdfrwt beam="2">  1       -1 0.10182073E+00 0.22330847E+04</pdfrwt>
<totfact> 0.73565460E+00</totfact>
</mgrwt>
</event>
<event>
12    7  0.1857704E-007  0.1623595E+04  0.7818608E-02  0.8806183E-01
          2   -1    0    0  501    0  0.00000000000E+00  0.00000000000E+00  0.83381848165E+03  0.83381848165E+03  0.00000000000E+00 0. -1.
         -1   -1    0    0    0  501 -0.00000000000E+00 -0.00000000000E+00 -0.79035783481E+03  0.79035783481E+03  0.00000000000E+00 0.  1.
         24    2    1    2    0    0 -0.49740007549E+03  0.25844103185E+03  0.50437979789E+02  0.56836343863E+03  0.79337295930E+02 0.  0.
        254    2    1    2    0    0  0.49740007549E+03 -0.25844103185E+03 -0.69773329482E+01  0.10558128778E+04  0.89470305005E+03 0.  0.
         23    2    4    4    0    0 -0.14648516660E+03 -0.34236359436E+03  0.87657061696E+02  0.39327053676E+03  0.91143951225E+02 0.  0.
         23    2    4    4    0    0  0.64388524209E+03  0.83922562503E+02 -0.94634394644E+02  0.66254234107E+03  0.91517668130E+02 0.  0.
          2    1    3    3  502    0 -0.10984732936E+03  0.48573601471E+02  0.42998424890E+02  0.12757231311E+03  0.00000000000E+00 0. -1.
         -1    1    3    3    0  502 -0.38755274613E+03  0.20986743038E+03  0.74395548991E+01  0.44079112553E+03  0.00000000000E+00 0.  1.
         13    1    5    5    0    0 -0.36987637768E+02 -0.22992617051E+02 -0.31080894219E+01  0.43662409535E+02  0.00000000000E+00 0. -1.
        -13    1    5    5    0    0 -0.10949752883E+03 -0.31937097731E+03  0.90765151118E+02  0.34960812723E+03  0.00000000000E+00 0.  1.
          1    1    6    6  503    0  0.29870664582E+03  0.18175328953E+02 -0.24583546339E+01  0.29926918710E+03  0.00000000000E+00 0. -1.
         -1    1    6    6    0  503  0.34517859627E+03  0.65747233550E+02 -0.92176040011E+02  0.36327315397E+03  0.00000000000E+00 0.  1.
<mgrwt>
<rscale>  0 0.16235947E+04</rscale>
<asrwt>0</asrwt>
<pdfrwt beam="1">  1        2 0.12827977E+00 0.16235947E+04</pdfrwt>
<pdfrwt beam="2">  1       -1 0.12159351E+00 0.16235947E+04</pdfrwt>
<totfact> 0.21340214E+01</totfact>
</mgrwt>
</event>
<event>
12    7  0.1857704E-007  0.2035537E+04  0.7818608E-02  0.8590184E-01
         -1   -1    0    0    0  501 -0.00000000000E+00  0.00000000000E+00  0.12224376410E+04  0.12224376410E+04  0.00000000000E+00 0.  1.
          2   -1    0    0  501    0  0.00000000000E+00 -0.00000000000E+00 -0.84736688091E+03  0.84736688091E+03  0.00000000000E+00 0. -1.
         24    2    1    2    0    0 -0.55925344964E+03  0.31199425543E+03  0.66293422993E+03  0.92526320851E+03  0.80779796036E+02 0.  0.
        254    2    1    2    0    0  0.55925344964E+03 -0.31199425543E+03 -0.28786346988E+03  0.11445413134E+04  0.90388307007E+03 0.  0.
         23    2    4    4    0    0 -0.15463359177E+03  0.11060113554E+03  0.89095274514E+02  0.22879830958E+03  0.90920512751E+02 0.  0.
         23    2    4    4    0    0  0.71388704141E+03 -0.42259539097E+03 -0.37695874439E+03  0.91574300380E+03  0.90916344315E+02 0.  0.
          2    1    3    3  502    0 -0.21738613211E+03  0.12359014756E+03  0.31643225613E+03  0.40331207238E+03  0.00000000000E+00 0. -1.
         -1    1    3    3    0  502 -0.34186731753E+03  0.18840410787E+03  0.34650197380E+03  0.52195113613E+03  0.00000000000E+00 0.  1.
         13    1    5    5    0    0 -0.81618773350E+02  0.26299364433E+02  0.79376723041E+02  0.11685009582E+03  0.00000000000E+00 0.  1.
        -13    1    5    5    0    0 -0.73014818418E+02  0.84301771108E+02  0.97185514735E+01  0.11194821376E+03  0.00000000000E+00 0. -1.
          2    1    6    6  503    0  0.13873229847E+03 -0.97109021372E+02 -0.11578003814E+03  0.20513856269E+03  0.00000000000E+00 0. -1.
         -2    1    6    6    0  503  0.57515474294E+03 -0.32548636960E+03 -0.26117870625E+03  0.71060444111E+03  0.00000000000E+00 0.  1.
<mgrwt>
<rscale>  0 0.20355374E+04</rscale>
<asrwt>0</asrwt>
<pdfrwt beam="1">  1        2 0.13036414E+00 0.20355374E+04</pdfrwt>
<pdfrwt beam="2">  1       -1 0.18806733E+00 0.20355374E+04</pdfrwt>
<totfact> 0.61426237E+00</totfact>
</mgrwt>
</event>
<event>
12    7  0.1857704E-007  0.1107860E+04  0.7818608E-02  0.9197565E-01
          2   -1    0    0  501    0  0.00000000000E+00  0.00000000000E+00  0.92401181085E+03  0.92401181085E+03  0.00000000000E+00 0. -1.
         -1   -1    0    0    0  501 -0.00000000000E+00 -0.00000000000E+00 -0.33207201656E+03  0.33207201656E+03  0.00000000000E+00 0.  1.
         24    2    1    2    0    0 -0.10031182560E+03 -0.10023136910E+03  0.20817274027E+03  0.26408499947E+03  0.79348644898E+02 0.  0.
        254    2    1    2    0    0  0.10031182560E+03  0.10023136910E+03  0.38376705401E+03  0.99199882794E+03  0.90370113045E+03 0.  0.
         23    2    4    4    0    0  0.20258473144E+01 -0.38633280432E+03  0.25430608953E+03  0.47141457722E+03  0.91120671050E+02 0.  0.
         23    2    4    4    0    0  0.98285978281E+02  0.48656417342E+03  0.12946096448E+03  0.52058425072E+03  0.88560670637E+02 0.  0.
          4    1    3    3  502    0 -0.71895634539E+02 -0.50531484720E+02  0.63274904144E+02  0.10828724167E+03  0.00000000000E+00 0. -1.
         -3    1    3    3    0  502 -0.28416191056E+02 -0.49699884382E+02  0.14489783613E+03  0.15579775780E+03  0.00000000000E+00 0.  1.
         13    1    5    5    0    0  0.70464765261E+01 -0.38389555018E+03  0.23241461025E+03  0.44882290197E+03  0.00000000000E+00 0. -1.
        -13    1    5    5    0    0 -0.50206292117E+01 -0.24372541445E+01  0.21891479283E+02  0.22591675251E+02  0.00000000000E+00 0.  1.
          2    1    6    6  503    0  0.31119569905E+02  0.26868759371E+03  0.10918593397E+03  0.29168993610E+03  0.00000000000E+00 0. -1.
         -2    1    6    6    0  503  0.67166408376E+02  0.21787657971E+03  0.20275030512E+02  0.22889431462E+03  0.00000000000E+00 0.  1.
<mgrwt>
<rscale>  0 0.11078600E+04</rscale>
<asrwt>0</asrwt>
<pdfrwt beam="1">  1        2 0.14215566E+00 0.11078600E+04</pdfrwt>
<pdfrwt beam="2">  1       -1 0.51088003E-01 0.11078600E+04</pdfrwt>
<totfact> 0.12317373E+02</totfact>
</mgrwt>
</event>
<event>
12    7  0.1857704E-007  0.1317052E+04  0.7818608E-02  0.9016151E-01
         -1   -1    0    0    0  501 -0.00000000000E+00  0.00000000000E+00  0.56609970936E+03  0.56609970936E+03  0.00000000000E+00 0.  1.
          2   -1    0    0  501    0  0.00000000000E+00 -0.00000000000E+00 -0.76604245362E+03  0.76604245362E+03  0.00000000000E+00 0. -1.
         24    2    1    2    0    0 -0.47745186839E+02  0.21738944637E+03  0.21034386577E+03  0.31771268445E+03  0.84611073350E+02 0.  0.
        254    2    1    2    0    0  0.47745186839E+02 -0.21738944637E+03 -0.41028661003E+03  0.10144294785E+04  0.90066325021E+03 0.  0.
         23    2    4    4    0    0  0.51334625761E+00 -0.51812285046E+03 -0.45496339537E+03  0.69454440802E+03  0.83358814139E+02 0.  0.
         23    2    4    4    0    0  0.47231840581E+02  0.30073340409E+03  0.44676785339E+02  0.31988507051E+03  0.87515804778E+02 0.  0.
          4    1    3    3  502    0  0.33651261984E+01  0.34118430350E+02  0.80130604672E+02  0.87156784985E+02  0.00000000000E+00 0. -1.
         -3    1    3    3    0  502 -0.51110313037E+02  0.18327101602E+03  0.13021326110E+03  0.23055589946E+03  0.00000000000E+00 0.  1.
         13    1    5    5    0    0 -0.20356292239E+02 -0.32470812884E+02 -0.40237479992E+02  0.55567860488E+02  0.00000000000E+00 0.  1.
        -13    1    5    5    0    0  0.20869638496E+02 -0.48565203758E+03 -0.41472591538E+03  0.63897654754E+03  0.00000000000E+00 0. -1.
          3    1    6    6  503    0  0.52169694397E+02  0.28948286695E+03  0.23095613779E+02  0.29505154575E+03  0.00000000000E+00 0. -1.
         -3    1    6    6    0  503 -0.49378538164E+01  0.11250537140E+02  0.21581171560E+02  0.24833524763E+02  0.00000000000E+00 0.  1.
<mgrwt>
<rscale>  0 0.13170519E+04</rscale>
<asrwt>0</asrwt>
<pdfrwt beam="1">  1        2 0.11785268E+00 0.13170519E+04</pdfrwt>
<pdfrwt beam="2">  1       -1 0.87092263E-01 0.13170519E+04</pdfrwt>
<totfact> 0.52973474E+01</totfact>
</mgrwt>
</event>
<event>
12    7  0.1857704E-007  0.2913291E+04  0.7818608E-02  0.8268934E-01
         -1   -1    0    0    0  501 -0.00000000000E+00  0.00000000000E+00  0.15410933712E+04  0.15410933712E+04  0.00000000000E+00 0.  1.
          2   -1    0    0  501    0  0.00000000000E+00 -0.00000000000E+00 -0.13768249313E+04  0.13768249313E+04  0.00000000000E+00 0. -1.
         24    2    1    2    0    0 -0.90445651203E+03 -0.71284548299E+03  0.71455397998E+03  0.13576275481E+04  0.79842997022E+02 0.  0.
        254    2    1    2    0    0  0.90445651203E+03  0.71284548299E+03 -0.55028554014E+03  0.15602907545E+04  0.89749807686E+03 0.  0.
         23    2    4    4    0    0 -0.64850568883E+02  0.43231589702E+03 -0.15704620221E+03  0.47340046366E+03  0.91333773928E+02 0.  0.
         23    2    4    4    0    0  0.96930708091E+03  0.28052958597E+03 -0.39323933793E+03  0.10868902908E+04  0.91870896486E+02 0.  0.
          2    1    3    3  502    0 -0.15521806269E+03 -0.11527497595E+03  0.15559981741E+03  0.24817790039E+03  0.00000000000E+00 0. -1.
         -1    1    3    3    0  502 -0.74923844934E+03 -0.59757050704E+03  0.55895416257E+03  0.11094496477E+04  0.00000000000E+00 0.  1.
         13    1    5    5    0    0 -0.87772524520E+02  0.31392269385E+03 -0.11188908861E+03  0.34463116796E+03  0.00000000000E+00 0.  1.
        -13    1    5    5    0    0  0.22921955637E+02  0.11839320317E+03 -0.45157113594E+02  0.12876929570E+03  0.00000000000E+00 0. -1.
          1    1    6    6  503    0  0.15232717790E+03  0.36401441590E+02 -0.27166265232E+02  0.15895483649E+03  0.00000000000E+00 0. -1.
         -1    1    6    6    0  503  0.81697990301E+03  0.24412814438E+03 -0.36607307270E+03  0.92793545430E+03  0.00000000000E+00 0.  1.
<mgrwt>
<rscale>  0 0.29132908E+04</rscale>
<asrwt>0</asrwt>
<pdfrwt beam="1">  1        2 0.21181922E+00 0.29132908E+04</pdfrwt>
<pdfrwt beam="2">  1       -1 0.23709129E+00 0.29132908E+04</pdfrwt>
<totfact> 0.12413700E+00</totfact>
</mgrwt>
</event>
<event>
12    7  0.1857704E-007  0.1531000E+04  0.7818608E-02  0.8864096E-01
         -1   -1    0    0    0  501 -0.00000000000E+00  0.00000000000E+00  0.20976834889E+03  0.20976834889E+03  0.00000000000E+00 0.  1.
          2   -1    0    0  501    0  0.00000000000E+00 -0.00000000000E+00 -0.27935130065E+04  0.27935130065E+04  0.00000000000E+00 0. -1.
         24    2    1    2    0    0  0.75743615350E+02 -0.29863580683E+03 -0.84802065367E+02  0.32941421619E+03  0.80011843793E+02 0.  0.
        254    2    1    2    0    0 -0.75743615350E+02  0.29863580683E+03 -0.24989425923E+04  0.26738671392E+04  0.89996164275E+03 0.  0.
         23    2    4    4    0    0  0.14861005902E+02 -0.29875282268E+03 -0.11739841194E+04  0.12148407242E+04  0.90139747133E+02 0.  0.
         23    2    4    4    0    0 -0.90604621252E+02  0.59738862951E+03 -0.13249584729E+04  0.14590264151E+04  0.90336885529E+02 0.  0.
          4    1    3    3  502    0 -0.94378801670E+01 -0.11819609762E+03 -0.37325014749E+02  0.12430827728E+03  0.00000000000E+00 0. -1.
         -3    1    3    3    0  502  0.85181495517E+02 -0.18043970921E+03 -0.47477050618E+02  0.20510593891E+03  0.00000000000E+00 0.  1.
         13    1    5    5    0    0  0.75323415820E+01 -0.19097381320E+02 -0.21238669148E+03  0.21337655181E+03  0.00000000000E+00 0. -1.
        -13    1    5    5    0    0  0.73286643205E+01 -0.27965544136E+03 -0.96159742788E+03  0.10014641724E+04  0.00000000000E+00 0.  1.
          3    1    6    6  503    0  0.18001170257E+02  0.10938478214E+03 -0.25258039515E+03  0.27583677911E+03  0.00000000000E+00 0. -1.
         -3    1    6    6    0  503 -0.10860579151E+03  0.48800384737E+03 -0.10723780778E+04  0.11831896360E+04  0.00000000000E+00 0.  1.
<mgrwt>
<rscale>  0 0.15310005E+04</rscale>
<asrwt>0</asrwt>
<pdfrwt beam="1">  1        2 0.42977121E+00 0.15310005E+04</pdfrwt>
<pdfrwt beam="2">  1       -1 0.32272055E-01 0.15310005E+04</pdfrwt>
<totfact> 0.23085294E+01</totfact>
</mgrwt>
</event>
<event>
12    7  0.1857704E-007  0.2143388E+04  0.7818608E-02  0.8542368E-01
         -1   -1    0    0    0  501 -0.00000000000E+00  0.00000000000E+00  0.53394634302E+03  0.53394634302E+03  0.00000000000E+00 0.  1.
          2   -1    0    0  501    0  0.00000000000E+00 -0.00000000000E+00 -0.21510173522E+04  0.21510173522E+04  0.00000000000E+00 0. -1.
         24    2    1    2    0    0  0.46112882580E+03  0.65873215531E+03 -0.21755158765E+03  0.83669478865E+03  0.78496048617E+02 0.  0.
        254    2    1    2    0    0 -0.46112882580E+03 -0.65873215531E+03 -0.13995194215E+04  0.18482689066E+04  0.90048625383E+03 0.  0.
         23    2    4    4    0    0  0.22296342206E+03 -0.19900702265E+03 -0.68480537133E+03  0.75339089601E+03  0.96555491571E+02 0.  0.
         23    2    4    4    0    0 -0.68409224786E+03 -0.45972513266E+03 -0.71471405021E+03  0.10948780106E+04  0.92802388348E+02 0.  0.
          2    1    3    3  502    0  0.36420284149E+03  0.55514477613E+03 -0.15585735186E+03  0.68199776125E+03  0.00000000000E+00 0. -1.
         -1    1    3    3    0  502  0.96925984309E+02  0.10358737918E+03 -0.61694235783E+02  0.15469702741E+03  0.00000000000E+00 0.  1.
         13    1    5    5    0    0  0.93062131300E+02 -0.14050977785E+03 -0.31818010943E+03  0.36005852301E+03  0.00000000000E+00 0.  1.
        -13    1    5    5    0    0  0.12990129076E+03 -0.58497244798E+02 -0.36662526190E+03  0.39333237301E+03  0.00000000000E+00 0. -1.
          4    1    6    6  503    0 -0.65777289391E+03 -0.45039745267E+03 -0.66626059737E+03  0.10389543921E+04  0.00000000000E+00 0. -1.
         -4    1    6    6    0  503 -0.26319353947E+02 -0.93276799840E+01 -0.48453452840E+02  0.55923618429E+02  0.00000000000E+00 0.  1.
<mgrwt>
<rscale>  0 0.21433878E+04</rscale>
<asrwt>0</asrwt>
<pdfrwt beam="1">  1        2 0.33092575E+00 0.21433878E+04</pdfrwt>
<pdfrwt beam="2">  1       -1 0.82145591E-01 0.21433878E+04</pdfrwt>
<totfact> 0.84753254E+00</totfact>
</mgrwt>
</event>
<event>
12    7  0.1857704E-007  0.1646344E+04  0.7818608E-02  0.8792572E-01
         -1   -1    0    0    0  501 -0.00000000000E+00  0.00000000000E+00  0.37027355178E+03  0.37027355178E+03  0.00000000000E+00 0.  1.
          2   -1    0    0  501    0  0.00000000000E+00 -0.00000000000E+00 -0.18300321528E+04  0.18300321528E+04  0.00000000000E+00 0. -1.
         24    2    1    2    0    0 -0.29876216576E+03 -0.38569735365E+03 -0.10219337931E+03  0.50477062841E+03  0.79552625547E+02 0.  0.
        254    2    1    2    0    0  0.29876216576E+03  0.38569735365E+03 -0.13575652217E+04  0.16955350762E+04  0.89097395191E+03 0.  0.
         23    2    4    4    0    0 -0.97901742063E+02  0.18881891687E+03  0.32622319131E+02  0.23362158631E+03  0.90980742006E+02 0.  0.
         23    2    4    4    0    0  0.39666390782E+03  0.19687843678E+03 -0.13901875408E+04  0.14619134899E+04  0.92012382102E+02 0.  0.
          2    1    3    3  502    0 -0.20333797134E+03 -0.20987563001E+03 -0.83129080172E+02  0.30381664640E+03  0.00000000000E+00 0. -1.
         -1    1    3    3    0  502 -0.95424194422E+02 -0.17582172364E+03 -0.19064299135E+02  0.20095398201E+03  0.00000000000E+00 0.  1.
         13    1    5    5    0    0 -0.29033480707E+02  0.10142719338E+02 -0.17894413362E+02  0.35581284225E+02  0.00000000000E+00 0. -1.
        -13    1    5    5    0    0 -0.68868261356E+02  0.17867619753E+03  0.50516732493E+02  0.19804030208E+03  0.00000000000E+00 0.  1.
          3    1    6    6  503    0  0.60239787310E+02 -0.92616388894E-01 -0.14161072121E+03  0.15389099036E+03  0.00000000000E+00 0. -1.
         -3    1    6    6    0  503  0.33642412051E+03  0.19697105317E+03 -0.12485768196E+04  0.13080224995E+04  0.00000000000E+00 0.  1.
<mgrwt>
<rscale>  0 0.16463444E+04</rscale>
<asrwt>0</asrwt>
<pdfrwt beam="1">  1        2 0.28154341E+00 0.16463444E+04</pdfrwt>
<pdfrwt beam="2">  1       -1 0.56965161E-01 0.16463444E+04</pdfrwt>
<totfact> 0.28198179E+01</totfact>
</mgrwt>
</event>
<event>
12    7  0.1857704E-007  0.1930578E+04  0.7818608E-02  0.8639784E-01
          2   -1    0    0  501    0  0.00000000000E+00  0.00000000000E+00  0.93815905736E+03  0.93815905736E+03  0.00000000000E+00 0. -1.
         -1   -1    0    0    0  501 -0.00000000000E+00 -0.00000000000E+00 -0.99320382127E+03  0.99320382127E+03  0.00000000000E+00 0.  1.
         24    2    1    2    0    0 -0.53565648570E+03  0.23216444367E+03  0.45345422612E+03  0.74685097055E+03  0.10647740352E+03 0.  0.
        254    2    1    2    0    0  0.53565648570E+03 -0.23216444367E+03 -0.50849899003E+03  0.11845119081E+04  0.89647589925E+03 0.  0.
         23    2    4    4    0    0  0.75481561519E+03 -0.14666886094E+03 -0.22515316039E+03  0.80529211281E+03  0.80889267648E+02 0.  0.
         23    2    4    4    0    0 -0.21915912949E+03 -0.85495582724E+02 -0.28334582964E+03  0.37921979527E+03  0.90457588093E+02 0.  0.
          4    1    3    3  502    0 -0.25850405977E+03  0.14408084691E+03  0.28452402685E+03  0.41053326445E+03  0.00000000000E+00 0. -1.
         -3    1    3    3    0  502 -0.27715242593E+03  0.88083596754E+02  0.16893019927E+03  0.33631770611E+03  0.00000000000E+00 0.  1.
         13    1    5    5    0    0  0.11672400251E+03  0.34257107946E+01 -0.48119217136E+02  0.12629998936E+03  0.00000000000E+00 0.  1.
        -13    1    5    5    0    0  0.63809161268E+03 -0.15009457174E+03 -0.17703394326E+03  0.67899212345E+03  0.00000000000E+00 0. -1.
          2    1    6    6  503    0 -0.19451834020E+03 -0.38071695946E+02 -0.21434905227E+03  0.29194580819E+03  0.00000000000E+00 0. -1.
         -2    1    6    6    0  503 -0.24640789287E+02 -0.47423886778E+02 -0.68996777366E+02  0.87273987080E+02  0.00000000000E+00 0.  1.
<mgrwt>
<rscale>  0 0.19305783E+04</rscale>
<asrwt>0</asrwt>
<pdfrwt beam="1">  1        2 0.14433216E+00 0.19305783E+04</pdfrwt>
<pdfrwt beam="2">  1       -1 0.15280059E+00 0.19305783E+04</pdfrwt>
<totfact> 0.97786301E+00</totfact>
</mgrwt>
</event>
<event>
12    7  0.1857704E-007  0.1824512E+04  0.7818608E-02  0.8693372E-01
          2   -1    0    0  501    0  0.00000000000E+00  0.00000000000E+00  0.13248975759E+04  0.13248975759E+04  0.00000000000E+00 0. -1.
         -1   -1    0    0    0  501 -0.00000000000E+00 -0.00000000000E+00 -0.62813254461E+03  0.62813254461E+03  0.00000000000E+00 0.  1.
         24    2    1    2    0    0  0.26607457099E+03 -0.39204827999E+01  0.94991618507E+03  0.98879751273E+03  0.67592270283E+02 0.  0.
        254    2    1    2    0    0 -0.26607457099E+03  0.39204827999E+01 -0.25315115375E+03  0.96423260781E+03  0.89154246551E+03 0.  0.
         23    2    4    4    0    0  0.30029190195E+03 -0.10355416197E+03 -0.17709105353E+03  0.37535650129E+03  0.92911629951E+02 0.  0.
         23    2    4    4    0    0 -0.56636647294E+03  0.10747464477E+03 -0.76060100217E+02  0.58887610652E+03  0.93102894912E+02 0.  0.
          2    1    3    3  502    0  0.21992257559E+03 -0.29110306380E+02  0.77979088710E+03  0.81073249398E+03  0.00000000000E+00 0. -1.
         -1    1    3    3    0  502  0.46151995399E+02  0.25189823580E+02  0.17012529797E+03  0.17806501875E+03  0.00000000000E+00 0.  1.
         13    1    5    5    0    0  0.26368605287E+03 -0.12127837874E+03 -0.15733600091E+03  0.33014147999E+03  0.00000000000E+00 0. -1.
        -13    1    5    5    0    0  0.36605849078E+02  0.17724216768E+02 -0.19755052620E+02  0.45215021296E+02  0.00000000000E+00 0.  1.
          4    1    6    6  503    0 -0.50351120778E+03  0.11744295869E+03 -0.87020059945E+02  0.52429846055E+03  0.00000000000E+00 0. -1.
         -4    1    6    6    0  503 -0.62855265166E+02 -0.99683139205E+01  0.10959959728E+02  0.64577645968E+02  0.00000000000E+00 0.  1.
<mgrwt>
<rscale>  0 0.18245123E+04</rscale>
<asrwt>0</asrwt>
<pdfrwt beam="1">  1        2 0.20383040E+00 0.18245123E+04</pdfrwt>
<pdfrwt beam="2">  1       -1 0.96635777E-01 0.18245123E+04</pdfrwt>
<totfact> 0.17693876E+01</totfact>
</mgrwt>
</event>
<event>
12    7  0.1857704E-007  0.1845277E+04  0.7818608E-02  0.8682586E-01
          2   -1    0    0  501    0  0.00000000000E+00  0.00000000000E+00  0.15468860127E+04  0.15468860127E+04  0.00000000000E+00 0. -1.
         -1   -1    0    0    0  501 -0.00000000000E+00 -0.00000000000E+00 -0.55030648730E+03  0.55030648730E+03  0.00000000000E+00 0.  1.
         24    2    1    2    0    0 -0.35611993815E+03  0.59799194988E+03  0.31348823255E+03  0.76988650289E+03  0.10017271540E+03 0.  0.
        254    2    1    2    0    0  0.35611993815E+03 -0.59799194988E+03  0.68309129285E+03  0.13273059971E+04  0.90039530937E+03 0.  0.
         23    2    4    4    0    0  0.38739793369E+03 -0.55159211467E+03  0.46606214022E+02  0.68183496074E+03  0.91628349895E+02 0.  0.
         23    2    4    4    0    0 -0.31277995542E+02 -0.46399835208E+02  0.63648507883E+03  0.64547103637E+03  0.91587911401E+02 0.  0.
          4    1    3    3  502    0 -0.28923834021E+03  0.41089386668E+03  0.19815532232E+03  0.54014638653E+03  0.00000000000E+00 0. -1.
         -3    1    3    3    0  502 -0.66881597946E+02  0.18709808320E+03  0.11533291023E+03  0.22974011635E+03  0.00000000000E+00 0.  1.
         13    1    5    5    0    0  0.26366260347E+03 -0.39888410068E+03  0.72417122922E+02  0.48360183409E+03  0.00000000000E+00 0. -1.
        -13    1    5    5    0    0  0.12373533023E+03 -0.15270801399E+03 -0.25810908900E+02  0.19823312665E+03  0.00000000000E+00 0.  1.
          2    1    6    6  503    0  0.44450500565E+01 -0.97033143761E+01  0.49308296251E+03  0.49319845974E+03  0.00000000000E+00 0. -1.
         -2    1    6    6    0  503 -0.35723045599E+02 -0.36696520832E+02  0.14340211632E+03  0.15227257663E+03  0.00000000000E+00 0.  1.
<mgrwt>
<rscale>  0 0.18452766E+04</rscale>
<asrwt>0</asrwt>
<pdfrwt beam="1">  1        2 0.23798246E+00 0.18452766E+04</pdfrwt>
<pdfrwt beam="2">  1       -1 0.84662537E-01 0.18452766E+04</pdfrwt>
<totfact> 0.17677468E+01</totfact>
</mgrwt>
</event>
<event>
12    7  0.1857704E-007  0.1773451E+04  0.7818608E-02  0.8720547E-01
          2   -1    0    0  501    0  0.00000000000E+00  0.00000000000E+00  0.21630407018E+04  0.21630407018E+04  0.00000000000E+00 0. -1.
         -1   -1    0    0    0  501 -0.00000000000E+00 -0.00000000000E+00 -0.36350778524E+03  0.36350778524E+03  0.00000000000E+00 0.  1.
         24    2    1    2    0    0  0.60508738320E+03 -0.21803202502E+03  0.51024031219E+03  0.82478946016E+03  0.79143996442E+02 0.  0.
        254    2    1    2    0    0 -0.60508738320E+03  0.21803202502E+03  0.12892926044E+04  0.17017590269E+04  0.90556041250E+03 0.  0.
         23    2    4    4    0    0 -0.68502105783E+03  0.25591651622E+03  0.47195683290E+03  0.87476105980E+03  0.87843876692E+02 0.  0.
         23    2    4    4    0    0  0.79933674631E+02 -0.37884491208E+02  0.81733577151E+03  0.82699796713E+03  0.89795585799E+02 0.  0.
          2    1    3    3  502    0  0.28736831516E+02 -0.13426666101E+02  0.50650960310E+02  0.59762869982E+02  0.00000000000E+00 0. -1.
         -3    1    3    3    0  502  0.57635055168E+03 -0.20460535892E+03  0.45958935188E+03  0.76502659018E+03  0.00000000000E+00 0.  1.
         13    1    5    5    0    0 -0.67756964805E+03  0.25391746294E+03  0.45148886672E+03  0.85288739158E+03  0.00000000000E+00 0.  1.
        -13    1    5    5    0    0 -0.74514097791E+01  0.19990532856E+01  0.20467966182E+02  0.21873668219E+02  0.00000000000E+00 0. -1.
          4    1    6    6  503    0  0.95409009932E+02 -0.43147847991E+02  0.76596599974E+03  0.77309024617E+03  0.00000000000E+00 0.  1.
         -4    1    6    6    0  503 -0.15475335301E+02  0.52633567834E+01  0.51369771766E+02  0.53907720955E+02  0.00000000000E+00 0. -1.
<mgrwt>
<rscale>  0 0.17734510E+04</rscale>
<asrwt>0</asrwt>
<pdfrwt beam="1">  1        2 0.33277549E+00 0.17734510E+04</pdfrwt>
<pdfrwt beam="2">  1       -1 0.55924276E-01 0.17734510E+04</pdfrwt>
<totfact> 0.18880925E+01</totfact>
</mgrwt>
</event>
<event>
12    7  0.1857704E-007  0.3502077E+04  0.7818608E-02  0.8113298E-01
         -1   -1    0    0    0  501 -0.00000000000E+00  0.00000000000E+00  0.11608741143E+04  0.11608741143E+04  0.00000000000E+00 0.  1.
          2   -1    0    0  501    0  0.00000000000E+00 -0.00000000000E+00 -0.26412297734E+04  0.26412297734E+04  0.00000000000E+00 0. -1.
         24    2    1    2    0    0  0.12834293295E+04 -0.29854348196E+03 -0.17329109958E+04  0.21787833812E+04  0.88303160246E+02 0.  0.
        254    2    1    2    0    0 -0.12834293295E+04  0.29854348196E+03  0.25255533669E+03  0.16233205065E+04  0.91381957416E+03 0.  0.
         23    2    4    4    0    0 -0.37756168594E+03 -0.85068218870E+02  0.46609134512E+03  0.61230522880E+03  0.88809473977E+02 0.  0.
         23    2    4    4    0    0 -0.90586764360E+03  0.38361170083E+03 -0.21353600843E+03  0.10110152777E+04  0.93809061755E+02 0.  0.
          4    1    3    3  502    0  0.92944437980E+03 -0.21614354086E+03 -0.11880542705E+04  0.15238299889E+04  0.00000000000E+00 0. -1.
         -3    1    3    3    0  502  0.35398494974E+03 -0.82399941098E+02 -0.54485672532E+03  0.65495339229E+03  0.00000000000E+00 0.  1.
         13    1    5    5    0    0 -0.35880060606E+03 -0.63385081545E+02  0.45135760534E+03  0.58006829889E+03  0.00000000000E+00 0. -1.
        -13    1    5    5    0    0 -0.18761079881E+02 -0.21683137325E+02  0.14733739781E+02  0.32236929917E+02  0.00000000000E+00 0.  1.
          4    1    6    6  503    0 -0.77492834407E+03  0.29178873458E+03 -0.17075691149E+03  0.84546586382E+03  0.00000000000E+00 0. -1.
         -4    1    6    6    0  503 -0.13093929953E+03  0.91822966252E+02 -0.42779096939E+02  0.16554941386E+03  0.00000000000E+00 0.  1.
<mgrwt>
<rscale>  0 0.35020767E+04</rscale>
<asrwt>0</asrwt>
<pdfrwt beam="1">  1        2 0.40634305E+00 0.35020767E+04</pdfrwt>
<pdfrwt beam="2">  1       -1 0.17859602E+00 0.35020767E+04</pdfrwt>
<totfact> 0.57203027E-01</totfact>
</mgrwt>
</event>
<event>
12    7  0.1857704E-007  0.2753944E+04  0.7818608E-02  0.8317711E-01
          2   -1    0    0  501    0  0.00000000000E+00  0.00000000000E+00  0.28688041480E+04  0.28688041480E+04  0.00000000000E+00 0. -1.
         -1   -1    0    0    0  501 -0.00000000000E+00 -0.00000000000E+00 -0.66092074599E+03  0.66092074599E+03  0.00000000000E+00 0.  1.
         24    2    1    2    0    0 -0.37442391938E+03  0.81139722698E+03 -0.92756200428E+02  0.90218354439E+03  0.82296437907E+02 0.  0.
        254    2    1    2    0    0  0.37442391938E+03 -0.81139722698E+03  0.23006396024E+04  0.26275413496E+04  0.90137241591E+03 0.  0.
         23    2    4    4    0    0  0.40888760665E+03 -0.75487784125E+03  0.23458951571E+04  0.24997692170E+04  0.92695309333E+02 0.  0.
         23    2    4    4    0    0 -0.34463687269E+02 -0.56519385731E+02 -0.45255554683E+02  0.12777213252E+03  0.99475956466E+02 0.  0.
          4    1    3    3  502    0 -0.53670907471E+02  0.14112465447E+03 -0.45156982154E+02  0.15759405904E+03  0.00000000000E+00 0. -1.
         -3    1    3    3    0  502 -0.32075301191E+03  0.67027257251E+03 -0.47599218274E+02  0.74458948535E+03  0.00000000000E+00 0.  1.
         13    1    5    5    0    0  0.31096036144E+02 -0.65296925921E+02  0.13394396138E+03  0.15222232684E+03  0.00000000000E+00 0.  1.
        -13    1    5    5    0    0  0.37779157051E+03 -0.68958091533E+03  0.22119511957E+04  0.23475468902E+04  0.00000000000E+00 0. -1.
          3    1    6    6  503    0 -0.87902948164E+01 -0.59123137657E+02  0.15511505263E+02  0.61752906692E+02  0.00000000000E+00 0. -1.
         -3    1    6    6    0  503 -0.25673392453E+02  0.26037519267E+01 -0.60767059946E+02  0.66019225825E+02  0.00000000000E+00 0.  1.
<mgrwt>
<rscale>  0 0.27539442E+04</rscale>
<asrwt>0</asrwt>
<pdfrwt beam="1">  1        2 0.44135448E+00 0.27539442E+04</pdfrwt>
<pdfrwt beam="2">  1       -1 0.10168012E+00 0.27539442E+04</pdfrwt>
<totfact> 0.19114914E+00</totfact>
</mgrwt>
</event>
<event>
12    7  0.1857704E-007  0.2002973E+04  0.7818608E-02  0.8605232E-01
          2   -1    0    0  501    0  0.00000000000E+00  0.00000000000E+00  0.66242937129E+03  0.66242937129E+03  0.00000000000E+00 0. -1.
         -1   -1    0    0    0  501 -0.00000000000E+00 -0.00000000000E+00 -0.15140864147E+04  0.15140864147E+04  0.00000000000E+00 0.  1.
         24    2    1    2    0    0 -0.68301533376E+03  0.27225781802E+03 -0.69075528517E+03  0.10119576179E+04  0.79253332867E+02 0.  0.
        254    2    1    2    0    0  0.68301533376E+03 -0.27225781802E+03 -0.16090175828E+03  0.11645581682E+04  0.88863495631E+03 0.  0.
         23    2    4    4    0    0 -0.15490503294E+03  0.12492584626E+03 -0.67507039949E+02  0.22796657547E+03  0.88371504421E+02 0.  0.
         23    2    4    4    0    0  0.83792036671E+03 -0.39718366428E+03 -0.93394718331E+02  0.93659159268E+03  0.92821516660E+02 0.  0.
          2    1    3    3  502    0 -0.36766295922E+03  0.15463805414E+03 -0.42735019359E+03  0.58456579385E+03  0.00000000000E+00 0. -1.
         -1    1    3    3    0  502 -0.31535237454E+03  0.11761976387E+03 -0.26340509158E+03  0.42739182403E+03  0.00000000000E+00 0.  1.
         13    1    5    5    0    0 -0.60213113241E+02  0.64460908860E+01  0.31630621287E+01  0.60639723416E+02  0.00000000000E+00 0. -1.
        -13    1    5    5    0    0 -0.94691919703E+02  0.11847975538E+03 -0.70670102078E+02  0.16732685206E+03  0.00000000000E+00 0.  1.
          1    1    6    6  503    0  0.32166663487E+03 -0.13756305335E+03 -0.78473229613E+02  0.35854018659E+03  0.00000000000E+00 0. -1.
         -1    1    6    6    0  503  0.51625373184E+03 -0.25962061093E+03 -0.14921488718E+02  0.57805140609E+03  0.00000000000E+00 0.  1.
<mgrwt>
<rscale>  0 0.20029731E+04</rscale>
<asrwt>0</asrwt>
<pdfrwt beam="1">  1        2 0.10191221E+00 0.20029731E+04</pdfrwt>
<pdfrwt beam="2">  1       -1 0.23293637E+00 0.20029731E+04</pdfrwt>
<totfact> 0.42029119E+00</totfact>
</mgrwt>
</event>
<event>
12    7  0.1857704E-007  0.1343165E+04  0.7818608E-02  0.8996019E-01
          2   -1    0    0  501    0  0.00000000000E+00  0.00000000000E+00  0.67510468499E+03  0.67510468499E+03  0.00000000000E+00 0. -1.
         -1   -1    0    0    0  501 -0.00000000000E+00 -0.00000000000E+00 -0.66807836605E+03  0.66807836605E+03  0.00000000000E+00 0.  1.
         24    2    1    2    0    0  0.17073680454E+03  0.16441256403E+03 -0.27426140920E+03  0.37101432813E+03  0.79055445512E+02 0.  0.
        254    2    1    2    0    0 -0.17073680454E+03 -0.16441256403E+03  0.28128772813E+03  0.97216872291E+03  0.89989260035E+03 0.  0.
         23    2    4    4    0    0  0.16005131756E+03 -0.25562183711E+03 -0.20043495835E+03  0.37353559315E+03  0.91628155929E+02 0.  0.
         23    2    4    4    0    0 -0.33078812210E+03  0.91209273085E+02  0.48172268648E+03  0.59863312976E+03  0.92547091562E+02 0.  0.
          2    1    3    3  502    0  0.67493610713E+02  0.75767172264E+02 -0.62101977716E+02  0.11896515253E+03  0.00000000000E+00 0. -1.
         -1    1    3    3    0  502  0.10324319383E+03  0.88645391764E+02 -0.21215943148E+03  0.25204917560E+03  0.00000000000E+00 0.  1.
         13    1    5    5    0    0  0.12183521306E+03 -0.23347482034E+03 -0.13875019757E+03  0.29766747925E+03  0.00000000000E+00 0. -1.
        -13    1    5    5    0    0  0.38216104501E+02 -0.22147016771E+02 -0.61684760773E+02  0.75868113900E+02  0.00000000000E+00 0.  1.
          3    1    6    6  503    0 -0.11740495352E+03 -0.12632518347E+02  0.16111688449E+03  0.19975523548E+03  0.00000000000E+00 0. -1.
         -3    1    6    6    0  503 -0.21338316858E+03  0.10384179143E+03  0.32060580199E+03  0.39887789428E+03  0.00000000000E+00 0.  1.
<mgrwt>
<rscale>  0 0.13431647E+04</rscale>
<asrwt>0</asrwt>
<pdfrwt beam="1">  1        2 0.10386226E+00 0.13431647E+04</pdfrwt>
<pdfrwt beam="2">  1       -1 0.10278129E+00 0.13431647E+04</pdfrwt>
<totfact> 0.42857146E+01</totfact>
</mgrwt>
</event>
<event>
12    7  0.1857704E-007  0.1638094E+04  0.7818608E-02  0.8797481E-01
         -1   -1    0    0    0  501 -0.00000000000E+00  0.00000000000E+00  0.43948202615E+03  0.43948202615E+03  0.00000000000E+00 0.  1.
          2   -1    0    0  501    0  0.00000000000E+00 -0.00000000000E+00 -0.15264289598E+04  0.15264289598E+04  0.00000000000E+00 0. -1.
         24    2    1    2    0    0  0.28427398823E+03  0.42947835363E+03 -0.67036336400E+03  0.84911553698E+03  0.79666798093E+02 0.  0.
        254    2    1    2    0    0 -0.28427398823E+03 -0.42947835363E+03 -0.41658356965E+03  0.11167954490E+04  0.89912560177E+03 0.  0.
         23    2    4    4    0    0  0.12208018135E+02 -0.12050681666E+03 -0.61734282579E+03  0.63566812917E+03  0.91054254790E+02 0.  0.
         23    2    4    4    0    0 -0.29648200636E+03 -0.30897153697E+03  0.20075925614E+03  0.48112731982E+03  0.88398123270E+02 0.  0.
          2    1    3    3  502    0  0.22648257812E+03  0.28562171905E+03 -0.43893964633E+03  0.57056300064E+03  0.00000000000E+00 0. -1.
         -1    1    3    3    0  502  0.57791410106E+02  0.14385663458E+03 -0.23142371767E+03  0.27855253633E+03  0.00000000000E+00 0.  1.
         13    1    5    5    0    0 -0.13717263262E+02 -0.97178653841E+02 -0.28346561533E+03  0.29997434749E+03  0.00000000000E+00 0. -1.
        -13    1    5    5    0    0  0.25925281398E+02 -0.23328162819E+02 -0.33387721046E+03  0.33569378168E+03  0.00000000000E+00 0.  1.
          4    1    6    6  503    0 -0.42398158442E+02 -0.98285696460E+02  0.54208433258E+02  0.11998431649E+03  0.00000000000E+00 0. -1.
         -4    1    6    6    0  503 -0.25408384792E+03 -0.21068584051E+03  0.14655082288E+03  0.36114300333E+03  0.00000000000E+00 0.  1.
<mgrwt>
<rscale>  0 0.16380941E+04</rscale>
<asrwt>0</asrwt>
<pdfrwt beam="1">  1        2 0.23483522E+00 0.16380941E+04</pdfrwt>
<pdfrwt beam="2">  1       -1 0.67612620E-01 0.16380941E+04</pdfrwt>
<totfact> 0.29600509E+01</totfact>
</mgrwt>
</event>
<event>
12    7  0.1857704E-007  0.2282903E+04  0.7818608E-02  0.8484693E-01
         -1   -1    0    0    0  501 -0.00000000000E+00  0.00000000000E+00  0.11004106018E+04  0.11004106018E+04  0.00000000000E+00 0.  1.
          2   -1    0    0  501    0  0.00000000000E+00 -0.00000000000E+00 -0.11840227930E+04  0.11840227930E+04  0.00000000000E+00 0. -1.
         24    2    1    2    0    0 -0.59594821676E+03 -0.69987443903E+03  0.25231605389E+03  0.95658238092E+03  0.80049690657E+02 0.  0.
        254    2    1    2    0    0  0.59594821676E+03  0.69987443903E+03 -0.33592824512E+03  0.13278510139E+04  0.89741964645E+03 0.  0.
         23    2    4    4    0    0  0.52285425318E+03  0.39791160374E+03  0.20733397306E+03  0.69527772112E+03  0.93346229944E+02 0.  0.
         23    2    4    4    0    0  0.73093963580E+02  0.30196283529E+03 -0.54326221818E+03  0.63257329280E+03  0.92145817327E+02 0.  0.
          2    1    3    3  502    0 -0.20806420909E+03 -0.20091311948E+03  0.54251224146E+02  0.29427876581E+03  0.00000000000E+00 0. -1.
         -1    1    3    3    0  502 -0.38788400766E+03 -0.49896131955E+03  0.19806482975E+03  0.66230361511E+03  0.00000000000E+00 0.  1.
         13    1    5    5    0    0  0.48996657272E+03  0.39679097229E+03  0.20115568156E+03  0.66179598541E+03  0.00000000000E+00 0.  1.
        -13    1    5    5    0    0  0.32887680455E+02  0.11206314506E+01  0.61782914965E+01  0.33481735713E+02  0.00000000000E+00 0. -1.
          3    1    6    6  503    0  0.59250197775E+02  0.29528491861E+03 -0.47370312162E+03  0.56133627758E+03  0.00000000000E+00 0. -1.
         -3    1    6    6    0  503  0.13843765805E+02  0.66779166807E+01 -0.69559096563E+02  0.71237015220E+02  0.00000000000E+00 0.  1.
<mgrwt>
<rscale>  0 0.22829027E+04</rscale>
<asrwt>0</asrwt>
<pdfrwt beam="1">  1        2 0.18215735E+00 0.22829027E+04</pdfrwt>
<pdfrwt beam="2">  1       -1 0.16929394E+00 0.22829027E+04</pdfrwt>
<totfact> 0.49906907E+00</totfact>
</mgrwt>
</event>
<event>
12    7  0.1857704E-007  0.2217299E+04  0.7818608E-02  0.8511262E-01
          2   -1    0    0  501    0  0.00000000000E+00  0.00000000000E+00  0.15225707946E+04  0.15225707946E+04  0.00000000000E+00 0. -1.
         -3   -1    0    0    0  501 -0.00000000000E+00 -0.00000000000E+00 -0.80725570974E+03  0.80725570974E+03  0.00000000000E+00 0.  1.
         24    2    1    2    0    0  0.56655104123E+03 -0.59940294293E+02 -0.46387278624E+03  0.73910712557E+03  0.80798886454E+02 0.  0.
        254    2    1    2    0    0 -0.56655104123E+03  0.59940294293E+02  0.11791878711E+04  0.15907193787E+04  0.90295691227E+03 0.  0.
         23    2    4    4    0    0 -0.70423174089E+03  0.38665028773E+02  0.12247332395E+04  0.14161473958E+04  0.89803169226E+02 0.  0.
         23    2    4    4    0    0  0.13768069966E+03  0.21275265520E+02 -0.45545368478E+02  0.17457198296E+03  0.94828184961E+02 0.  0.
          2    1    3    3  502    0  0.16162928081E+03 -0.35694879805E+02 -0.17657201242E+03  0.24202442941E+03  0.00000000000E+00 0. -1.
         -1    1    3    3    0  502  0.40492176042E+03 -0.24245414488E+02 -0.28730077382E+03  0.49708269616E+03  0.00000000000E+00 0.  1.
         13    1    5    5    0    0 -0.54045448578E+03  0.44642416777E+02  0.10056603111E+04  0.11425570698E+04  0.00000000000E+00 0. -1.
        -13    1    5    5    0    0 -0.16377725510E+03 -0.59773880043E+01  0.21907292846E+03  0.27359032593E+03  0.00000000000E+00 0.  1.
          1    1    6    6  503    0  0.11290387952E+03  0.55869055769E+02 -0.33536920253E+02  0.13035859168E+03  0.00000000000E+00 0. -1.
         -1    1    6    6    0  503  0.24776820133E+02 -0.34593790249E+02 -0.12008448225E+02  0.44213391280E+02  0.00000000000E+00 0.  1.
<mgrwt>
<rscale>  0 0.22172992E+04</rscale>
<asrwt>0</asrwt>
<pdfrwt beam="1">  1        2 0.23424166E+00 0.22172992E+04</pdfrwt>
<pdfrwt beam="2">  1       -3 0.12419319E+00 0.22172992E+04</pdfrwt>
<totfact> 0.37130185E+00</totfact>
</mgrwt>
</event>
<event>
12    7  0.1857704E-007  0.1978868E+04  0.7818608E-02  0.8616565E-01
         -1   -1    0    0    0  501 -0.00000000000E+00  0.00000000000E+00  0.76939159756E+03  0.76939159756E+03  0.00000000000E+00 0.  1.
          2   -1    0    0  501    0  0.00000000000E+00 -0.00000000000E+00 -0.12724080675E+04  0.12724080675E+04  0.00000000000E+00 0. -1.
         24    2    1    2    0    0 -0.72840760643E+02 -0.68122534385E+03  0.18380140350E+03  0.71381867049E+03  0.79877361566E+02 0.  0.
        254    2    1    2    0    0  0.72840760643E+02  0.68122534385E+03 -0.68681787347E+03  0.13279809946E+04  0.90688532085E+03 0.  0.
         23    2    4    4    0    0 -0.10585531777E+03  0.16303708027E+03 -0.73980650768E+03  0.77018282822E+03  0.89897064713E+02 0.  0.
         23    2    4    4    0    0  0.17869607841E+03  0.51818826359E+03  0.52988634211E+02  0.55779816637E+03  0.88767303062E+02 0.  0.
          2    1    3    3  502    0 -0.67423266734E+01 -0.59572170324E+02 -0.65867860245E+01  0.60313250586E+02  0.00000000000E+00 0. -1.
         -1    1    3    3    0  502 -0.66098433969E+02 -0.62165317353E+03  0.19038818952E+03  0.65350541990E+03  0.00000000000E+00 0.  1.
         13    1    5    5    0    0  0.77093709405E+00 -0.42419559443E+01 -0.72355597775E-01  0.43120493467E+01  0.00000000000E+00 0. -1.
        -13    1    5    5    0    0 -0.10662625486E+03  0.16727903621E+03 -0.73973415208E+03  0.76587077888E+03  0.00000000000E+00 0.  1.
          3    1    6    6  503    0 -0.83183234388E+01  0.67730362428E+01  0.51615699260E+00  0.10739410730E+02  0.00000000000E+00 0. -1.
         -3    1    6    6    0  503  0.18701440185E+03  0.51141522734E+03  0.52472477218E+02  0.54705875564E+03  0.00000000000E+00 0.  1.
<mgrwt>
<rscale>  0 0.19788684E+04</rscale>
<asrwt>0</asrwt>
<pdfrwt beam="1">  1        2 0.19575509E+00 0.19788684E+04</pdfrwt>
<pdfrwt beam="2">  1       -1 0.11836794E+00 0.19788684E+04</pdfrwt>
<totfact> 0.11654441E+01</totfact>
</mgrwt>
</event>
<event>
12    7  0.1857704E-007  0.1991593E+04  0.7818608E-02  0.8610561E-01
         -1   -1    0    0    0  501 -0.00000000000E+00  0.00000000000E+00  0.60438668403E+03  0.60438668403E+03  0.00000000000E+00 0.  1.
          2   -1    0    0  501    0  0.00000000000E+00 -0.00000000000E+00 -0.16406887807E+04  0.16406887807E+04  0.00000000000E+00 0. -1.
         24    2    1    2    0    0 -0.22975555422E+03  0.10452925802E+03 -0.12520862748E+04  0.12801113574E+04  0.85153199547E+02 0.  0.
        254    2    1    2    0    0  0.22975555422E+03 -0.10452925802E+03  0.21578417809E+03  0.96496410734E+03  0.90602369531E+03 0.  0.
         23    2    4    4    0    0 -0.97272547752E+02  0.34872588318E+03  0.75095170715E+02  0.38116187549E+03  0.92592659093E+02 0.  0.
         23    2    4    4    0    0  0.32702810198E+03 -0.45325514120E+03  0.14068900737E+03  0.58380223185E+03  0.92973365054E+02 0.  0.
          2    1    3    3  502    0 -0.18366647415E+03  0.11148289019E+03 -0.91908921123E+03  0.94386799221E+03  0.00000000000E+00 0. -1.
         -1    1    3    3    0  502 -0.46089080072E+02 -0.69536321648E+01 -0.33299706356E+03  0.33624336520E+03  0.00000000000E+00 0.  1.
         13    1    5    5    0    0 -0.18383647984E+02  0.16321630501E+03 -0.48032503868E+01  0.16431856848E+03  0.00000000000E+00 0. -1.
        -13    1    5    5    0    0 -0.78888899769E+02  0.18550957817E+03  0.79898421102E+02  0.21684330700E+03  0.00000000000E+00 0.  1.
          1    1    6    6  503    0  0.46660499213E+02 -0.12987856555E+03  0.45889798474E+02  0.14543561317E+03  0.00000000000E+00 0. -1.
         -1    1    6    6    0  503  0.28036760276E+03 -0.32337657565E+03  0.94799208897E+02  0.43836661867E+03  0.00000000000E+00 0.  1.
<mgrwt>
<rscale>  0 0.19915928E+04</rscale>
<asrwt>0</asrwt>
<pdfrwt beam="1">  1        2 0.25241366E+00 0.19915928E+04</pdfrwt>
<pdfrwt beam="2">  1       -1 0.92982568E-01 0.19915928E+04</pdfrwt>
<totfact> 0.12591157E+01</totfact>
</mgrwt>
</event>
<event>
12    7  0.1857704E-007  0.1631779E+04  0.7818608E-02  0.8801259E-01
         -1   -1    0    0    0  501 -0.00000000000E+00  0.00000000000E+00  0.37940843350E+03  0.37940843350E+03  0.00000000000E+00 0.  1.
          2   -1    0    0  501    0  0.00000000000E+00 -0.00000000000E+00 -0.17545101610E+04  0.17545101610E+04  0.00000000000E+00 0. -1.
         24    2    1    2    0    0 -0.36122755672E+03  0.31202667385E+03 -0.88314935660E+03  0.10070587878E+04  0.79803654008E+02 0.  0.
        254    2    1    2    0    0  0.36122755672E+03 -0.31202667385E+03 -0.49195237089E+03  0.11268598067E+04  0.89439918140E+03 0.  0.
         23    2    4    4    0    0 -0.27846550684E+03 -0.18788323762E+03 -0.10593967603E+03  0.36360569161E+03  0.90237101738E+02 0.  0.
         23    2    4    4    0    0  0.63969306356E+03 -0.12414343623E+03 -0.38601269487E+03  0.76325411505E+03  0.94510503154E+02 0.  0.
          4    1    3    3  502    0 -0.26759987389E+03  0.26957326928E+03 -0.66327353581E+03  0.76433711366E+03  0.00000000000E+00 0. -1.
         -3    1    3    3    0  502 -0.93627682829E+02  0.42453404571E+02 -0.21987582079E+03  0.24272167419E+03  0.00000000000E+00 0.  1.
         13    1    5    5    0    0 -0.25019782933E+03 -0.16532370549E+03 -0.61181989350E+02  0.30606227670E+03  0.00000000000E+00 0. -1.
        -13    1    5    5    0    0 -0.28267677511E+02 -0.22559532130E+02 -0.44757686678E+02  0.57543414902E+02  0.00000000000E+00 0.  1.
          1    1    6    6  503    0  0.57797680356E+03 -0.12822444090E+03 -0.37394090492E+03  0.70023602668E+03  0.00000000000E+00 0. -1.
         -1    1    6    6    0  503  0.61716260008E+02  0.40810046659E+01 -0.12071789945E+02  0.63018088363E+02  0.00000000000E+00 0.  1.
<mgrwt>
<rscale>  0 0.16317793E+04</rscale>
<asrwt>0</asrwt>
<pdfrwt beam="1">  1        2 0.26992464E+00 0.16317793E+04</pdfrwt>
<pdfrwt beam="2">  1       -1 0.58370528E-01 0.16317793E+04</pdfrwt>
<totfact> 0.29639006E+01</totfact>
</mgrwt>
</event>
<event>
12    7  0.1857704E-007  0.1619335E+04  0.7818608E-02  0.8808757E-01
          2   -1    0    0  501    0  0.00000000000E+00  0.00000000000E+00  0.11619574134E+04  0.11619574134E+04  0.00000000000E+00 0. -1.
         -1   -1    0    0    0  501 -0.00000000000E+00 -0.00000000000E+00 -0.56418714474E+03  0.56418714474E+03  0.00000000000E+00 0.  1.
         24    2    1    2    0    0 -0.62418426279E+02 -0.37465404247E+02  0.80446342474E+03  0.81174007760E+03  0.80379321806E+02 0.  0.
        254    2    1    2    0    0  0.62418426279E+02  0.37465404247E+02 -0.20669315610E+03  0.91440448052E+03  0.88775772414E+03 0.  0.
         23    2    4    4    0    0 -0.30927210982E+03  0.25259341056E+03  0.38878012404E+02  0.41151143635E+03  0.91528648099E+02 0.  0.
         23    2    4    4    0    0  0.37169053610E+03 -0.21512800632E+03 -0.24557116850E+03  0.50289304417E+03  0.90345455609E+02 0.  0.
          4    1    3    3  502    0 -0.32092681733E+02  0.34288092986E+01  0.60572155622E+03  0.60658082778E+03  0.00000000000E+00 0. -1.
         -3    1    3    3    0  502 -0.30325744546E+02 -0.40894213546E+02  0.19874186852E+03  0.20515924982E+03  0.00000000000E+00 0.  1.
         13    1    5    5    0    0 -0.30442253085E+03  0.24055511935E+03  0.53831591814E+02  0.39171122401E+03  0.00000000000E+00 0. -1.
        -13    1    5    5    0    0 -0.48495789684E+01  0.12038291216E+02 -0.14953579410E+02  0.19800212341E+02  0.00000000000E+00 0.  1.
          1    1    6    6  503    0  0.25104339680E+03 -0.12274970455E+03 -0.20202204910E+03  0.34482341186E+03  0.00000000000E+00 0.  1.
         -1    1    6    6    0  503  0.12064713930E+03 -0.92378301765E+02 -0.43549119399E+02  0.15806963231E+03  0.00000000000E+00 0. -1.
<mgrwt>
<rscale>  0 0.16193350E+04</rscale>
<asrwt>0</asrwt>
<pdfrwt beam="1">  1        2 0.17876268E+00 0.16193350E+04</pdfrwt>
<pdfrwt beam="2">  1       -1 0.86798023E-01 0.16193350E+04</pdfrwt>
<totfact> 0.28522164E+01</totfact>
</mgrwt>
</event>
<event>
12    7  0.1857704E-007  0.1275511E+04  0.7818608E-02  0.9049214E-01
         -1   -1    0    0    0  501 -0.00000000000E+00  0.00000000000E+00  0.25898883843E+03  0.25898883843E+03  0.00000000000E+00 0.  1.
          2   -1    0    0  501    0  0.00000000000E+00 -0.00000000000E+00 -0.15704612197E+04  0.15704612197E+04  0.00000000000E+00 0. -1.
         24    2    1    2    0    0  0.25641582839E+03  0.84369041710E+02 -0.54888756908E+03  0.61687272131E+03  0.79919825821E+02 0.  0.
        254    2    1    2    0    0 -0.25641582839E+03 -0.84369041710E+02 -0.76258481222E+03  0.12125773368E+04  0.90329451993E+03 0.  0.
         23    2    4    4    0    0 -0.53398736813E+03  0.70446332760E+02 -0.25116787434E+03  0.60179156831E+03  0.94670985319E+02 0.  0.
         23    2    4    4    0    0  0.27757153975E+03 -0.15481537447E+03 -0.51141693788E+03  0.61078576853E+03  0.10246077707E+03 0.  0.
          4    1    3    3  502    0  0.11560719799E+03  0.45160855470E+02 -0.33982876228E+03  0.36178462484E+03  0.00000000000E+00 0. -1.
         -3    1    3    3    0  502  0.14080863040E+03  0.39208186240E+02 -0.20905880680E+03  0.25508809647E+03  0.00000000000E+00 0.  1.
         13    1    5    5    0    0 -0.31467354724E+03  0.86348356114E+02 -0.13532591603E+03  0.35325427597E+03  0.00000000000E+00 0. -1.
        -13    1    5    5    0    0 -0.21931382089E+03 -0.15902023355E+02 -0.11584195831E+03  0.24853729234E+03  0.00000000000E+00 0.  1.
          1    1    6    6  503    0  0.12857360462E+03 -0.80278337257E+02 -0.33734938806E+03  0.36983833341E+03  0.00000000000E+00 0. -1.
         -1    1    6    6    0  503  0.14899793513E+03 -0.74537037213E+02 -0.17406754982E+03  0.24094743512E+03  0.00000000000E+00 0.  1.
<mgrwt>
<rscale>  0 0.12755108E+04</rscale>
<asrwt>0</asrwt>
<pdfrwt beam="1">  1        2 0.24160942E+00 0.12755108E+04</pdfrwt>
<pdfrwt beam="2">  1       -1 0.39844437E-01 0.12755108E+04</pdfrwt>
<totfact> 0.79480591E+01</totfact>
</mgrwt>
</event>
<event>
12    7  0.1857704E-007  0.2723371E+04  0.7818608E-02  0.8327461E-01
          2   -1    0    0  501    0  0.00000000000E+00  0.00000000000E+00  0.13892454489E+04  0.13892454489E+04  0.00000000000E+00 0. -1.
         -1   -1    0    0    0  501 -0.00000000000E+00 -0.00000000000E+00 -0.13346724774E+04  0.13346724774E+04  0.00000000000E+00 0.  1.
         24    2    1    2    0    0  0.17338075509E+03 -0.81217145455E+03 -0.84273069471E+03  0.11859159184E+04  0.80735270387E+02 0.  0.
        254    2    1    2    0    0 -0.17338075509E+03  0.81217145455E+03  0.89730366615E+03  0.15380020079E+04  0.93306642265E+03 0.  0.
         23    2    4    4    0    0 -0.49975116344E+03  0.38284506878E+03  0.72527241539E+03  0.96464601426E+03  0.90555420836E+02 0.  0.
         23    2    4    4    0    0  0.32637040835E+03  0.42932638577E+03  0.17203125076E+03  0.57335599360E+03  0.91123845387E+02 0.  0.
          4    1    3    3  502    0  0.13997010642E+03 -0.69615372275E+03 -0.75649480743E+03  0.10375480857E+04  0.00000000000E+00 0. -1.
         -1    1    3    3    0  502  0.33410648668E+02 -0.11601773180E+03 -0.86235887280E+02  0.14836783274E+03  0.00000000000E+00 0.  1.
         13    1    5    5    0    0 -0.37083582089E+03  0.33065160461E+03  0.55950211567E+03  0.74825951856E+03  0.00000000000E+00 0. -1.
        -13    1    5    5    0    0 -0.12891534255E+03  0.52193464170E+02  0.16577029973E+03  0.21638649569E+03  0.00000000000E+00 0.  1.
          4    1    6    6  503    0  0.11835179864E+03  0.13668086947E+03  0.14837483732E+02  0.18140826674E+03  0.00000000000E+00 0. -1.
         -4    1    6    6    0  503  0.20801860971E+03  0.29264551630E+03  0.15719376703E+03  0.39194772686E+03  0.00000000000E+00 0.  1.
<mgrwt>
<rscale>  0 0.27233712E+04</rscale>
<asrwt>0</asrwt>
<pdfrwt beam="1">  1        2 0.21373007E+00 0.27233712E+04</pdfrwt>
<pdfrwt beam="2">  1       -1 0.20533423E+00 0.27233712E+04</pdfrwt>
<totfact> 0.20250201E+00</totfact>
</mgrwt>
</event>
<event>
12    7  0.1857704E-007  0.1473615E+04  0.7818608E-02  0.8902191E-01
         -1   -1    0    0    0  501 -0.00000000000E+00  0.00000000000E+00  0.32256112372E+03  0.32256112372E+03  0.00000000000E+00 0.  1.
          2   -1    0    0  501    0  0.00000000000E+00 -0.00000000000E+00 -0.16830459237E+04  0.16830459237E+04  0.00000000000E+00 0. -1.
         24    2    1    2    0    0  0.23562742270E+03 -0.32705758197E+03 -0.79876869649E+03  0.89847826276E+03  0.82126816000E+02 0.  0.
        254    2    1    2    0    0 -0.23562742270E+03  0.32705758197E+03 -0.56171610349E+03  0.11071287847E+04  0.86470932725E+03 0.  0.
         23    2    4    4    0    0 -0.18410051988E+03  0.17653801219E+03  0.19005182281E+03  0.33344113180E+03  0.10002310663E+03 0.  0.
         23    2    4    4    0    0 -0.51526902826E+02  0.15051956979E+03 -0.75176792630E+03  0.77368765285E+03  0.90146583697E+02 0.  0.
          4    1    3    3  502    0  0.10511703413E+03 -0.12784804018E+03 -0.41539176651E+03  0.44715213510E+03  0.00000000000E+00 0. -1.
         -3    1    3    3    0  502  0.13051038857E+03 -0.19920954179E+03 -0.38337692998E+03  0.45132612765E+03  0.00000000000E+00 0.  1.
         13    1    5    5    0    0 -0.16519015262E+02  0.15445670758E+02 -0.11863848253E+02  0.25538157838E+02  0.00000000000E+00 0.  1.
        -13    1    5    5    0    0 -0.16758150461E+03  0.16109234143E+03  0.20191567106E+03  0.30790297397E+03  0.00000000000E+00 0. -1.
          4    1    6    6  503    0  0.17453813557E+02  0.84499873001E+02 -0.39926963309E+03  0.40848635724E+03  0.00000000000E+00 0. -1.
         -4    1    6    6    0  503 -0.68980716383E+02  0.66019696787E+02 -0.35249829322E+03  0.36520129562E+03  0.00000000000E+00 0.  1.
<mgrwt>
<rscale>  0 0.14736149E+04</rscale>
<asrwt>0</asrwt>
<pdfrwt beam="1">  1        2 0.25893015E+00 0.14736149E+04</pdfrwt>
<pdfrwt beam="2">  1       -1 0.49624787E-01 0.14736149E+04</pdfrwt>
<totfact> 0.45008321E+01</totfact>
</mgrwt>
</event>
<event>
12    7  0.1857704E-007  0.1247876E+04  0.7818608E-02  0.9071953E-01
          2   -1    0    0  501    0  0.00000000000E+00  0.00000000000E+00  0.12591951751E+04  0.12591951751E+04  0.00000000000E+00 0. -1.
         -1   -1    0    0    0  501 -0.00000000000E+00 -0.00000000000E+00 -0.30916468772E+03  0.30916468772E+03  0.00000000000E+00 0.  1.
         24    2    1    2    0    0 -0.65001729517E+02  0.84877750411E+02 -0.10457457914E+03  0.16901923969E+03  0.78754069277E+02 0.  0.
        254    2    1    2    0    0  0.65001729517E+02 -0.84877750411E+02  0.10546050665E+04  0.13993406231E+04  0.91352770941E+03 0.  0.
         23    2    4    4    0    0  0.37759753392E+03 -0.11088116920E+03  0.98627705124E+03  0.10656937269E+04  0.89923114094E+02 0.  0.
         23    2    4    4    0    0 -0.31259580441E+03  0.26003418784E+02  0.68328015276E+02  0.33364689623E+03  0.90880245199E+02 0.  0.
          2    1    3    3  502    0  0.14334961618E+02  0.16754501733E+02 -0.13637550711E+01  0.22092176914E+02  0.00000000000E+00 0. -1.
         -1    1    3    3    0  502 -0.79336691135E+02  0.68123248678E+02 -0.10321082406E+03  0.14692706277E+03  0.00000000000E+00 0.  1.
         13    1    5    5    0    0  0.68197901704E+02  0.17836436987E+01  0.25001998710E+03  0.25916043126E+03  0.00000000000E+00 0. -1.
        -13    1    5    5    0    0  0.30939963222E+03 -0.11266481289E+03  0.73625706414E+03  0.80653329564E+03  0.00000000000E+00 0.  1.
          3    1    6    6  503    0 -0.83383176770E+02  0.13856869418E+02 -0.21407103714E+02  0.87195361618E+02  0.00000000000E+00 0. -1.
         -3    1    6    6    0  503 -0.22921262764E+03  0.12146549366E+02  0.89735118990E+02  0.24645153461E+03  0.00000000000E+00 0.  1.
<mgrwt>
<rscale>  0 0.12478761E+04</rscale>
<asrwt>0</asrwt>
<pdfrwt beam="1">  1        2 0.19372233E+00 0.12478761E+04</pdfrwt>
<pdfrwt beam="2">  1       -1 0.47563799E-01 0.12478761E+04</pdfrwt>
<totfact> 0.86404937E+01</totfact>
</mgrwt>
</event>
<event>
12    7  0.1857704E-007  0.1758159E+04  0.7818608E-02  0.8728872E-01
         -1   -1    0    0    0  501 -0.00000000000E+00  0.00000000000E+00  0.12904167131E+04  0.12904167131E+04  0.00000000000E+00 0.  1.
          2   -1    0    0  501    0  0.00000000000E+00 -0.00000000000E+00 -0.59886130013E+03  0.59886130013E+03  0.00000000000E+00 0. -1.
         24    2    1    2    0    0  0.55171480356E+03 -0.22254252575E+03  0.21198596086E+02  0.60055128457E+03  0.79360347104E+02 0.  0.
        254    2    1    2    0    0 -0.55171480356E+03  0.22254252575E+03  0.67035681688E+03  0.12887267287E+04  0.92602587382E+03 0.  0.
         23    2    4    4    0    0  0.66150724624E+02 -0.23066648779E+03  0.39318655912E+03  0.46911322208E+03  0.88817779164E+02 0.  0.
         23    2    4    4    0    0 -0.61786552819E+03  0.45320901354E+03  0.27717025776E+03  0.81961350658E+03  0.88242435964E+02 0.  0.
          2    1    3    3  502    0  0.30623773625E+03 -0.15575984880E+03  0.37595862260E+02  0.34562426197E+03  0.00000000000E+00 0. -1.
         -1    1    3    3    0  502  0.24547706732E+03 -0.66782676942E+02 -0.16397266175E+02  0.25492702261E+03  0.00000000000E+00 0.  1.
         13    1    5    5    0    0  0.58901799222E+02 -0.19009129030E+03  0.37399525695E+03  0.42364675476E+03  0.00000000000E+00 0.  1.
        -13    1    5    5    0    0  0.72489254013E+01 -0.40575197492E+02  0.19191302169E+02  0.45466467313E+02  0.00000000000E+00 0. -1.
          3    1    6    6  503    0 -0.31910705142E+02  0.85572447664E+01 -0.13911895553E+01  0.33067430337E+02  0.00000000000E+00 0. -1.
         -3    1    6    6    0  503 -0.58595482304E+03  0.44465176877E+03  0.27856144731E+03  0.78654607624E+03  0.00000000000E+00 0.  1.
<mgrwt>
<rscale>  0 0.17581588E+04</rscale>
<asrwt>0</asrwt>
<pdfrwt beam="1">  1        2 0.92132508E-01 0.17581588E+04</pdfrwt>
<pdfrwt beam="2">  1       -1 0.19852565E+00 0.17581588E+04</pdfrwt>
<totfact> 0.82862020E+00</totfact>
</mgrwt>
</event>
<event>
12    7  0.2494832E-007  0.1509994E+04  0.7818608E-02  0.8877834E-01
         -1   -1    0    0    0  501 -0.00000000000E+00  0.00000000000E+00  0.44334809660E+03  0.44334809660E+03  0.00000000000E+00 0.  1.
          2   -1    0    0  501    0  0.00000000000E+00 -0.00000000000E+00 -0.12857178925E+04  0.12857178925E+04  0.00000000000E+00 0. -1.
         24    2    1    2    0    0  0.11346715558E+03 -0.30037316192E+03  0.13835019659E+03  0.35873548322E+03  0.80321467997E+02 0.  0.
        254    2    1    2    0    0 -0.11346715558E+03  0.30037316192E+03 -0.98071999252E+03  0.13703305059E+04  0.90160698748E+03 0.  0.
         23    2    4    4    0    0 -0.20092387420E+03  0.81366372045E+02  0.10412932130E+03  0.25628453772E+03  0.88588706950E+02 0.  0.
         23    2    4    4    0    0  0.87456718614E+02  0.21900678988E+03 -0.10848493138E+04  0.11140459682E+04  0.92670026826E+02 0.  0.
          2    1    3    3  502    0  0.98984637282E+00 -0.68036006633E+02  0.54965486553E+02  0.87470467624E+02  0.00000000000E+00 0. -1.
         -1    1    3    3    0  502  0.11247730921E+03 -0.23233715529E+03  0.83384710039E+02  0.27126501559E+03  0.00000000000E+00 0.  1.
         13    1    5    5    0    0 -0.10959971395E+03  0.84934292890E+02  0.85842037909E+02  0.16307908168E+03  0.00000000000E+00 0.  1.
        -13    1    5    5    0    0 -0.91324160243E+02 -0.35679208450E+01  0.18287283393E+02  0.93205456049E+02  0.00000000000E+00 0. -1.
          4    1    6    6  503    0 -0.10372987185E+02 -0.29400816281E+01 -0.42096299723E+02  0.43455050265E+02  0.00000000000E+00 0. -1.
         -4    1    6    6    0  503  0.97829705799E+02  0.22194687151E+03 -0.10427530141E+04  0.10705909179E+04  0.00000000000E+00 0.  1.
<mgrwt>
<rscale>  0 0.15099941E+04</rscale>
<asrwt>0</asrwt>
<pdfrwt beam="1">  1        2 0.19780275E+00 0.15099941E+04</pdfrwt>
<pdfrwt beam="2">  1       -1 0.68207400E-01 0.15099941E+04</pdfrwt>
<totfact> 0.40362020E+01</totfact>
</mgrwt>
</event>
<event>
12    7  0.2967306E-007  0.1992803E+04  0.7818608E-02  0.8609993E-01
          2   -1    0    0  501    0  0.00000000000E+00  0.00000000000E+00  0.29360311113E+04  0.29360311113E+04  0.00000000000E+00 0. -1.
         -1   -1    0    0    0  501 -0.00000000000E+00 -0.00000000000E+00 -0.33814912204E+03  0.33814912204E+03  0.00000000000E+00 0.  1.
         24    2    1    2    0    0 -0.49376495341E+03 -0.60679835483E+03  0.85267000734E+03  0.11598267141E+04  0.78382349676E+02 0.  0.
        254    2    1    2    0    0  0.49376495341E+03  0.60679835483E+03  0.17452119820E+04  0.21143535193E+04  0.90150866317E+03 0.  0.
         23    2    4    4    0    0  0.61339617141E+02 -0.17811020573E+03  0.82707901876E+02  0.22340886151E+03  0.87092642338E+02 0.  0.
         23    2    4    4    0    0  0.43242533627E+03  0.78490856056E+03  0.16625040801E+04  0.18909446578E+04  0.93159875966E+02 0.  0.
          4    1    3    3  502    0 -0.42764317456E+03 -0.52532864374E+03  0.69557787256E+03  0.97091577672E+03  0.00000000000E+00 0. -1.
         -3    1    3    3    0  502 -0.66121778852E+02 -0.81469711092E+02  0.15709213477E+03  0.18891093741E+03  0.00000000000E+00 0.  1.
         13    1    5    5    0    0  0.13176400818E+00 -0.10381670278E+03  0.13147081059E+02  0.10464593101E+03  0.00000000000E+00 0.  1.
        -13    1    5    5    0    0  0.61207853133E+02 -0.74293502957E+02  0.69560820817E+02  0.11876293049E+03  0.00000000000E+00 0. -1.
          1    1    6    6  503    0  0.21349721969E+03  0.29810606845E+03  0.70918603901E+03  0.79836904297E+03  0.00000000000E+00 0. -1.
         -1    1    6    6    0  503  0.21892811658E+03  0.48680249211E+03  0.95331804108E+03  0.10925756148E+04  0.00000000000E+00 0.  1.
<mgrwt>
<rscale>  0 0.19928034E+04</rscale>
<asrwt>0</asrwt>
<pdfrwt beam="1">  1        2 0.45169708E+00 0.19928034E+04</pdfrwt>
<pdfrwt beam="2">  1       -1 0.52022944E-01 0.19928034E+04</pdfrwt>
<totfact> 0.75296423E+00</totfact>
</mgrwt>
</event>
<event>
12    7  0.1857704E-007  0.1467765E+04  0.7818608E-02  0.8906176E-01
         -1   -1    0    0    0  501 -0.00000000000E+00  0.00000000000E+00  0.26737141963E+03  0.26737141963E+03  0.00000000000E+00 0.  1.
          2   -1    0    0  501    0  0.00000000000E+00 -0.00000000000E+00 -0.20143657931E+04  0.20143657931E+04  0.00000000000E+00 0. -1.
         24    2    1    2    0    0  0.30458963774E+02  0.37163508223E+03 -0.18832326724E+03  0.42511149194E+03  0.78827309862E+02 0.  0.
        254    2    1    2    0    0 -0.30458963774E+02 -0.37163508223E+03 -0.15586711062E+04  0.18566257208E+04  0.93731695112E+03 0.  0.
         23    2    4    4    0    0  0.10071844862E+02 -0.38424512860E+03 -0.11755386966E+03  0.41204895259E+03  0.90662374481E+02 0.  0.
         23    2    4    4    0    0 -0.40530808636E+02  0.12610046375E+02 -0.14411172366E+04  0.14445767682E+04  0.90451036145E+02 0.  0.
          4    1    3    3  502    0  0.28703981011E+02  0.14272489348E+03 -0.35432577666E+02  0.14983251084E+03  0.00000000000E+00 0. -1.
         -3    1    3    3    0  502  0.17549827633E+01  0.22891018874E+03 -0.15289068958E+03  0.27527898110E+03  0.00000000000E+00 0.  1.
         13    1    5    5    0    0 -0.72845372828E+01 -0.34584267693E+03 -0.78766472864E+02  0.35477370099E+03  0.00000000000E+00 0. -1.
        -13    1    5    5    0    0  0.17356382145E+02 -0.38402451679E+02 -0.38787396796E+02  0.57275251604E+02  0.00000000000E+00 0.  1.
          3    1    6    6  503    0  0.81474582166E+01 -0.10766268141E+02 -0.10100668796E+04  0.10101571140E+04  0.00000000000E+00 0. -1.
         -3    1    6    6    0  503 -0.48678266853E+02  0.23376314516E+02 -0.43105035694E+03  0.43441965421E+03  0.00000000000E+00 0.  1.
<mgrwt>
<rscale>  0 0.14677654E+04</rscale>
<asrwt>0</asrwt>
<pdfrwt beam="1">  1        2 0.30990243E+00 0.14677654E+04</pdfrwt>
<pdfrwt beam="2">  1       -1 0.41134065E-01 0.14677654E+04</pdfrwt>
<totfact> 0.41889434E+01</totfact>
</mgrwt>
</event>
<event>
12    7  0.1857704E-007  0.1500381E+04  0.7818608E-02  0.8884199E-01
          2   -1    0    0  501    0  0.00000000000E+00  0.00000000000E+00  0.33819215792E+04  0.33819215792E+04  0.00000000000E+00 0. -1.
         -1   -1    0    0    0  501 -0.00000000000E+00 -0.00000000000E+00 -0.16641014285E+03  0.16641014285E+03  0.00000000000E+00 0.  1.
         24    2    1    2    0    0 -0.42792666234E+03 -0.10475068516E+03  0.14082008770E+04  0.14776706477E+04  0.79918074497E+02 0.  0.
        254    2    1    2    0    0  0.42792666234E+03  0.10475068516E+03  0.18073105593E+04  0.20706610743E+04  0.90948990791E+03 0.  0.
         23    2    4    4    0    0 -0.52488206404E+02  0.41705274750E+03  0.76865269288E+03  0.88077316400E+03  0.90809680898E+02 0.  0.
         23    2    4    4    0    0  0.48041486875E+03 -0.31230206234E+03  0.10386578664E+04  0.11898879103E+04  0.93231171870E+02 0.  0.
          2    1    3    3  502    0 -0.13942873917E+03 -0.19717220718E+02  0.34190207474E+03  0.36976502108E+03  0.00000000000E+00 0. -1.
         -1    1    3    3    0  502 -0.28849792318E+03 -0.85033464441E+02  0.10662988023E+04  0.11079056266E+04  0.00000000000E+00 0.  1.
         13    1    5    5    0    0 -0.40488977315E+02  0.81681682460E+02  0.12283634585E+03  0.15297065861E+03  0.00000000000E+00 0.  1.
        -13    1    5    5    0    0 -0.11999229089E+02  0.33537106504E+03  0.64581634703E+03  0.72780250539E+03  0.00000000000E+00 0. -1.
          4    1    6    6  503    0  0.14253680330E+03 -0.12724488107E+03  0.27934695618E+03  0.33844160793E+03  0.00000000000E+00 0. -1.
         -4    1    6    6    0  503  0.33787806545E+03 -0.18505718127E+03  0.75931091021E+03  0.85144630237E+03  0.00000000000E+00 0.  1.
<mgrwt>
<rscale>  0 0.15003814E+04</rscale>
<asrwt>0</asrwt>
<pdfrwt beam="1">  1        2 0.52029558E+00 0.15003814E+04</pdfrwt>
<pdfrwt beam="2">  1       -1 0.25601563E-01 0.15003814E+04</pdfrwt>
<totfact> 0.14690255E+01</totfact>
</mgrwt>
</event>
<event>
12    7  0.1857704E-007  0.1270476E+04  0.7818608E-02  0.9053311E-01
          2   -1    0    0  501    0  0.00000000000E+00  0.00000000000E+00  0.27627048222E+04  0.27627048222E+04  0.00000000000E+00 0. -1.
         -1   -1    0    0    0  501 -0.00000000000E+00 -0.00000000000E+00 -0.14606244893E+03  0.14606244893E+03  0.00000000000E+00 0.  1.
         24    2    1    2    0    0 -0.17816426951E+02 -0.79852652212E+02  0.12686979217E+04  0.12751526039E+04  0.98619854134E+02 0.  0.
        254    2    1    2    0    0  0.17816426951E+02  0.79852652212E+02  0.13479444515E+04  0.16336146672E+04  0.91926533996E+03 0.  0.
         23    2    4    4    0    0  0.41344384227E+03  0.17374247552E+03  0.96402214091E+03  0.10672184372E+04  0.92164234130E+02 0.  0.
         23    2    4    4    0    0 -0.39562741532E+03 -0.93889823310E+02  0.38392231063E+03  0.56639622997E+03  0.89844298912E+02 0.  0.
          4    1    3    3  502    0 -0.56252133096E+02 -0.61453524096E+02  0.72041527437E+03  0.72521652328E+03  0.00000000000E+00 0. -1.
         -3    1    3    3    0  502  0.38435706145E+02 -0.18399128116E+02  0.54828264734E+03  0.54993608064E+03  0.00000000000E+00 0.  1.
         13    1    5    5    0    0  0.28652418557E+03  0.92481768670E+02  0.71992671112E+03  0.78034829136E+03  0.00000000000E+00 0.  1.
        -13    1    5    5    0    0  0.12691965670E+03  0.81260706853E+02  0.24409542980E+03  0.28687014585E+03  0.00000000000E+00 0. -1.
          1    1    6    6  503    0 -0.69133777458E+02 -0.32497216563E+02  0.11933922500E+03  0.14169473841E+03  0.00000000000E+00 0. -1.
         -1    1    6    6    0  503 -0.32649363786E+03 -0.61392606747E+02  0.26458308563E+03  0.42470149155E+03  0.00000000000E+00 0.  1.
<mgrwt>
<rscale>  0 0.12704762E+04</rscale>
<asrwt>0</asrwt>
<pdfrwt beam="1">  1        2 0.42503147E+00 0.12704762E+04</pdfrwt>
<pdfrwt beam="2">  1       -1 0.22471148E-01 0.12704762E+04</pdfrwt>
<totfact> 0.46174705E+01</totfact>
</mgrwt>
</event>
<event>
12    7  0.1857704E-007  0.1868160E+04  0.7818608E-02  0.8670869E-01
          2   -1    0    0  501    0  0.00000000000E+00  0.00000000000E+00  0.29115761014E+04  0.29115761014E+04  0.00000000000E+00 0. -1.
         -1   -1    0    0    0  501 -0.00000000000E+00 -0.00000000000E+00 -0.29966782584E+03  0.29966782584E+03  0.00000000000E+00 0.  1.
         24    2    1    2    0    0 -0.12507886190E+03  0.33092874276E+03 -0.60425376642E+02  0.36778804974E+03  0.80363355506E+02 0.  0.
        254    2    1    2    0    0  0.12507886190E+03 -0.33092874276E+03  0.26723336522E+04  0.28434558774E+04  0.90482905791E+03 0.  0.
         23    2    4    4    0    0 -0.20931354590E+03 -0.48422731030E+03  0.20138669092E+04  0.20837517574E+04  0.89851043105E+02 0.  0.
         23    2    4    4    0    0  0.33439240781E+03  0.15329856754E+03  0.65846674293E+03  0.75970412002E+03  0.90846932932E+02 0.  0.
          4    1    3    3  502    0  0.10972461289E+02  0.42092256118E+02 -0.83876947858E+01  0.44300184601E+02  0.00000000000E+00 0. -1.
         -3    1    3    3    0  502 -0.13605132319E+03  0.28883648665E+03 -0.52037681856E+02  0.32348786514E+03  0.00000000000E+00 0.  1.
         13    1    5    5    0    0 -0.14369931562E+03 -0.39636546724E+03  0.16911737021E+04  0.17429353308E+04  0.00000000000E+00 0.  1.
        -13    1    5    5    0    0 -0.65614230283E+02 -0.87861843059E+02  0.32269320717E+03  0.34081642659E+03  0.00000000000E+00 0. -1.
          3    1    6    6  503    0  0.21040357634E+03  0.12671276356E+03  0.49716210508E+03  0.55452317184E+03  0.00000000000E+00 0. -1.
         -3    1    6    6    0  503  0.12398883147E+03  0.26585803979E+02  0.16130463785E+03  0.20518094817E+03  0.00000000000E+00 0.  1.
<mgrwt>
<rscale>  0 0.18681603E+04</rscale>
<asrwt>0</asrwt>
<pdfrwt beam="1">  1        2 0.44793477E+00 0.18681603E+04</pdfrwt>
<pdfrwt beam="2">  1       -1 0.46102744E-01 0.18681603E+04</pdfrwt>
<totfact> 0.99142384E+00</totfact>
</mgrwt>
</event>
<event>
12    7  0.1857704E-007  0.2453328E+04  0.7818608E-02  0.8419804E-01
         -1   -1    0    0    0  501 -0.00000000000E+00  0.00000000000E+00  0.11249437867E+04  0.11249437867E+04  0.00000000000E+00 0.  1.
          2   -1    0    0  501    0  0.00000000000E+00 -0.00000000000E+00 -0.13375818146E+04  0.13375818146E+04  0.00000000000E+00 0. -1.
         24    2    1    2    0    0  0.88301383582E+03  0.76448114127E+00 -0.59522012555E+03  0.10678096509E+04  0.78844365304E+02 0.  0.
        254    2    1    2    0    0 -0.88301383582E+03 -0.76448114127E+00  0.38258209768E+03  0.13947159505E+04  0.10095293470E+04 0.  0.
         23    2    4    4    0    0 -0.74620231269E+03  0.25564505899E+03  0.62132374241E+03  0.10081623089E+04  0.90419912505E+02 0.  0.
         23    2    4    4    0    0 -0.13681152313E+03 -0.25640954013E+03 -0.23874164474E+03  0.38655364158E+03  0.89235081425E+02 0.  0.
          4    1    3    3  502    0  0.75935980720E+03  0.16994896512E+02 -0.53679063266E+03  0.93008619311E+03  0.00000000000E+00 0. -1.
         -3    1    3    3    0  502  0.12365402862E+03 -0.16230415371E+02 -0.58429492886E+02  0.13772345776E+03  0.00000000000E+00 0.  1.
         13    1    5    5    0    0 -0.28459044432E+03  0.10335394502E+03  0.18398250474E+03  0.35429270526E+03  0.00000000000E+00 0.  1.
        -13    1    5    5    0    0 -0.46161186837E+03  0.15229111397E+03  0.43734123767E+03  0.65386960365E+03  0.00000000000E+00 0. -1.
          2    1    6    6  503    0 -0.37926833938E+02 -0.39754113328E+02 -0.90980328185E+02  0.10628383873E+03  0.00000000000E+00 0. -1.
         -2    1    6    6    0  503 -0.98884689191E+02 -0.21665542680E+03 -0.14776131655E+03  0.28026980285E+03  0.00000000000E+00 0.  1.
<mgrwt>
<rscale>  0 0.24533278E+04</rscale>
<asrwt>0</asrwt>
<pdfrwt beam="1">  1        2 0.20578182E+00 0.24533278E+04</pdfrwt>
<pdfrwt beam="2">  1       -1 0.17306828E+00 0.24533278E+04</pdfrwt>
<totfact> 0.37470252E+00</totfact>
</mgrwt>
</event>
<event>
12    7  0.1857704E-007  0.4377602E+04  0.7818608E-02  0.7932423E-01
         -1   -1    0    0    0  501 -0.00000000000E+00  0.00000000000E+00  0.19956743879E+04  0.19956743879E+04  0.00000000000E+00 0.  1.
          2   -1    0    0  501    0  0.00000000000E+00 -0.00000000000E+00 -0.24006165780E+04  0.24006165780E+04  0.00000000000E+00 0. -1.
         24    2    1    2    0    0 -0.26559845678E+03  0.24695599729E+03 -0.22654267872E+04  0.22956633523E+04  0.79886758406E+02 0.  0.
        254    2    1    2    0    0  0.26559845678E+03 -0.24695599729E+03  0.18604845971E+04  0.21006276137E+04  0.90537485645E+03 0.  0.
         23    2    4    4    0    0  0.91927573773E+02 -0.57526687782E+03  0.10443403394E+04  0.11991304072E+04  0.88793745549E+02 0.  0.
         23    2    4    4    0    0  0.17367088300E+03  0.32831088053E+03  0.81614425763E+03  0.90149720655E+03  0.93038455895E+02 0.  0.
          4    1    3    3  502    0 -0.18086748574E+03  0.13570025953E+03 -0.15817695157E+04  0.15978493073E+04  0.00000000000E+00 0. -1.
         -3    1    3    3    0  502 -0.84730971033E+02  0.11125573776E+03 -0.68365727141E+03  0.69781404499E+03  0.00000000000E+00 0.  1.
         13    1    5    5    0    0 -0.54571967276E+01 -0.12353522507E+03  0.17043435410E+03  0.21056733337E+03  0.00000000000E+00 0.  1.
        -13    1    5    5    0    0  0.97384770500E+02 -0.45173165275E+03  0.87390598534E+03  0.98856307378E+03  0.00000000000E+00 0. -1.
          3    1    6    6  503    0  0.89325399293E+02  0.21300825442E+03  0.40494917386E+03  0.46619242467E+03  0.00000000000E+00 0. -1.
         -3    1    6    6    0  503  0.84345483709E+02  0.11530262611E+03  0.41119508377E+03  0.43530478188E+03  0.00000000000E+00 0.  1.
<mgrwt>
<rscale>  0 0.43776016E+04</rscale>
<asrwt>0</asrwt>
<pdfrwt beam="1">  1        2 0.36932562E+00 0.43776016E+04</pdfrwt>
<pdfrwt beam="2">  1       -1 0.30702683E+00 0.43776016E+04</pdfrwt>
<totfact> 0.10277231E-01</totfact>
</mgrwt>
</event>
<event>
12    7  0.1857704E-007  0.1663944E+04  0.7818608E-02  0.8782200E-01
          2   -1    0    0  501    0  0.00000000000E+00  0.00000000000E+00  0.26543638550E+04  0.26543638550E+04  0.00000000000E+00 0. -1.
         -1   -1    0    0    0  501 -0.00000000000E+00 -0.00000000000E+00 -0.26076948139E+03  0.26076948139E+03  0.00000000000E+00 0.  1.
         24    2    1    2    0    0 -0.25205079156E+03  0.42755493643E+03  0.13736976051E+04  0.14629777329E+04  0.83222061417E+02 0.  0.
        254    2    1    2    0    0  0.25205079156E+03 -0.42755493643E+03  0.10198967685E+04  0.14521556035E+04  0.90677100367E+03 0.  0.
         23    2    4    4    0    0 -0.33384430206E+03 -0.19237659856E+03  0.39656469674E+03  0.56032503602E+03  0.90773418999E+02 0.  0.
         23    2    4    4    0    0  0.58589509362E+03 -0.23517833787E+03  0.62333207174E+03  0.89183056744E+03  0.90757798719E+02 0.  0.
          2    1    3    3  502    0 -0.25543112551E+03  0.42919562681E+03  0.13648730229E+04  0.14533864987E+04  0.00000000000E+00 0. -1.
         -1    1    3    3    0  502  0.33803339479E+01 -0.16406903790E+01  0.88245821861E+01  0.95912341895E+01  0.00000000000E+00 0.  1.
         13    1    5    5    0    0 -0.31316011167E+03 -0.14692411462E+03  0.34575936210E+03  0.48908638039E+03  0.00000000000E+00 0. -1.
        -13    1    5    5    0    0 -0.20684190386E+02 -0.45452483940E+02  0.50805334640E+02  0.71238655631E+02  0.00000000000E+00 0.  1.
          4    1    6    6  503    0  0.36928853038E+03 -0.12043481380E+03  0.33102195032E+03  0.51034703354E+03  0.00000000000E+00 0. -1.
         -4    1    6    6    0  503  0.21660656324E+03 -0.11474352407E+03  0.29231012142E+03  0.38148353391E+03  0.00000000000E+00 0.  1.
<mgrwt>
<rscale>  0 0.16639436E+04</rscale>
<asrwt>0</asrwt>
<pdfrwt beam="1">  1        2 0.40836365E+00 0.16639436E+04</pdfrwt>
<pdfrwt beam="2">  1       -1 0.40118384E-01 0.16639436E+04</pdfrwt>
<totfact> 0.18655861E+01</totfact>
</mgrwt>
</event>
<event>
12    7  0.1857704E-007  0.2143703E+04  0.7818608E-02  0.8542233E-01
         -1   -1    0    0    0  501 -0.00000000000E+00  0.00000000000E+00  0.68596038536E+03  0.68596038536E+03  0.00000000000E+00 0.  1.
          2   -1    0    0  501    0  0.00000000000E+00 -0.00000000000E+00 -0.16748272123E+04  0.16748272123E+04  0.00000000000E+00 0. -1.
         24    2    1    2    0    0  0.56731549571E+03 -0.82592383439E+02  0.33236197456E+03  0.66737868120E+03  0.79129315158E+02 0.  0.
        254    2    1    2    0    0 -0.56731549571E+03  0.82592383439E+02 -0.13212288015E+04  0.16934089164E+04  0.89068503912E+03 0.  0.
         23    2    4    4    0    0 -0.11231546998E+03 -0.45212693320E+02  0.10776809958E+03  0.18613293682E+03  0.91501663627E+02 0.  0.
         23    2    4    4    0    0 -0.45500002573E+03  0.12780507676E+03 -0.14289969010E+04  0.15072759796E+04  0.80557894996E+02 0.  0.
          4    1    3    3  502    0  0.81120159644E+00 -0.68289185725E+01  0.65009111645E+01  0.94632987308E+01  0.00000000000E+00 0. -1.
         -3    1    3    3    0  502  0.56650429411E+03 -0.75763464867E+02  0.32586106339E+03  0.65791538247E+03  0.00000000000E+00 0.  1.
         13    1    5    5    0    0 -0.87953098968E+02  0.10429663158E+02  0.47232082861E+02  0.10037626783E+03  0.00000000000E+00 0. -1.
        -13    1    5    5    0    0 -0.24362371012E+02 -0.55642356478E+02  0.60536016719E+02  0.85756668988E+02  0.00000000000E+00 0.  1.
          1    1    6    6  503    0 -0.11054818234E+03  0.25379139134E+00 -0.38451232702E+03  0.40008835857E+03  0.00000000000E+00 0. -1.
         -1    1    6    6    0  503 -0.34445184339E+03  0.12755128537E+03 -0.10444845740E+04  0.11071876210E+04  0.00000000000E+00 0.  1.
<mgrwt>
<rscale>  0 0.21437025E+04</rscale>
<asrwt>0</asrwt>
<pdfrwt beam="1">  1        2 0.25766572E+00 0.21437025E+04</pdfrwt>
<pdfrwt beam="2">  1       -1 0.10553237E+00 0.21437025E+04</pdfrwt>
<totfact> 0.89119850E+00</totfact>
</mgrwt>
</event>
<event>
12    7  0.1857704E-007  0.1569947E+04  0.7818608E-02  0.8839226E-01
          2   -1    0    0  501    0  0.00000000000E+00  0.00000000000E+00  0.13889996458E+04  0.13889996458E+04  0.00000000000E+00 0. -1.
         -1   -1    0    0    0  501 -0.00000000000E+00 -0.00000000000E+00 -0.44361666912E+03  0.44361666912E+03  0.00000000000E+00 0.  1.
         24    2    1    2    0    0  0.13135688132E+03 -0.92996644317E+02 -0.26648303933E+03  0.32115375604E+03  0.78889280913E+02 0.  0.
        254    2    1    2    0    0 -0.13135688132E+03  0.92996644317E+02  0.12118660160E+04  0.15114625589E+04  0.88881765286E+03 0.  0.
         23    2    4    4    0    0 -0.33217558596E+03 -0.90273041833E+02  0.11682564589E+04  0.12214053900E+04  0.92293721772E+02 0.  0.
         23    2    4    4    0    0  0.20081870465E+03  0.18326968615E+03  0.43609557113E+02  0.29005716885E+03  0.91189021988E+02 0.  0.
          4    1    3    3  502    0  0.81797545271E+02 -0.31005415339E+02 -0.80235879234E+02  0.11870118158E+03  0.00000000000E+00 0. -1.
         -3    1    3    3    0  502  0.49559336046E+02 -0.61991228978E+02 -0.18624716010E+03  0.20245257445E+03  0.00000000000E+00 0.  1.
         13    1    5    5    0    0 -0.46324572185E+02 -0.45775120585E+02  0.26848386898E+03  0.27626964284E+03  0.00000000000E+00 0.  1.
        -13    1    5    5    0    0 -0.28585101378E+03 -0.44497921248E+02  0.89977258991E+03  0.94513574720E+03  0.00000000000E+00 0. -1.
          4    1    6    6  503    0  0.19364748997E+03  0.18594437172E+03  0.24632653415E+02  0.26959493200E+03  0.00000000000E+00 0. -1.
         -4    1    6    6    0  503  0.71712146806E+01 -0.26746855722E+01  0.18976903698E+02  0.20462236849E+02  0.00000000000E+00 0.  1.
<mgrwt>
<rscale>  0 0.15699470E+04</rscale>
<asrwt>0</asrwt>
<pdfrwt beam="1">  1        2 0.21369225E+00 0.15699470E+04</pdfrwt>
<pdfrwt beam="2">  1       -1 0.68248719E-01 0.15699470E+04</pdfrwt>
<totfact> 0.34954448E+01</totfact>
</mgrwt>
</event>
<event>
12    7  0.1857704E-007  0.1512621E+04  0.7818608E-02  0.8876103E-01
         -1   -1    0    0    0  501 -0.00000000000E+00  0.00000000000E+00  0.10018370769E+04  0.10018370769E+04  0.00000000000E+00 0.  1.
          2   -1    0    0  501    0  0.00000000000E+00 -0.00000000000E+00 -0.57095688783E+03  0.57095688783E+03  0.00000000000E+00 0. -1.
         24    2    1    2    0    0 -0.72501327822E+02  0.16286184958E+03 -0.32420877636E+03  0.37868021129E+03  0.80665650485E+02 0.  0.
        254    2    1    2    0    0  0.72501327822E+02 -0.16286184958E+03  0.75508896543E+03  0.11941137534E+04  0.90772676828E+03 0.  0.
         23    2    4    4    0    0  0.53777214294E+02 -0.95439446492E+02 -0.19273564708E+03  0.23938067934E+03  0.90307271365E+02 0.  0.
         23    2    4    4    0    0  0.18724113527E+02 -0.67422403086E+02  0.94782461252E+03  0.95473307410E+03  0.90815052810E+02 0.  0.
          4    1    3    3  502    0 -0.87811627750E+02  0.15495827585E+03 -0.30143675613E+03  0.35012435958E+03  0.00000000000E+00 0. -1.
         -3    1    3    3    0  502  0.15310299929E+02  0.79035737274E+01 -0.22772020224E+02  0.28555851706E+02  0.00000000000E+00 0.  1.
         13    1    5    5    0    0  0.70979811183E+02 -0.56864692384E+02 -0.16632260184E+03  0.18956511999E+03  0.00000000000E+00 0.  1.
        -13    1    5    5    0    0 -0.17202596889E+02 -0.38574754108E+02 -0.26413045247E+02  0.49815559351E+02  0.00000000000E+00 0. -1.
          1    1    6    6  503    0  0.33311714959E+02 -0.26086801481E+02  0.78414314202E+03  0.78528380777E+03  0.00000000000E+00 0. -1.
         -1    1    6    6    0  503 -0.14587601432E+02 -0.41335601605E+02  0.16368147050E+03  0.16944926633E+03  0.00000000000E+00 0.  1.
<mgrwt>
<rscale>  0 0.15126213E+04</rscale>
<asrwt>0</asrwt>
<pdfrwt beam="1">  1        2 0.87839522E-01 0.15126213E+04</pdfrwt>
<pdfrwt beam="2">  1       -1 0.15412878E+00 0.15126213E+04</pdfrwt>
<totfact> 0.18824262E+01</totfact>
</mgrwt>
</event>
<event>
12    7  0.1857704E-007  0.3086407E+04  0.7818608E-02  0.8219478E-01
          2   -1    0    0  501    0  0.00000000000E+00  0.00000000000E+00  0.32690710233E+04  0.32690710233E+04  0.00000000000E+00 0. -1.
         -1   -1    0    0    0  501 -0.00000000000E+00 -0.00000000000E+00 -0.72848738304E+03  0.72848738304E+03  0.00000000000E+00 0.  1.
         24    2    1    2    0    0 -0.44664879664E+03  0.10763067870E+04  0.21963302728E+04  0.24875284038E+04  0.77456087973E+02 0.  0.
        254    2    1    2    0    0  0.44664879664E+03 -0.10763067870E+04  0.34425336747E+03  0.15100300025E+04  0.89652037350E+03 0.  0.
         23    2    4    4    0    0  0.52349408121E+03 -0.21979245078E+03 -0.10754422125E+02  0.57538110196E+03  0.92698330155E+02 0.  0.
         23    2    4    4    0    0 -0.76845284573E+02 -0.85651433621E+03  0.35500778959E+03  0.93464890051E+03  0.89532288417E+02 0.  0.
          2    1    3    3  502    0 -0.36010688152E+03  0.93147520465E+03  0.19037413640E+04  0.21497800362E+04  0.00000000000E+00 0. -1.
         -1    1    3    3    0  502 -0.86541915111E+02  0.14483158234E+03  0.29258890878E+03  0.33774836765E+03  0.00000000000E+00 0.  1.
         13    1    5    5    0    0  0.83330214811E+02 -0.74438862419E+02 -0.25572178210E+01  0.11176586376E+03  0.00000000000E+00 0. -1.
        -13    1    5    5    0    0  0.44016386640E+03 -0.14535358836E+03 -0.81972043043E+01  0.46361523820E+03  0.00000000000E+00 0.  1.
          4    1    6    6  503    0 -0.68412233608E+02 -0.85181854231E+03  0.35386194502E+03  0.92492882908E+03  0.00000000000E+00 0.  1.
         -4    1    6    6    0  503 -0.84330509656E+01 -0.46957939036E+01  0.11458445697E+01  0.97200714376E+01  0.00000000000E+00 0. -1.
<mgrwt>
<rscale>  0 0.30864070E+04</rscale>
<asrwt>0</asrwt>
<pdfrwt beam="1">  1        2 0.50293400E+00 0.30864070E+04</pdfrwt>
<pdfrwt beam="2">  1       -1 0.11207498E+00 0.30864070E+04</pdfrwt>
<totfact> 0.82246266E-01</totfact>
</mgrwt>
</event>
<event>
12    7  0.1857704E-007  0.3043470E+04  0.7818608E-02  0.8231425E-01
          2   -1    0    0  501    0  0.00000000000E+00  0.00000000000E+00  0.22219673497E+04  0.22219673497E+04  0.00000000000E+00 0. -1.
         -1   -1    0    0    0  501 -0.00000000000E+00 -0.00000000000E+00 -0.10421746120E+04  0.10421746120E+04  0.00000000000E+00 0.  1.
         24    2    1    2    0    0  0.12455229313E+04 -0.58715243263E+03  0.73161146109E+03  0.15613147349E+04  0.79831195375E+02 0.  0.
        254    2    1    2    0    0 -0.12455229313E+04  0.58715243263E+03  0.44818127655E+03  0.17028272268E+04  0.89592340970E+03 0.  0.
         23    2    4    4    0    0 -0.16820200799E+03  0.17707786526E+02  0.44098965938E+03  0.48092767605E+03  0.90631499564E+02 0.  0.
         23    2    4    4    0    0 -0.10773209233E+04  0.56944464610E+03  0.71916171683E+01  0.12218995507E+04  0.89995643864E+02 0.  0.
          2    1    3    3  502    0  0.70258356185E+03 -0.35372754936E+03  0.37929844641E+03  0.87327782063E+03  0.00000000000E+00 0. -1.
         -1    1    3    3    0  502  0.54293936948E+03 -0.23342488327E+03  0.35231301468E+03  0.68803691425E+03  0.00000000000E+00 0.  1.
         13    1    5    5    0    0 -0.74709094643E+02 -0.15071948371E+02  0.99369050707E+02  0.12523106918E+03  0.00000000000E+00 0. -1.
        -13    1    5    5    0    0 -0.93492913351E+02  0.32779734897E+02  0.34162060868E+03  0.35569660687E+03  0.00000000000E+00 0.  1.
          3    1    6    6  503    0 -0.33945118137E+03  0.22718997959E+03  0.66469571794E+01  0.40851753132E+03  0.00000000000E+00 0. -1.
         -3    1    6    6    0  503 -0.73786974196E+03  0.34225466651E+03  0.54465998883E+00  0.81338201941E+03  0.00000000000E+00 0.  1.
<mgrwt>
<rscale>  0 0.30434704E+04</rscale>
<asrwt>0</asrwt>
<pdfrwt beam="1">  1        2 0.34184113E+00 0.30434704E+04</pdfrwt>
<pdfrwt beam="2">  1       -1 0.16033456E+00 0.30434704E+04</pdfrwt>
<totfact> 0.14140894E+00</totfact>
</mgrwt>
</event>
<event>
12    7  0.1857704E-007  0.1473608E+04  0.7818608E-02  0.8902196E-01
         -1   -1    0    0    0  501 -0.00000000000E+00  0.00000000000E+00  0.15862075354E+04  0.15862075354E+04  0.00000000000E+00 0.  1.
          2   -1    0    0  501    0  0.00000000000E+00 -0.00000000000E+00 -0.34225031771E+03  0.34225031771E+03  0.00000000000E+00 0. -1.
         24    2    1    2    0    0 -0.68206694231E+02 -0.34686902662E+03  0.23959600493E+02  0.36512066432E+03  0.88140582550E+02 0.  0.
        254    2    1    2    0    0  0.68206694231E+02  0.34686902662E+03  0.12199976172E+04  0.15633371888E+04  0.91140479761E+03 0.  0.
         23    2    4    4    0    0  0.24859546401E+03 -0.97537386510E+02  0.38960436972E+02  0.28536252368E+03  0.92739461836E+02 0.  0.
         23    2    4    4    0    0 -0.18038876978E+03  0.44440641313E+03  0.11810371802E+04  0.12779746651E+04  0.91286665416E+02 0.  0.
          4    1    3    3  502    0  0.13811399660E+01 -0.41635209410E+02 -0.24497044903E+02  0.48327046456E+02  0.00000000000E+00 0. -1.
         -1    1    3    3    0  502 -0.69587834197E+02 -0.30523381721E+03  0.48456645396E+02  0.31679361787E+03  0.00000000000E+00 0.  1.
         13    1    5    5    0    0  0.14017733556E+03 -0.31565149558E+02 -0.20621779604E+02  0.14515957380E+03  0.00000000000E+00 0.  1.
        -13    1    5    5    0    0  0.10841812845E+03 -0.65972236952E+02  0.59582216576E+02  0.14020294989E+03  0.00000000000E+00 0. -1.
          3    1    6    6  503    0 -0.43706591582E+02  0.94586802113E+02  0.16951069031E+03  0.19897437878E+03  0.00000000000E+00 0. -1.
         -3    1    6    6    0  503 -0.13668217819E+03  0.34981961102E+03  0.10115264899E+04  0.10790002863E+04  0.00000000000E+00 0.  1.
<mgrwt>
<rscale>  0 0.14736079E+04</rscale>
<asrwt>0</asrwt>
<pdfrwt beam="1">  1        2 0.52653896E-01 0.14736079E+04</pdfrwt>
<pdfrwt beam="2">  1       -1 0.24403193E+00 0.14736079E+04</pdfrwt>
<totfact> 0.80142286E+00</totfact>
</mgrwt>
</event>
<event>
12    7  0.1857704E-007  0.1457795E+04  0.7818608E-02  0.8913014E-01
          4   -1    0    0  501    0  0.00000000000E+00  0.00000000000E+00  0.66362558396E+03  0.66362558396E+03  0.00000000000E+00 0. -1.
         -3   -1    0    0    0  501 -0.00000000000E+00 -0.00000000000E+00 -0.80058962438E+03  0.80058962438E+03  0.00000000000E+00 0.  1.
         24    2    1    2    0    0  0.16276424578E+03  0.12204603966E+03  0.34869163607E+03  0.41158641185E+03  0.80187791174E+02 0.  0.
        254    2    1    2    0    0 -0.16276424578E+03 -0.12204603966E+03 -0.48565567649E+03  0.10526287965E+04  0.91147052152E+03 0.  0.
         23    2    4    4    0    0  0.15226066119E+03  0.26217819092E+03  0.43002166499E+02  0.32141970211E+03  0.97676639155E+02 0.  0.
         23    2    4    4    0    0 -0.31502490697E+03 -0.38422423058E+03 -0.52865784299E+03  0.73120909438E+03  0.91206761662E+02 0.  0.
          2    1    3    3  502    0  0.14856965136E+03  0.12938984629E+03  0.34106490059E+03  0.39387807763E+03  0.00000000000E+00 0. -1.
         -1    1    3    3    0  502  0.14194594428E+02 -0.73438066281E+01  0.76267354865E+01  0.17708334223E+02  0.00000000000E+00 0.  1.
         13    1    5    5    0    0  0.13492922423E+03  0.16306583773E+03 -0.87291619250E+00  0.21165331316E+03  0.00000000000E+00 0.  1.
        -13    1    5    5    0    0  0.17331436959E+02  0.99112353192E+02  0.43875082691E+02  0.10976638895E+03  0.00000000000E+00 0. -1.
          4    1    6    6  503    0 -0.12659170611E+03 -0.12948157444E+03 -0.13498275034E+03  0.22585677112E+03  0.00000000000E+00 0.  1.
         -4    1    6    6    0  503 -0.18843320087E+03 -0.25474265615E+03 -0.39367509265E+03  0.50535232326E+03  0.00000000000E+00 0. -1.
<mgrwt>
<rscale>  0 0.14577953E+04</rscale>
<asrwt>0</asrwt>
<pdfrwt beam="1">  1        4 0.10209624E+00 0.14577953E+04</pdfrwt>
<pdfrwt beam="2">  1       -3 0.12316763E+00 0.14577953E+04</pdfrwt>
<totfact> 0.92395618E-01</totfact>
</mgrwt>
</event>
<event>
12    7  0.1857704E-007  0.1129523E+04  0.7818608E-02  0.9176885E-01
         -1   -1    0    0    0  501 -0.00000000000E+00  0.00000000000E+00  0.19158496175E+03  0.19158496175E+03  0.00000000000E+00 0.  1.
          2   -1    0    0  501    0  0.00000000000E+00 -0.00000000000E+00 -0.16648253397E+04  0.16648253397E+04  0.00000000000E+00 0. -1.
         24    2    1    2    0    0 -0.12893995368E+01 -0.11206268759E+03 -0.52934773890E+03  0.54692062707E+03  0.79708438288E+02 0.  0.
        254    2    1    2    0    0  0.12893995368E+01  0.11206268759E+03 -0.94389263907E+03  0.13094896744E+04  0.90070538179E+03 0.  0.
         23    2    4    4    0    0  0.41142856371E+02  0.12491198780E+03 -0.11077490418E+04  0.11191618382E+04  0.90108496776E+02 0.  0.
         23    2    4    4    0    0 -0.39853456834E+02 -0.12849300213E+02  0.16385640273E+03  0.19032783619E+03  0.87306139381E+02 0.  0.
          2    1    3    3  502    0  0.26813833513E+02 -0.92324256053E+02 -0.45469364335E+03  0.46474623100E+03  0.00000000000E+00 0. -1.
         -3    1    3    3    0  502 -0.28103233049E+02 -0.19738431537E+02 -0.74654095548E+02  0.82174396070E+02  0.00000000000E+00 0.  1.
         13    1    5    5    0    0  0.41255919881E+02  0.97741129141E+02 -0.51621439591E+03  0.52700349316E+03  0.00000000000E+00 0. -1.
        -13    1    5    5    0    0 -0.11306350997E+00  0.27170858662E+02 -0.59153464588E+03  0.59215834506E+03  0.00000000000E+00 0.  1.
          1    1    6    6  503    0 -0.97626428208E+01 -0.45326169463E+02  0.50116522553E+02  0.68274714689E+02  0.00000000000E+00 0. -1.
         -1    1    6    6    0  503 -0.30090814013E+02  0.32476869250E+02  0.11373988018E+03  0.12205312150E+03  0.00000000000E+00 0.  1.
<mgrwt>
<rscale>  0 0.11295229E+04</rscale>
<asrwt>0</asrwt>
<pdfrwt beam="1">  1        2 0.25612697E+00 0.11295229E+04</pdfrwt>
<pdfrwt beam="2">  1       -1 0.29474610E-01 0.11295229E+04</pdfrwt>
<totfact> 0.12190982E+02</totfact>
</mgrwt>
</event>
<event>
12    7  0.1857704E-007  0.2876547E+04  0.7818608E-02  0.8279890E-01
          2   -1    0    0  501    0  0.00000000000E+00  0.00000000000E+00  0.16666972031E+04  0.16666972031E+04  0.00000000000E+00 0. -1.
         -1   -1    0    0    0  501 -0.00000000000E+00 -0.00000000000E+00 -0.12411556016E+04  0.12411556016E+04  0.00000000000E+00 0.  1.
         24    2    1    2    0    0  0.52120652747E+03  0.84008328421E+03 -0.64779290172E+03  0.11847905422E+04  0.81834080873E+02 0.  0.
        254    2    1    2    0    0 -0.52120652747E+03 -0.84008328421E+03  0.10733345033E+04  0.17230622625E+04  0.91624256378E+03 0.  0.
         23    2    4    4    0    0  0.22025434543E+03 -0.44053083104E+03  0.36966279459E+03  0.62223419749E+03  0.89137113762E+02 0.  0.
         23    2    4    4    0    0 -0.74146087290E+03 -0.39955245317E+03  0.70367170871E+03  0.11008280650E+04  0.85218343783E+02 0.  0.
          2    1    3    3  502    0  0.98935022714E+02  0.12347728530E+03 -0.13219285665E+03  0.20617887878E+03  0.00000000000E+00 0. -1.
         -1    1    3    3    0  502  0.42227150475E+03  0.71660599891E+03 -0.51560004507E+03  0.97861166347E+03  0.00000000000E+00 0.  1.
         13    1    5    5    0    0  0.14434123536E+03 -0.26436964989E+03  0.17227479531E+03  0.34699324073E+03  0.00000000000E+00 0. -1.
        -13    1    5    5    0    0  0.75913110073E+02 -0.17616118114E+03  0.19738799928E+03  0.27524095677E+03  0.00000000000E+00 0.  1.
          3    1    6    6  503    0 -0.28236427478E+03 -0.14267406178E+03  0.31767222693E+03  0.44833147931E+03  0.00000000000E+00 0. -1.
         -3    1    6    6    0  503 -0.45909659812E+03 -0.25687839139E+03  0.38599948178E+03  0.65249658566E+03  0.00000000000E+00 0.  1.
<mgrwt>
<rscale>  0 0.28765469E+04</rscale>
<asrwt>0</asrwt>
<pdfrwt beam="1">  1        2 0.25641495E+00 0.28765469E+04</pdfrwt>
<pdfrwt beam="2">  1       -1 0.19094702E+00 0.28765469E+04</pdfrwt>
<totfact> 0.17532430E+00</totfact>
</mgrwt>
</event>
<event>
12    7  0.1857704E-007  0.1309957E+04  0.7818608E-02  0.9021706E-01
         -1   -1    0    0    0  501 -0.00000000000E+00  0.00000000000E+00  0.20221579260E+03  0.20221579260E+03  0.00000000000E+00 0.  1.
          2   -1    0    0  501    0  0.00000000000E+00 -0.00000000000E+00 -0.21214802132E+04  0.21214802132E+04  0.00000000000E+00 0. -1.
         24    2    1    2    0    0 -0.26340367843E+03 -0.16742583212E+02 -0.10590938413E+03  0.29372794346E+03  0.73467647420E+02 0.  0.
        254    2    1    2    0    0  0.26340367843E+03  0.16742583212E+02 -0.18133550364E+04  0.20299680623E+04  0.87341401061E+03 0.  0.
         23    2    4    4    0    0  0.18449996941E+03 -0.59413051266E+02 -0.43227766365E+01  0.21528896086E+03  0.93597547485E+02 0.  0.
         23    2    4    4    0    0  0.78903709019E+02  0.76155634478E+02 -0.18090322598E+04  0.18146791015E+04  0.91853406582E+02 0.  0.
          2    1    3    3  502    0 -0.35921782257E+02 -0.26456400865E+02 -0.29819738371E+02  0.53661274526E+02  0.00000000000E+00 0. -1.
         -1    1    3    3    0  502 -0.22748189617E+03  0.97138176528E+01 -0.76089645761E+02  0.24006666893E+03  0.00000000000E+00 0.  1.
         13    1    5    5    0    0  0.73048518362E+02 -0.68003848426E+02 -0.21780583503E+02  0.10215186368E+03  0.00000000000E+00 0. -1.
        -13    1    5    5    0    0  0.11145145105E+03  0.85907971598E+01  0.17457806867E+02  0.11313709718E+03  0.00000000000E+00 0.  1.
          1    1    6    6  503    0  0.59536805796E+02  0.58650634811E+02 -0.17165414142E+04  0.17185746870E+04  0.00000000000E+00 0. -1.
         -1    1    6    6    0  503  0.19366903223E+02  0.17504999666E+02 -0.92490845600E+02  0.96104414433E+02  0.00000000000E+00 0.  1.
<mgrwt>
<rscale>  0 0.13099570E+04</rscale>
<asrwt>0</asrwt>
<pdfrwt beam="1">  1        2 0.32638157E+00 0.13099570E+04</pdfrwt>
<pdfrwt beam="2">  1       -1 0.31110122E-01 0.13099570E+04</pdfrwt>
<totfact> 0.61126859E+01</totfact>
</mgrwt>
</event>
<event>
12    7  0.1857704E-007  0.1609650E+04  0.7818608E-02  0.8814642E-01
          2   -1    0    0  501    0  0.00000000000E+00  0.00000000000E+00  0.17703602551E+04  0.17703602551E+04  0.00000000000E+00 0. -1.
         -1   -1    0    0    0  501 -0.00000000000E+00 -0.00000000000E+00 -0.36588213131E+03  0.36588213131E+03  0.00000000000E+00 0.  1.
         24    2    1    2    0    0  0.23154501270E+03 -0.22039648605E+02 -0.17481499716E+03  0.30142911440E+03  0.78742547332E+02 0.  0.
        254    2    1    2    0    0 -0.23154501270E+03  0.22039648605E+02  0.15792931210E+04  0.18348132720E+04  0.90458506635E+03 0.  0.
         23    2    4    4    0    0 -0.45715869946E+03  0.24649178370E+03  0.59636381510E+03  0.79755540285E+03  0.10340476164E+03 0.  0.
         23    2    4    4    0    0  0.22561368677E+03 -0.22445213509E+03  0.98292930588E+03  0.10372578692E+04  0.92051997459E+02 0.  0.
          2    1    3    3  502    0  0.52829565568E+02 -0.34548628374E+02 -0.68305723891E+02  0.93006680603E+02  0.00000000000E+00 0. -1.
         -1    1    3    3    0  502  0.17871544713E+03  0.12508979770E+02 -0.10650927327E+03  0.20842243380E+03  0.00000000000E+00 0.  1.
         13    1    5    5    0    0 -0.31188767569E+02  0.20334576384E+02  0.94262261142E+02  0.10134894225E+03  0.00000000000E+00 0. -1.
        -13    1    5    5    0    0 -0.42596993189E+03  0.22615720731E+03  0.50210155396E+03  0.69620646060E+03  0.00000000000E+00 0.  1.
          4    1    6    6  503    0  0.99415294191E+02 -0.14796679551E+03  0.44287058288E+03  0.47740122169E+03  0.00000000000E+00 0. -1.
         -4    1    6    6    0  503  0.12619839257E+03 -0.76485339582E+02  0.54005872300E+03  0.55985664750E+03  0.00000000000E+00 0.  1.
<mgrwt>
<rscale>  0 0.16096499E+04</rscale>
<asrwt>0</asrwt>
<pdfrwt beam="1">  1        2 0.27236311E+00 0.16096499E+04</pdfrwt>
<pdfrwt beam="2">  1       -1 0.56289560E-01 0.16096499E+04</pdfrwt>
<totfact> 0.31241194E+01</totfact>
</mgrwt>
</event>
<event>
12    7  0.1857704E-007  0.3708595E+04  0.7818608E-02  0.8066060E-01
          2   -1    0    0  501    0  0.00000000000E+00  0.00000000000E+00  0.17339770968E+04  0.17339770968E+04  0.00000000000E+00 0. -1.
         -1   -1    0    0    0  501 -0.00000000000E+00 -0.00000000000E+00 -0.19829673520E+04  0.19829673520E+04  0.00000000000E+00 0.  1.
         24    2    1    2    0    0 -0.65406808665E+03  0.85572068738E+03  0.12572222047E+04  0.16578858714E+04  0.88965913696E+02 0.  0.
        254    2    1    2    0    0  0.65406808665E+03 -0.85572068738E+03 -0.15062124599E+04  0.20590585774E+04  0.90054610877E+03 0.  0.
         23    2    4    4    0    0  0.40841522392E+03 -0.31348054667E+03 -0.10378487953E+03  0.53284044435E+03  0.89858720447E+02 0.  0.
         23    2    4    4    0    0  0.24565286272E+03 -0.54224014070E+03 -0.14024275804E+04  0.15262181330E+04  0.90382367274E+02 0.  0.
          2    1    3    3  502    0 -0.49120526586E+03  0.60325443635E+03  0.85677602571E+03  0.11572656076E+04  0.00000000000E+00 0. -1.
         -1    1    3    3    0  502 -0.16286282079E+03  0.25246625103E+03  0.40044617903E+03  0.50062026387E+03  0.00000000000E+00 0.  1.
         13    1    5    5    0    0  0.11695740401E+03 -0.10831753128E+03  0.70878564285E+01  0.15956804080E+03  0.00000000000E+00 0. -1.
        -13    1    5    5    0    0  0.29145781991E+03 -0.20516301539E+03 -0.11087273596E+03  0.37327240355E+03  0.00000000000E+00 0.  1.
          1    1    6    6  503    0  0.24238567103E+03 -0.54345804062E+03 -0.14015205469E+04  0.15226152826E+04  0.00000000000E+00 0. -1.
         -1    1    6    6    0  503  0.32671916966E+01  0.12178999164E+01 -0.90703350339E+00  0.36028504778E+01  0.00000000000E+00 0.  1.
<mgrwt>
<rscale>  0 0.37085954E+04</rscale>
<asrwt>0</asrwt>
<pdfrwt beam="1">  1        2 0.26676571E+00 0.37085954E+04</pdfrwt>
<pdfrwt beam="2">  1       -1 0.30507190E+00 0.37085954E+04</pdfrwt>
<totfact> 0.26424866E-01</totfact>
</mgrwt>
</event>
<event>
12    7  0.1857704E-007  0.1428388E+04  0.7818608E-02  0.8933523E-01
          2   -1    0    0  501    0  0.00000000000E+00  0.00000000000E+00  0.28620476322E+04  0.28620476322E+04  0.00000000000E+00 0. -1.
         -1   -1    0    0    0  501 -0.00000000000E+00 -0.00000000000E+00 -0.17821951520E+03  0.17821951520E+03  0.00000000000E+00 0.  1.
         24    2    1    2    0    0 -0.17272123895E+03 -0.12171704338E+03  0.16247957326E+04  0.16405514541E+04  0.82463542173E+02 0.  0.
        254    2    1    2    0    0  0.17272123895E+03  0.12171704338E+03  0.10590323844E+04  0.13997156933E+04  0.89050927332E+03 0.  0.
         23    2    4    4    0    0  0.52596609085E+03  0.65353491955E+02  0.52959495939E+03  0.75504044744E+03  0.93294419029E+02 0.  0.
         23    2    4    4    0    0 -0.35324485190E+03  0.56363551429E+02  0.52943742503E+03  0.64467524589E+03  0.85693700553E+02 0.  0.
          4    1    3    3  502    0 -0.12857344861E+03 -0.12667914912E+03  0.13804342369E+04  0.13921844063E+04  0.00000000000E+00 0. -1.
         -1    1    3    3    0  502 -0.44147790340E+02  0.49621057330E+01  0.24436149565E+03  0.24836704782E+03  0.00000000000E+00 0.  1.
         13    1    5    5    0    0  0.47103585230E+03  0.52040296759E+02  0.50747886278E+03  0.69434700461E+03  0.00000000000E+00 0.  1.
        -13    1    5    5    0    0  0.54930238548E+02  0.13313195196E+02  0.22116096610E+02  0.60693442830E+02  0.00000000000E+00 0. -1.
          2    1    6    6  503    0 -0.17163269120E+03 -0.14322381617E+02  0.22829983981E+03  0.28597854494E+03  0.00000000000E+00 0. -1.
         -2    1    6    6    0  503 -0.18161216070E+03  0.70685933047E+02  0.30113758522E+03  0.35869670095E+03  0.00000000000E+00 0.  1.
<mgrwt>
<rscale>  0 0.14283875E+04</rscale>
<asrwt>0</asrwt>
<pdfrwt beam="1">  1        2 0.44031499E+00 0.14283875E+04</pdfrwt>
<pdfrwt beam="2">  1       -1 0.27418389E-01 0.14283875E+04</pdfrwt>
<totfact> 0.28196324E+01</totfact>
</mgrwt>
</event>
<event>
12    7  0.1857704E-007  0.2450977E+04  0.7818608E-02  0.8420661E-01
          2   -1    0    0  501    0  0.00000000000E+00  0.00000000000E+00  0.88900549054E+03  0.88900549054E+03  0.00000000000E+00 0. -1.
         -1   -1    0    0    0  501 -0.00000000000E+00 -0.00000000000E+00 -0.16893277487E+04  0.16893277487E+04  0.00000000000E+00 0.  1.
         24    2    1    2    0    0 -0.82082724448E+03  0.12195520347E+02 -0.10432797590E+04  0.13299969113E+04  0.80950802731E+02 0.  0.
        254    2    1    2    0    0  0.82082724448E+03 -0.12195520347E+02  0.24295750086E+03  0.12483363280E+04  0.90852030493E+03 0.  0.
         23    2    4    4    0    0  0.31152231406E+03  0.97609598023E+02  0.54297379078E+03  0.64012849625E+03  0.91488624733E+02 0.  0.
         23    2    4    4    0    0  0.50930493042E+03 -0.10980511837E+03 -0.30001628992E+03  0.60820783170E+03  0.91969104362E+02 0.  0.
          2    1    3    3  502    0 -0.22945665978E+03 -0.24866650401E+02 -0.33016603652E+03  0.40283783423E+03  0.00000000000E+00 0. -1.
         -1    1    3    3    0  502 -0.59137058470E+03  0.37062170748E+02 -0.71311372253E+03  0.92715907708E+03  0.00000000000E+00 0.  1.
         13    1    5    5    0    0  0.12833876754E+03  0.10013492964E+02  0.14898944524E+03  0.19689835979E+03  0.00000000000E+00 0.  1.
        -13    1    5    5    0    0  0.18318354652E+03  0.87596105059E+02  0.39398434554E+03  0.44323013646E+03  0.00000000000E+00 0. -1.
          1    1    6    6  503    0  0.49508696109E+03 -0.89536230832E+02 -0.29402927156E+03  0.58273583055E+03  0.00000000000E+00 0. -1.
         -1    1    6    6    0  503  0.14217969328E+02 -0.20268887538E+02 -0.59870183637E+01  0.25472001153E+02  0.00000000000E+00 0.  1.
<mgrwt>
<rscale>  0 0.24509767E+04</rscale>
<asrwt>0</asrwt>
<pdfrwt beam="1">  1        2 0.13677008E+00 0.24509767E+04</pdfrwt>
<pdfrwt beam="2">  1       -1 0.25989658E+00 0.24509767E+04</pdfrwt>
<totfact> 0.18306374E+00</totfact>
</mgrwt>
</event>
<event>
12    7  0.1857704E-007  0.1430768E+04  0.7818608E-02  0.8931844E-01
          2   -1    0    0  501    0  0.00000000000E+00  0.00000000000E+00  0.10999186222E+04  0.10999186222E+04  0.00000000000E+00 0. -1.
         -1   -1    0    0    0  501 -0.00000000000E+00 -0.00000000000E+00 -0.46528349701E+03  0.46528349701E+03  0.00000000000E+00 0.  1.
         24    2    1    2    0    0  0.56096941359E+02  0.28290894639E+03  0.53009299299E+03  0.60876326126E+03  0.80061153290E+02 0.  0.
        254    2    1    2    0    0 -0.56096941359E+02 -0.28290894639E+03  0.10454213223E+03  0.95643885798E+03  0.90590390929E+03 0.  0.
         23    2    4    4    0    0  0.12396357863E+03 -0.57402831956E+03  0.35613999043E+02  0.59516959616E+03  0.89905565915E+02 0.  0.
         23    2    4    4    0    0 -0.18006051998E+03  0.29111937317E+03  0.68928133183E+02  0.36126926182E+03  0.92693644358E+02 0.  0.
          4    1    3    3  502    0  0.40294442423E+02  0.26776508253E+03  0.44507987735E+03  0.52097781021E+03  0.00000000000E+00 0. -1.
         -3    1    3    3    0  502  0.15802498936E+02  0.15143863866E+02  0.85013115634E+02  0.87785451045E+02  0.00000000000E+00 0.  1.
         13    1    5    5    0    0  0.34045779866E+02 -0.74359694846E+02 -0.20697395220E+02  0.84361493071E+02  0.00000000000E+00 0.  1.
        -13    1    5    5    0    0  0.89917798760E+02 -0.49966862471E+03  0.56311394262E+02  0.51080810309E+03  0.00000000000E+00 0. -1.
          3    1    6    6  503    0 -0.13723111503E+03  0.27748013217E+03  0.56994492959E+02  0.31476336335E+03  0.00000000000E+00 0. -1.
         -3    1    6    6    0  503 -0.42829404958E+02  0.13639241002E+02  0.11933640224E+02  0.46505898477E+02  0.00000000000E+00 0.  1.
<mgrwt>
<rscale>  0 0.14307676E+04</rscale>
<asrwt>0</asrwt>
<pdfrwt beam="1">  1        2 0.16921825E+00 0.14307676E+04</pdfrwt>
<pdfrwt beam="2">  1       -1 0.71582077E-01 0.14307676E+04</pdfrwt>
<totfact> 0.47555972E+01</totfact>
</mgrwt>
</event>
<event>
12    7  0.1857704E-007  0.1276197E+04  0.7818608E-02  0.9048657E-01
          2   -1    0    0  501    0  0.00000000000E+00  0.00000000000E+00  0.26443856715E+04  0.26443856715E+04  0.00000000000E+00 0. -1.
         -1   -1    0    0    0  501 -0.00000000000E+00 -0.00000000000E+00 -0.15397505294E+03  0.15397505294E+03  0.00000000000E+00 0.  1.
         24    2    1    2    0    0 -0.88612982273E+02  0.18790726549E+03  0.11453461366E+03  0.25063556289E+03  0.80861651057E+02 0.  0.
        254    2    1    2    0    0  0.88612982273E+02 -0.18790726549E+03  0.23758760049E+04  0.25477251615E+04  0.89607773496E+03 0.  0.
         23    2    4    4    0    0 -0.61563059930E+02 -0.52644516926E+03  0.14554758182E+04  0.15515314439E+04  0.88912528089E+02 0.  0.
         23    2    4    4    0    0  0.15017604220E+03  0.33853790378E+03  0.92040018670E+03  0.99619371759E+03  0.90025903714E+02 0.  0.
          2    1    3    3  502    0 -0.57839547242E+02  0.15276248114E+03  0.12126727746E+03  0.20343928198E+03  0.00000000000E+00 0. -1.
         -1    1    3    3    0  502 -0.30773435031E+02  0.35144784342E+02 -0.67326638033E+01  0.47196280912E+02  0.00000000000E+00 0.  1.
         13    1    5    5    0    0  0.14157191367E+02 -0.14795680106E+03  0.33684845815E+03  0.36818273290E+03  0.00000000000E+00 0. -1.
        -13    1    5    5    0    0 -0.75720251297E+02 -0.37848836820E+03  0.11186273600E+04  0.11833487110E+04  0.00000000000E+00 0.  1.
          4    1    6    6  503    0  0.34678738536E+02  0.59821474151E+02  0.95902322072E+02  0.11823061809E+03  0.00000000000E+00 0. -1.
         -4    1    6    6    0  503  0.11549730367E+03  0.27871642962E+03  0.82449786463E+03  0.87796309949E+03  0.00000000000E+00 0.  1.
<mgrwt>
<rscale>  0 0.12761966E+04</rscale>
<asrwt>0</asrwt>
<pdfrwt beam="1">  1        2 0.40682853E+00 0.12761966E+04</pdfrwt>
<pdfrwt beam="2">  1       -1 0.23688472E-01 0.12761966E+04</pdfrwt>
<totfact> 0.49554011E+01</totfact>
</mgrwt>
</event>
<event>
12    7  0.1857704E-007  0.1339842E+04  0.7818608E-02  0.8998553E-01
          2   -1    0    0  501    0  0.00000000000E+00  0.00000000000E+00  0.11993677706E+04  0.11993677706E+04  0.00000000000E+00 0. -1.
         -1   -1    0    0    0  501 -0.00000000000E+00 -0.00000000000E+00 -0.37419250645E+03  0.37419250645E+03  0.00000000000E+00 0.  1.
         24    2    1    2    0    0  0.29584381837E+03  0.22609013107E+03  0.20574761661E+03  0.43269844745E+03  0.79092050481E+02 0.  0.
        254    2    1    2    0    0 -0.29584381837E+03 -0.22609013107E+03  0.61942764754E+03  0.11408618296E+04  0.88274276631E+03 0.  0.
         23    2    4    4    0    0 -0.30341969009E+02 -0.49981865656E+03  0.53789716248E+03  0.74068438466E+03  0.92415776471E+02 0.  0.
         23    2    4    4    0    0 -0.26550184936E+03  0.27372852549E+03  0.81530485062E+02  0.40017744495E+03  0.89867846135E+02 0.  0.
          4    1    3    3  502    0  0.29227453874E+03  0.20773725641E+03  0.18097006822E+03  0.40165823692E+03  0.00000000000E+00 0. -1.
         -3    1    3    3    0  502  0.35692796322E+01  0.18352874661E+02  0.24777548391E+02  0.31040210529E+02  0.00000000000E+00 0.  1.
         13    1    5    5    0    0  0.10409136994E+02 -0.36691287250E+03  0.42527219578E+03  0.56177383940E+03  0.00000000000E+00 0. -1.
        -13    1    5    5    0    0 -0.40751106003E+02 -0.13290578406E+03  0.11262496670E+03  0.17891054525E+03  0.00000000000E+00 0.  1.
          1    1    6    6  503    0 -0.26394262697E+03  0.23725095931E+03  0.68771282903E+02  0.36150133800E+03  0.00000000000E+00 0. -1.
         -1    1    6    6    0  503 -0.15592223926E+01  0.36477566176E+02  0.12759202158E+02  0.38676106943E+02  0.00000000000E+00 0.  1.
<mgrwt>
<rscale>  0 0.13398424E+04</rscale>
<asrwt>0</asrwt>
<pdfrwt beam="1">  1        2 0.18451812E+00 0.13398424E+04</pdfrwt>
<pdfrwt beam="2">  1       -1 0.57568079E-01 0.13398424E+04</pdfrwt>
<totfact> 0.64564322E+01</totfact>
</mgrwt>
</event>
<event>
12    7  0.1857704E-007  0.1545862E+04  0.7818608E-02  0.8854515E-01
          2   -1    0    0  501    0  0.00000000000E+00  0.00000000000E+00  0.15086463641E+04  0.15086463641E+04  0.00000000000E+00 0. -1.
         -1   -1    0    0    0  501 -0.00000000000E+00 -0.00000000000E+00 -0.39599902598E+03  0.39599902598E+03  0.00000000000E+00 0.  1.
         24    2    1    2    0    0  0.28283308795E+03 -0.36101936008E+03  0.10787853312E+03  0.47931280216E+03  0.88167173107E+02 0.  0.
        254    2    1    2    0    0 -0.28283308795E+03  0.36101936008E+03  0.10047688050E+04  0.14253325880E+04  0.90093457072E+03 0.  0.
         23    2    4    4    0    0 -0.23362835707E+02  0.49279202240E+03  0.10019737892E+04  0.11205279749E+04  0.90783636931E+02 0.  0.
         23    2    4    4    0    0 -0.25947025224E+03 -0.13177266232E+03  0.27950158113E+01  0.30480461308E+03  0.90604600937E+02 0.  0.
          4    1    3    3  502    0  0.14594893271E+01  0.11768207435E+01 -0.63783759730E+01  0.66482100005E+01  0.00000000000E+00 0. -1.
         -3    1    3    3    0  502  0.28137359862E+03 -0.36219618082E+03  0.11425690909E+03  0.47266459216E+03  0.00000000000E+00 0.  1.
         13    1    5    5    0    0 -0.29343975554E+02  0.16986383523E+03  0.26825292735E+03  0.31886427277E+03  0.00000000000E+00 0.  1.
        -13    1    5    5    0    0  0.59811398471E+01  0.32292818717E+03  0.73372086189E+03  0.80166370210E+03  0.00000000000E+00 0. -1.
          4    1    6    6  503    0 -0.24374242873E+03 -0.11329514005E+03  0.27483714154E+02  0.27018792509E+03  0.00000000000E+00 0. -1.
         -4    1    6    6    0  503 -0.15727823511E+02 -0.18477522274E+02 -0.24688698342E+02  0.34616687993E+02  0.00000000000E+00 0.  1.
<mgrwt>
<rscale>  0 0.15458622E+04</rscale>
<asrwt>0</asrwt>
<pdfrwt beam="1">  1        2 0.23209944E+00 0.15458622E+04</pdfrwt>
<pdfrwt beam="2">  1       -1 0.60922928E-01 0.15458622E+04</pdfrwt>
<totfact> 0.37628325E+01</totfact>
</mgrwt>
</event>
<event>
12    7  0.1857704E-007  0.1229093E+04  0.7818608E-02  0.9087766E-01
          2   -1    0    0  501    0  0.00000000000E+00  0.00000000000E+00  0.39017220978E+03  0.39017220978E+03  0.00000000000E+00 0. -1.
         -1   -1    0    0    0  501 -0.00000000000E+00 -0.00000000000E+00 -0.96795108468E+03  0.96795108468E+03  0.00000000000E+00 0.  1.
         24    2    1    2    0    0  0.24912440870E+03  0.52773084765E+02 -0.23506378063E+03  0.35546949184E+03  0.79092409109E+02 0.  0.
        254    2    1    2    0    0 -0.24912440870E+03 -0.52773084765E+02 -0.34271509427E+03  0.10026538026E+04  0.90720066279E+03 0.  0.
         23    2    4    4    0    0 -0.75419543692E+02  0.22918436915E+03  0.22270911255E+03  0.34088959549E+03  0.91612143681E+02 0.  0.
         23    2    4    4    0    0 -0.17370486501E+03 -0.28195745391E+03 -0.56542420682E+03  0.66176420713E+03  0.92487546381E+02 0.  0.
          2    1    3    3  502    0  0.21805406074E+03  0.21116391849E+02 -0.17280277389E+03  0.27902378765E+03  0.00000000000E+00 0. -1.
         -1    1    3    3    0  502  0.31070347958E+02  0.31656692916E+02 -0.62261006741E+02  0.76445704190E+02  0.00000000000E+00 0.  1.
         13    1    5    5    0    0 -0.14929917419E+02  0.11130815859E+03  0.49275352541E+02  0.12263958973E+03  0.00000000000E+00 0.  1.
        -13    1    5    5    0    0 -0.60489626273E+02  0.11787621056E+03  0.17343376000E+03  0.21825000576E+03  0.00000000000E+00 0. -1.
          2    1    6    6  503    0 -0.70095524087E+02 -0.13066867644E+03 -0.34176703143E+03  0.37254850593E+03  0.00000000000E+00 0. -1.
         -2    1    6    6    0  503 -0.10360934092E+03 -0.15128877748E+03 -0.22365717539E+03  0.28921570120E+03  0.00000000000E+00 0.  1.
<mgrwt>
<rscale>  0 0.12290933E+04</rscale>
<asrwt>0</asrwt>
<pdfrwt beam="1">  1        2 0.60026495E-01 0.12290933E+04</pdfrwt>
<pdfrwt beam="2">  1       -1 0.14891555E+00 0.12290933E+04</pdfrwt>
<totfact> 0.32804970E+01</totfact>
</mgrwt>
</event>
<event>
12    7  0.1857704E-007  0.2267687E+04  0.7818608E-02  0.8490772E-01
          2   -1    0    0  501    0  0.00000000000E+00  0.00000000000E+00  0.99845045882E+03  0.99845045882E+03  0.00000000000E+00 0. -1.
         -1   -1    0    0    0  501 -0.00000000000E+00 -0.00000000000E+00 -0.12875967869E+04  0.12875967869E+04  0.00000000000E+00 0.  1.
         24    2    1    2    0    0  0.10739150711E+03  0.88517316534E+03  0.21717273847E+03  0.92124228223E+03  0.80367131224E+02 0.  0.
        254    2    1    2    0    0 -0.10739150711E+03 -0.88517316534E+03 -0.50631906658E+03  0.13648049635E+04  0.90070479228E+03 0.  0.
         23    2    4    4    0    0 -0.47141279195E+03 -0.64724212710E+03 -0.21723380143E+03  0.83481741673E+03  0.92613191800E+02 0.  0.
         23    2    4    4    0    0  0.36402128483E+03 -0.23793103825E+03 -0.28908526515E+03  0.52998754679E+03  0.90519801474E+02 0.  0.
          2    1    3    3  502    0  0.55044682951E+02  0.41891753638E+03  0.14401591726E+03  0.44638817618E+03  0.00000000000E+00 0. -1.
         -3    1    3    3    0  502  0.52346824163E+02  0.46625562896E+03  0.73156821212E+02  0.47485410605E+03  0.00000000000E+00 0.  1.
         13    1    5    5    0    0 -0.27201805218E+03 -0.43634700623E+03 -0.16425445900E+03  0.53978890119E+03  0.00000000000E+00 0.  1.
        -13    1    5    5    0    0 -0.19939473977E+03 -0.21089512087E+03 -0.52979342427E+02  0.29502851554E+03  0.00000000000E+00 0. -1.
          3    1    6    6  503    0  0.15492963325E+02 -0.25767396660E+02 -0.46260147258E+02  0.55172383196E+02  0.00000000000E+00 0. -1.
         -3    1    6    6    0  503  0.34852832151E+03 -0.21216364159E+03 -0.24282511789E+03  0.47481516360E+03  0.00000000000E+00 0.  1.
<mgrwt>
<rscale>  0 0.22676875E+04</rscale>
<asrwt>0</asrwt>
<pdfrwt beam="1">  1        2 0.15360776E+00 0.22676875E+04</pdfrwt>
<pdfrwt beam="2">  1       -1 0.19809181E+00 0.22676875E+04</pdfrwt>
<totfact> 0.40602176E+00</totfact>
</mgrwt>
</event>
<event>
12    7  0.1857704E-007  0.1217045E+04  0.7818608E-02  0.9098067E-01
          2   -1    0    0  501    0  0.00000000000E+00  0.00000000000E+00  0.16336544920E+04  0.16336544920E+04  0.00000000000E+00 0. -1.
         -1   -1    0    0    0  501 -0.00000000000E+00 -0.00000000000E+00 -0.22666934700E+03  0.22666934700E+03  0.00000000000E+00 0.  1.
         24    2    1    2    0    0  0.32540598088E+02 -0.18589453429E+02  0.72549667422E+03  0.73075577838E+03  0.79083026203E+02 0.  0.
        254    2    1    2    0    0 -0.32540598088E+02  0.18589453429E+02  0.68148847083E+03  0.11295680607E+04  0.90005167045E+03 0.  0.
         23    2    4    4    0    0  0.13897491312E+03  0.28402467025E+03 -0.44618863621E+02  0.33239082039E+03  0.92243019810E+02 0.  0.
         23    2    4    4    0    0 -0.17151551120E+03 -0.26543521682E+03  0.72610733445E+03  0.79717724027E+03  0.91576560032E+02 0.  0.
          2    1    3    3  502    0  0.27939835486E+01 -0.47602142815E+01  0.62532881054E+03  0.62535317003E+03  0.00000000000E+00 0. -1.
         -1    1    3    3    0  502  0.29746614540E+02 -0.13829239147E+02  0.10016786368E+03  0.10540260835E+03  0.00000000000E+00 0.  1.
         13    1    5    5    0    0  0.13597823381E+03  0.26167274457E+03 -0.15150627481E+02  0.29528333314E+03  0.00000000000E+00 0. -1.
        -13    1    5    5    0    0  0.29966793089E+01  0.22351925677E+02 -0.29468236141E+02  0.37107487245E+02  0.00000000000E+00 0.  1.
          3    1    6    6  503    0 -0.16027739197E+03 -0.17301103738E+03  0.52848355987E+03  0.57871973743E+03  0.00000000000E+00 0. -1.
         -3    1    6    6    0  503 -0.11238119230E+02 -0.92424179435E+02  0.19762377458E+03  0.21845750284E+03  0.00000000000E+00 0.  1.
<mgrwt>
<rscale>  0 0.12170446E+04</rscale>
<asrwt>0</asrwt>
<pdfrwt beam="1">  1        2 0.25133145E+00 0.12170446E+04</pdfrwt>
<pdfrwt beam="2">  1       -1 0.34872208E-01 0.12170446E+04</pdfrwt>
<totfact> 0.93643205E+01</totfact>
</mgrwt>
</event>
<event>
12    7  0.1857704E-007  0.3905632E+04  0.7818608E-02  0.8023859E-01
          2   -1    0    0  501    0  0.00000000000E+00  0.00000000000E+00  0.14969606229E+04  0.14969606229E+04  0.00000000000E+00 0. -1.
         -1   -1    0    0    0  501 -0.00000000000E+00 -0.00000000000E+00 -0.25474889119E+04  0.25474889119E+04  0.00000000000E+00 0.  1.
         24    2    1    2    0    0 -0.12077458203E+04  0.10609840421E+04 -0.14430131290E+04  0.21619661310E+04  0.86449737438E+02 0.  0.
        254    2    1    2    0    0  0.12077458203E+04 -0.10609840421E+04  0.39248483997E+03  0.18824834038E+04  0.89741980796E+03 0.  0.
         23    2    4    4    0    0  0.78488204462E+03 -0.14427758204E+03  0.32531246070E+03  0.86662463947E+03  0.91401444191E+02 0.  0.
         23    2    4    4    0    0  0.42286377568E+03 -0.91670646008E+03  0.67172379263E+02  0.10158587643E+04  0.91062581296E+02 0.  0.
          2    1    3    3  502    0 -0.33496896024E+03  0.26765304845E+03 -0.42919302179E+03  0.60667042834E+03  0.00000000000E+00 0. -1.
         -1    1    3    3    0  502 -0.87277686006E+03  0.79333099367E+03 -0.10138201072E+04  0.15552957026E+04  0.00000000000E+00 0.  1.
         13    1    5    5    0    0  0.53926016853E+03 -0.84495048665E+02  0.26485355544E+03  0.60670285020E+03  0.00000000000E+00 0.  1.
        -13    1    5    5    0    0  0.24562187609E+03 -0.59782533376E+02  0.60458905260E+02  0.25992178927E+03  0.00000000000E+00 0. -1.
          3    1    6    6  503    0  0.94913049246E+01 -0.73641707850E+02 -0.27762774307E+01  0.74302716778E+02  0.00000000000E+00 0. -1.
         -3    1    6    6    0  503  0.41337247076E+03 -0.84306475223E+03  0.69948656694E+02  0.94155604751E+03  0.00000000000E+00 0.  1.
<mgrwt>
<rscale>  0 0.39056321E+04</rscale>
<asrwt>0</asrwt>
<pdfrwt beam="1">  1        2 0.23030164E+00 0.39056321E+04</pdfrwt>
<pdfrwt beam="2">  1       -1 0.39192137E+00 0.39056321E+04</pdfrwt>
<totfact> 0.93637138E-02</totfact>
</mgrwt>
</event>
<event>
12    7  0.1857704E-007  0.1353910E+04  0.7818608E-02  0.8987873E-01
          2   -1    0    0  501    0  0.00000000000E+00  0.00000000000E+00  0.82829049438E+03  0.82829049438E+03  0.00000000000E+00 0. -1.
         -1   -1    0    0    0  501 -0.00000000000E+00 -0.00000000000E+00 -0.55326999781E+03  0.55326999781E+03  0.00000000000E+00 0.  1.
         24    2    1    2    0    0 -0.87727912716E+02 -0.11162332713E+03  0.45686826692E+03  0.48514901892E+03  0.80529518916E+02 0.  0.
        254    2    1    2    0    0  0.87727912716E+02  0.11162332713E+03 -0.18184777034E+03  0.89641147327E+03  0.86621531042E+03 0.  0.
         23    2    4    4    0    0 -0.87382235502E+02 -0.86141181800E+02  0.30217877725E+03  0.33757070166E+03  0.87097686047E+02 0.  0.
         23    2    4    4    0    0  0.17511014822E+03  0.19776450893E+03 -0.48402654759E+03  0.55884077161E+03  0.90812687624E+02 0.  0.
          2    1    3    3  502    0 -0.40159825107E+02 -0.50052369788E+02  0.33108406110E+03  0.33724576615E+03  0.00000000000E+00 0. -1.
         -1    1    3    3    0  502 -0.47568087610E+02 -0.61570957340E+02  0.12578420582E+03  0.14790325277E+03  0.00000000000E+00 0.  1.
         13    1    5    5    0    0 -0.87606384468E+02 -0.44055902044E+02  0.14639702405E+03  0.17620411390E+03  0.00000000000E+00 0.  1.
        -13    1    5    5    0    0  0.22414896633E+00 -0.42085279756E+02  0.15578175320E+03  0.16136658776E+03  0.00000000000E+00 0. -1.
          3    1    6    6  503    0  0.11031799121E+02  0.64767303816E+02 -0.14830502284E+03  0.16220630085E+03  0.00000000000E+00 0. -1.
         -3    1    6    6    0  503  0.16407834910E+03  0.13299720511E+03 -0.33572152475E+03  0.39663447076E+03  0.00000000000E+00 0.  1.
<mgrwt>
<rscale>  0 0.13539103E+04</rscale>
<asrwt>0</asrwt>
<pdfrwt beam="1">  1        2 0.12742931E+00 0.13539103E+04</pdfrwt>
<pdfrwt beam="2">  1       -1 0.85118461E-01 0.13539103E+04</pdfrwt>
<totfact> 0.50043613E+01</totfact>
</mgrwt>
</event>
<event>
12    7  0.1857704E-007  0.1992534E+04  0.7818608E-02  0.8610119E-01
         -1   -1    0    0    0  501 -0.00000000000E+00  0.00000000000E+00  0.92592179997E+03  0.92592179997E+03  0.00000000000E+00 0.  1.
          2   -1    0    0  501    0  0.00000000000E+00 -0.00000000000E+00 -0.10719562557E+04  0.10719562557E+04  0.00000000000E+00 0. -1.
         24    2    1    2    0    0  0.37736731298E+03  0.24154854404E+03  0.60663588586E+03  0.75823931578E+03  0.78536449755E+02 0.  0.
        254    2    1    2    0    0 -0.37736731298E+03 -0.24154854404E+03 -0.75267034158E+03  0.12396387399E+04  0.87717716243E+03 0.  0.
         23    2    4    4    0    0 -0.11373886735E+03 -0.17148247885E+02 -0.85537579794E+03  0.86788353271E+03  0.91233098639E+02 0.  0.
         23    2    4    4    0    0 -0.26362844563E+03 -0.22440029616E+03  0.10270545636E+03  0.37175520718E+03  0.88306698708E+02 0.  0.
          2    1    3    3  502    0  0.83546562257E+01  0.23011830385E+02  0.20335839521E+02  0.31825948334E+02  0.00000000000E+00 0. -1.
         -1    1    3    3    0  502  0.36901265676E+03  0.21853671366E+03  0.58630004634E+03  0.72641336745E+03  0.00000000000E+00 0.  1.
         13    1    5    5    0    0 -0.39181348703E+02 -0.51321666434E+02 -0.40096453660E+03  0.40613009140E+03  0.00000000000E+00 0. -1.
        -13    1    5    5    0    0 -0.74557518646E+02  0.34173418549E+02 -0.45441126134E+03  0.46175344130E+03  0.00000000000E+00 0.  1.
          2    1    6    6  503    0 -0.23520180372E+03 -0.15418139349E+03  0.87081578907E+02  0.29440616834E+03  0.00000000000E+00 0. -1.
         -2    1    6    6    0  503 -0.28426641909E+02 -0.70218902670E+02  0.15623877451E+02  0.77349038837E+02  0.00000000000E+00 0.  1.
<mgrwt>
<rscale>  0 0.19925337E+04</rscale>
<asrwt>0</asrwt>
<pdfrwt beam="1">  1        2 0.16491635E+00 0.19925337E+04</pdfrwt>
<pdfrwt beam="2">  1       -1 0.14244951E+00 0.19925337E+04</pdfrwt>
<totfact> 0.96297431E+00</totfact>
</mgrwt>
</event>
<event>
12    7  0.1857704E-007  0.2128600E+04  0.7818608E-02  0.8548748E-01
          2   -1    0    0  501    0  0.00000000000E+00  0.00000000000E+00  0.12748897692E+04  0.12748897692E+04  0.00000000000E+00 0. -1.
         -1   -1    0    0    0  501 -0.00000000000E+00 -0.00000000000E+00 -0.88849624552E+03  0.88849624552E+03  0.00000000000E+00 0.  1.
         24    2    1    2    0    0  0.48322383829E+03  0.35274085799E+02 -0.57002235848E+03  0.75247175289E+03  0.80862294711E+02 0.  0.
        254    2    1    2    0    0 -0.48322383829E+03 -0.35274085799E+02  0.95641588220E+03  0.14109142619E+04  0.91716856444E+03 0.  0.
         23    2    4    4    0    0 -0.40212247135E+03  0.27372710413E+03  0.11718847442E+03  0.50835343006E+03  0.89783416117E+02 0.  0.
         23    2    4    4    0    0 -0.81101366941E+02 -0.30900118993E+03  0.83922740778E+03  0.90256083181E+03  0.90852881361E+02 0.  0.
          2    1    3    3  502    0  0.12450675822E+02 -0.59783658318E+00 -0.43570557773E+02  0.45318541918E+02  0.00000000000E+00 0. -1.
         -1    1    3    3    0  502  0.47077316247E+03  0.35871922382E+02 -0.52645180071E+03  0.70715321097E+03  0.00000000000E+00 0.  1.
         13    1    5    5    0    0 -0.12695245639E+03  0.38545490107E+02  0.30209771032E+02  0.13607097875E+03  0.00000000000E+00 0. -1.
        -13    1    5    5    0    0 -0.27517001496E+03  0.23518161403E+03  0.86978703392E+02  0.37228245131E+03  0.00000000000E+00 0.  1.
          1    1    6    6  503    0  0.59036490890E+01 -0.15399671027E+03  0.40796171297E+03  0.43609929958E+03  0.00000000000E+00 0. -1.
         -1    1    6    6    0  503 -0.87005016030E+02 -0.15500447967E+03  0.43126569481E+03  0.46646153223E+03  0.00000000000E+00 0.  1.
<mgrwt>
<rscale>  0 0.21286003E+04</rscale>
<asrwt>0</asrwt>
<pdfrwt beam="1">  1        2 0.19613689E+00 0.21286003E+04</pdfrwt>
<pdfrwt beam="2">  1       -1 0.13669173E+00 0.21286003E+04</pdfrwt>
<totfact> 0.79954092E+00</totfact>
</mgrwt>
</event>
<event>
12    7  0.1857704E-007  0.1722755E+04  0.7818608E-02  0.8748492E-01
         -1   -1    0    0    0  501 -0.00000000000E+00  0.00000000000E+00  0.43306047828E+03  0.43306047828E+03  0.00000000000E+00 0.  1.
          2   -1    0    0  501    0  0.00000000000E+00 -0.00000000000E+00 -0.17133203205E+04  0.17133203205E+04  0.00000000000E+00 0. -1.
         24    2    1    2    0    0  0.30512521644E+03  0.11188956624E+03 -0.11287308851E+04  0.11773651897E+04  0.80837529742E+02 0.  0.
        254    2    1    2    0    0 -0.30512521644E+03 -0.11188956624E+03 -0.15152895711E+03  0.96901560906E+03  0.90022750071E+03 0.  0.
         23    2    4    4    0    0  0.20026945637E+03  0.19709557118E+03  0.11012202897E+03  0.31515447425E+03  0.90779744665E+02 0.  0.
         23    2    4    4    0    0 -0.50539467281E+03 -0.30898513742E+03 -0.26165098607E+03  0.65386113482E+03  0.90429832798E+02 0.  0.
          4    1    3    3  502    0  0.30161901568E+03  0.11375650448E+03 -0.10461581922E+04  0.10946970065E+04  0.00000000000E+00 0. -1.
         -3    1    3    3    0  502  0.35062007637E+01 -0.18669382446E+01 -0.82572692906E+02  0.82668183215E+02  0.00000000000E+00 0.  1.
         13    1    5    5    0    0  0.16157903822E+03  0.11617563593E+03  0.10573345367E+03  0.22535333856E+03  0.00000000000E+00 0.  1.
        -13    1    5    5    0    0  0.38690418152E+02  0.80919935252E+02  0.43885752977E+01  0.89801135690E+02  0.00000000000E+00 0. -1.
          2    1    6    6  503    0 -0.37142588316E+03 -0.23819424064E+03 -0.23531627150E+03  0.50006742604E+03  0.00000000000E+00 0.  1.
         -2    1    6    6    0  503 -0.13396878965E+03 -0.70790896777E+02 -0.26334714573E+02  0.15379370877E+03  0.00000000000E+00 0. -1.
<mgrwt>
<rscale>  0 0.17227551E+04</rscale>
<asrwt>0</asrwt>
<pdfrwt beam="1">  1        2 0.26358774E+00 0.17227551E+04</pdfrwt>
<pdfrwt beam="2">  1       -1 0.66624690E-01 0.17227551E+04</pdfrwt>
<totfact> 0.23810355E+01</totfact>
</mgrwt>
</event>
<event>
12    7  0.1857704E-007  0.1958677E+04  0.7818608E-02  0.8626188E-01
         -3   -1    0    0    0  501 -0.00000000000E+00  0.00000000000E+00  0.70268505255E+03  0.70268505255E+03  0.00000000000E+00 0.  1.
          4   -1    0    0  501    0  0.00000000000E+00 -0.00000000000E+00 -0.13649129693E+04  0.13649129693E+04  0.00000000000E+00 0. -1.
         24    2    1    2    0    0 -0.35740211570E+03  0.27943003344E+02  0.43846016258E+03  0.57188954286E+03  0.79330015222E+02 0.  0.
        254    2    1    2    0    0  0.35740211570E+03 -0.27943003344E+02 -0.11006880793E+04  0.14957084790E+04  0.94716024114E+03 0.  0.
         23    2    4    4    0    0  0.12957706846E+03 -0.40140489977E+03 -0.91573650017E+03  0.10123085509E+04  0.90989858271E+02 0.  0.
         23    2    4    4    0    0  0.22782504724E+03  0.37346189642E+03 -0.18495157915E+03  0.48339992805E+03  0.89946448430E+02 0.  0.
          4    1    3    3  502    0 -0.13311787321E+02  0.26404792851E+01  0.52379512671E+02  0.54109048783E+02  0.00000000000E+00 0. -1.
         -3    1    3    3    0  502 -0.34409032838E+03  0.25302524059E+02  0.38608064991E+03  0.51778049408E+03  0.00000000000E+00 0.  1.
         13    1    5    5    0    0  0.20999338141E+01 -0.92946876714E+02 -0.26747870011E+03  0.28317554030E+03  0.00000000000E+00 0.  1.
        -13    1    5    5    0    0  0.12747713465E+03 -0.30845802305E+03 -0.64825780005E+03  0.72913301062E+03  0.00000000000E+00 0. -1.
          1    1    6    6  503    0  0.22805113313E+03  0.33891648706E+03 -0.15260294801E+03  0.43607265938E+03  0.00000000000E+00 0. -1.
         -1    1    6    6    0  503 -0.22608589396E+00  0.34545409367E+02 -0.32348631142E+02  0.47327268672E+02  0.00000000000E+00 0.  1.
<mgrwt>
<rscale>  0 0.19586770E+04</rscale>
<asrwt>0</asrwt>
<pdfrwt beam="1">  1        4 0.20998661E+00 0.19586770E+04</pdfrwt>
<pdfrwt beam="2">  1       -3 0.10810539E+00 0.19586770E+04</pdfrwt>
<totfact> 0.17504650E-01</totfact>
</mgrwt>
</event>
<event>
12    7  0.1857704E-007  0.3534659E+04  0.7818608E-02  0.8105625E-01
         -1   -1    0    0    0  501 -0.00000000000E+00  0.00000000000E+00  0.12738802742E+04  0.12738802742E+04  0.00000000000E+00 0.  1.
          2   -1    0    0  501    0  0.00000000000E+00 -0.00000000000E+00 -0.24519209407E+04  0.24519209407E+04  0.00000000000E+00 0. -1.
         24    2    1    2    0    0  0.48641205671E+02  0.66061898040E+03 -0.21469398400E+04  0.22479740116E+04  0.72478105285E+02 0.  0.
        254    2    1    2    0    0 -0.48641205671E+02 -0.66061898040E+03  0.96889917349E+03  0.14778272033E+04  0.89801126407E+03 0.  0.
         23    2    4    4    0    0 -0.14260018681E+03 -0.56027581140E+03  0.11134581067E+04  0.12579158999E+04  0.91212157419E+02 0.  0.
         23    2    4    4    0    0  0.93958981134E+02 -0.10034316900E+03 -0.14455893320E+03  0.21991130348E+03  0.92556223607E+02 0.  0.
          4    1    3    3  502    0  0.62882727645E+02  0.61343175439E+03 -0.20079122445E+04  0.21004676470E+04  0.00000000000E+00 0. -1.
         -3    1    3    3    0  502 -0.14241521975E+02  0.47187226010E+02 -0.13902759555E+03  0.14750636451E+03  0.00000000000E+00 0.  1.
         13    1    5    5    0    0 -0.11015698240E+03 -0.25169882038E+03  0.54175555251E+03  0.60744212533E+03  0.00000000000E+00 0.  1.
        -13    1    5    5    0    0 -0.32443204410E+02 -0.30857699103E+03  0.57170255418E+03  0.65047377454E+03  0.00000000000E+00 0. -1.
          3    1    6    6  503    0  0.87108790384E+01 -0.66016819105E+02 -0.29968810713E+02  0.73022116060E+02  0.00000000000E+00 0. -1.
         -3    1    6    6    0  503  0.85248102096E+02 -0.34326349891E+02 -0.11459012249E+03  0.14688918742E+03  0.00000000000E+00 0.  1.
<mgrwt>
<rscale>  0 0.35346591E+04</rscale>
<asrwt>0</asrwt>
<pdfrwt beam="1">  1        2 0.37721861E+00 0.35346591E+04</pdfrwt>
<pdfrwt beam="2">  1       -1 0.19598158E+00 0.35346591E+04</pdfrwt>
<totfact> 0.55457073E-01</totfact>
</mgrwt>
</event>
<event>
12    7  0.1857704E-007  0.2220343E+04  0.7818608E-02  0.8510008E-01
         -1   -1    0    0    0  501 -0.00000000000E+00  0.00000000000E+00  0.49382093182E+03  0.49382093182E+03  0.00000000000E+00 0.  1.
          2   -1    0    0  501    0  0.00000000000E+00 -0.00000000000E+00 -0.24958052581E+04  0.24958052581E+04  0.00000000000E+00 0. -1.
         24    2    1    2    0    0  0.52144619329E+03 -0.24891459933E+00 -0.18691482731E+04  0.19422108416E+04  0.81003036657E+02 0.  0.
        254    2    1    2    0    0 -0.52144619329E+03  0.24891459933E+00 -0.13283605320E+03  0.10474153483E+04  0.89862522802E+03 0.  0.
         23    2    4    4    0    0 -0.18431282401E+03  0.38306534919E+03 -0.27033658919E+03  0.51098988967E+03  0.85548331631E+02 0.  0.
         23    2    4    4    0    0 -0.33713336928E+03 -0.38281643459E+03  0.13750053599E+03  0.53642545867E+03  0.92943768122E+02 0.  0.
          4    1    3    3  502    0  0.39499284088E+03 -0.25304706464E+02 -0.13155763424E+04  0.13738270579E+04  0.00000000000E+00 0. -1.
         -3    1    3    3    0  502  0.12645335242E+03  0.25055791865E+02 -0.55357193073E+03  0.56838378366E+03  0.00000000000E+00 0.  1.
         13    1    5    5    0    0 -0.67216853023E+02  0.17747114810E+03 -0.16705911780E+03  0.25282971064E+03  0.00000000000E+00 0.  1.
        -13    1    5    5    0    0 -0.11709597099E+03  0.20559420109E+03 -0.10327747138E+03  0.25816017903E+03  0.00000000000E+00 0. -1.
          1    1    6    6  503    0 -0.72983009635E+02 -0.66291837938E+02 -0.87586688623E+01  0.98984047972E+02  0.00000000000E+00 0. -1.
         -1    1    6    6    0  503 -0.26415035965E+03 -0.31652459665E+03  0.14625920485E+03  0.43744141069E+03  0.00000000000E+00 0.  1.
<mgrwt>
<rscale>  0 0.22203431E+04</rscale>
<asrwt>0</asrwt>
<pdfrwt beam="1">  1        2 0.38397004E+00 0.22203431E+04</pdfrwt>
<pdfrwt beam="2">  1       -1 0.75972451E-01 0.22203431E+04</pdfrwt>
<totfact> 0.63260811E+00</totfact>
</mgrwt>
</event>
<event>
12    7  0.1857704E-007  0.1598839E+04  0.7818608E-02  0.8821261E-01
          2   -1    0    0  501    0  0.00000000000E+00  0.00000000000E+00  0.19211813729E+04  0.19211813729E+04  0.00000000000E+00 0. -1.
         -1   -1    0    0    0  501 -0.00000000000E+00 -0.00000000000E+00 -0.33264527990E+03  0.33264527990E+03  0.00000000000E+00 0.  1.
         24    2    1    2    0    0 -0.88031812022E+02  0.35901712636E+03  0.11131741898E+04  0.11757083831E+04  0.80563815181E+02 0.  0.
        254    2    1    2    0    0  0.88031812022E+02 -0.35901712636E+03  0.47536190313E+03  0.10781182696E+04  0.89427465993E+03 0.  0.
         23    2    4    4    0    0  0.72667315962E+02 -0.64560837865E+03  0.39369556362E+03  0.76513341890E+03  0.91335833682E+02 0.  0.
         23    2    4    4    0    0  0.15364496060E+02  0.28659125229E+03  0.81666339511E+02  0.31298485072E+03  0.94443168862E+02 0.  0.
          4    1    3    3  502    0 -0.88780624488E+02  0.23693337274E+03  0.81941160601E+03  0.85758661514E+03  0.00000000000E+00 0. -1.
         -3    1    3    3    0  502  0.74881246658E+00  0.12208375362E+03  0.29376258382E+03  0.31812176799E+03  0.00000000000E+00 0.  1.
         13    1    5    5    0    0  0.60948261518E+02 -0.17869595928E+03  0.12216188693E+03  0.22487877415E+03  0.00000000000E+00 0. -1.
        -13    1    5    5    0    0  0.11719054444E+02 -0.46691241937E+03  0.27153367669E+03  0.54025464475E+03  0.00000000000E+00 0.  1.
          3    1    6    6  503    0 -0.30528348164E+02  0.19213369356E+03  0.33328773989E+02  0.19737817361E+03  0.00000000000E+00 0. -1.
         -3    1    6    6    0  503  0.45892844224E+02  0.94457558729E+02  0.48337565523E+02  0.11560667711E+03  0.00000000000E+00 0.  1.
<mgrwt>
<rscale>  0 0.15988395E+04</rscale>
<asrwt>0</asrwt>
<pdfrwt beam="1">  1        2 0.29556636E+00 0.15988395E+04</pdfrwt>
<pdfrwt beam="2">  1       -1 0.51176198E-01 0.15988395E+04</pdfrwt>
<totfact> 0.31000209E+01</totfact>
</mgrwt>
</event>
<event>
12    7  0.1990874E-007  0.2070283E+04  0.7818608E-02  0.8574448E-01
         -1   -1    0    0    0  501 -0.00000000000E+00  0.00000000000E+00  0.54432181420E+03  0.54432181420E+03  0.00000000000E+00 0.  1.
          2   -1    0    0  501    0  0.00000000000E+00 -0.00000000000E+00 -0.19685367821E+04  0.19685367821E+04  0.00000000000E+00 0. -1.
         24    2    1    2    0    0 -0.75310187122E+03 -0.25705710639E+03 -0.89161155566E+03  0.11977974205E+04  0.80664179680E+02 0.  0.
        254    2    1    2    0    0  0.75310187122E+03  0.25705710639E+03 -0.53260341220E+03  0.13150611758E+04  0.90137601313E+03 0.  0.
         23    2    4    4    0    0  0.23439505487E+03  0.53243425382E+03 -0.37907769330E+03  0.70099559186E+03  0.96268613056E+02 0.  0.
         23    2    4    4    0    0  0.51870681635E+03 -0.27537714743E+03 -0.15352571890E+03  0.61406558395E+03  0.92828122790E+02 0.  0.
          2    1    3    3  502    0 -0.60326720219E+03 -0.19119224759E+03 -0.66199791405E+03  0.91582041415E+03  0.00000000000E+00 0. -1.
         -1    1    3    3    0  502 -0.14983466902E+03 -0.65864858801E+02 -0.22961364162E+03  0.28197700630E+03  0.00000000000E+00 0.  1.
         13    1    5    5    0    0  0.79018324999E+02  0.13339200869E+03 -0.14828911506E+03  0.21453900651E+03  0.00000000000E+00 0. -1.
        -13    1    5    5    0    0  0.15537672987E+03  0.39904224513E+03 -0.23078857823E+03  0.48645658535E+03  0.00000000000E+00 0.  1.
          1    1    6    6  503    0  0.40026574165E+03 -0.19177308566E+03 -0.78139077904E+02  0.45066095439E+03  0.00000000000E+00 0. -1.
         -1    1    6    6    0  503  0.11844107470E+03 -0.83604061768E+02 -0.75386640997E+02  0.16340462956E+03  0.00000000000E+00 0.  1.
<mgrwt>
<rscale>  0 0.20702826E+04</rscale>
<asrwt>0</asrwt>
<pdfrwt beam="1">  1        2 0.30285181E+00 0.20702826E+04</pdfrwt>
<pdfrwt beam="2">  1       -1 0.83741817E-01 0.20702826E+04</pdfrwt>
<totfact> 0.10344174E+01</totfact>
</mgrwt>
</event>
<event>
12    7  0.1857704E-007  0.2133722E+04  0.7818608E-02  0.8546532E-01
          2   -1    0    0  501    0  0.00000000000E+00  0.00000000000E+00  0.33342974262E+04  0.33342974262E+04  0.00000000000E+00 0. -1.
         -1   -1    0    0    0  501 -0.00000000000E+00 -0.00000000000E+00 -0.34135890050E+03  0.34135890050E+03  0.00000000000E+00 0.  1.
         24    2    1    2    0    0 -0.34418413796E+03  0.62327163980E+03  0.36220761928E+03  0.80243623609E+03  0.76021679305E+02 0.  0.
        254    2    1    2    0    0  0.34418413796E+03 -0.62327163980E+03  0.26307309064E+04  0.28732200906E+04  0.90979026664E+03 0.  0.
         23    2    4    4    0    0 -0.67048335454E+02  0.60481520404E+02  0.58062719275E+01  0.12788991073E+03  0.90380434146E+02 0.  0.
         23    2    4    4    0    0  0.41123247342E+03 -0.68375316021E+03  0.26249246345E+04  0.27453301799E+04  0.99889581365E+02 0.  0.
          2    1    3    3  502    0 -0.13613643753E+02  0.70405493823E+02  0.31083140804E+02  0.78156423274E+02  0.00000000000E+00 0. -1.
         -1    1    3    3    0  502 -0.33057049421E+03  0.55286614598E+03  0.33112447848E+03  0.72427981282E+03  0.00000000000E+00 0.  1.
         13    1    5    5    0    0 -0.87553552787E+02  0.36395469654E+02  0.12259050054E+02  0.95606166774E+02  0.00000000000E+00 0. -1.
        -13    1    5    5    0    0  0.20505217333E+02  0.24086050750E+02 -0.64527781266E+01  0.32283743961E+02  0.00000000000E+00 0.  1.
          3    1    6    6  503    0  0.20746646662E+02 -0.54731612983E+01  0.72498377335E+02  0.75606835396E+02  0.00000000000E+00 0. -1.
         -3    1    6    6    0  503  0.39048582676E+03 -0.67827999891E+03  0.25524262572E+04  0.26697233445E+04  0.00000000000E+00 0.  1.
<mgrwt>
<rscale>  0 0.21337217E+04</rscale>
<asrwt>0</asrwt>
<pdfrwt beam="1">  1        2 0.51296881E+00 0.21337217E+04</pdfrwt>
<pdfrwt beam="2">  1       -1 0.52516756E-01 0.21337217E+04</pdfrwt>
<totfact> 0.40492185E+00</totfact>
</mgrwt>
</event>
<event>
12    7  0.3028819E-007  0.2389678E+04  0.7818608E-02  0.8443378E-01
         -1   -1    0    0    0  501 -0.00000000000E+00  0.00000000000E+00  0.82548673711E+03  0.82548673711E+03  0.00000000000E+00 0.  1.
          2   -1    0    0  501    0  0.00000000000E+00 -0.00000000000E+00 -0.17294526780E+04  0.17294526780E+04  0.00000000000E+00 0. -1.
         24    2    1    2    0    0 -0.87740555982E+03 -0.22528266628E+03 -0.90514915416E+03  0.12831170339E+04  0.80632098844E+02 0.  0.
        254    2    1    2    0    0  0.87740555982E+03  0.22528266628E+03  0.11832132426E+01  0.12718223812E+04  0.89271382491E+03 0.  0.
         23    2    4    4    0    0 -0.10688884245E+03  0.68636186598E+02  0.19677210560E+03  0.25118261219E+03  0.90759530481E+02 0.  0.
         23    2    4    4    0    0  0.98429440228E+03  0.15664647968E+03 -0.19558889235E+03  0.10206397690E+04  0.10038392961E+03 0.  0.
          4    1    3    3  502    0 -0.75727890490E+03 -0.20312097923E+03 -0.74363776559E+03  0.10806139914E+04  0.00000000000E+00 0. -1.
         -1    1    3    3    0  502 -0.12012665492E+03 -0.22161687049E+02 -0.16151138857E+03  0.20250304253E+03  0.00000000000E+00 0.  1.
         13    1    5    5    0    0 -0.12079019012E+03  0.58672080258E+02  0.19026997868E+03  0.23288483810E+03  0.00000000000E+00 0. -1.
        -13    1    5    5    0    0  0.13901347666E+02  0.99641063405E+01  0.65021269179E+01  0.18297774088E+02  0.00000000000E+00 0.  1.
          3    1    6    6  503    0  0.85004251071E+03  0.12673944937E+03 -0.13355117243E+03  0.86975345570E+03  0.00000000000E+00 0. -1.
         -3    1    6    6    0  503  0.13425189156E+03  0.29907030312E+02 -0.62037719928E+02  0.15088631331E+03  0.00000000000E+00 0.  1.
<mgrwt>
<rscale>  0 0.23896780E+04</rscale>
<asrwt>0</asrwt>
<pdfrwt beam="1">  1        2 0.26606964E+00 0.23896780E+04</pdfrwt>
<pdfrwt beam="2">  1       -1 0.12699796E+00 0.23896780E+04</pdfrwt>
<totfact> 0.52049208E+00</totfact>
</mgrwt>
</event>
<event>
12    7  0.1857704E-007  0.1815641E+04  0.7818608E-02  0.8698026E-01
         -1   -1    0    0    0  501 -0.00000000000E+00  0.00000000000E+00  0.24831479678E+03  0.24831479678E+03  0.00000000000E+00 0.  1.
          2   -1    0    0  501    0  0.00000000000E+00 -0.00000000000E+00 -0.33189237025E+04  0.33189237025E+04  0.00000000000E+00 0. -1.
         24    2    1    2    0    0  0.36326221506E+03 -0.32140717312E+03 -0.22242254752E+03  0.53963704626E+03  0.80463309839E+02 0.  0.
        254    2    1    2    0    0 -0.36326221506E+03  0.32140717312E+03 -0.28481863582E+04  0.30276014530E+04  0.90495470571E+03 0.  0.
         23    2    4    4    0    0  0.83186569926E+02  0.29293480122E+03 -0.22631187986E+04  0.22853197477E+04  0.90823176101E+02 0.  0.
         23    2    4    4    0    0 -0.44644878498E+03  0.28472371905E+02 -0.58506755957E+03  0.74228170532E+03  0.92471007372E+02 0.  0.
          2    1    3    3  502    0  0.55919455842E+02 -0.75407525636E+02 -0.16345951700E+02  0.95291503301E+02  0.00000000000E+00 0. -1.
         -1    1    3    3    0  502  0.30734275922E+03 -0.24599964748E+03 -0.20607659582E+03  0.44434554296E+03  0.00000000000E+00 0.  1.
         13    1    5    5    0    0 -0.11425756067E+02  0.11826019246E+03 -0.89635934520E+03  0.90419914662E+03  0.00000000000E+00 0. -1.
        -13    1    5    5    0    0  0.94612325993E+02  0.17467460875E+03 -0.13667594534E+04  0.13811206011E+04  0.00000000000E+00 0.  1.
          4    1    6    6  503    0 -0.42344611744E+03  0.48980285233E+01 -0.53433952907E+03  0.68179860471E+03  0.00000000000E+00 0.  1.
         -4    1    6    6    0  503 -0.23002667547E+02  0.23574343382E+02 -0.50728030507E+02  0.60483100609E+02  0.00000000000E+00 0. -1.
<mgrwt>
<rscale>  0 0.18156408E+04</rscale>
<asrwt>0</asrwt>
<pdfrwt beam="1">  1        2 0.51060364E+00 0.18156408E+04</pdfrwt>
<pdfrwt beam="2">  1       -1 0.38202277E-01 0.18156408E+04</pdfrwt>
<totfact> 0.77409223E+00</totfact>
</mgrwt>
</event>
